/*--------------------------------*- C++ -*----------------------------------*\
| =========                 |                                                 |
| \\      /  F ield         | OpenFOAM: The Open Source CFD Toolbox           |
|  \\    /   O peration     | Version:  v1706                                 |
|   \\  /    A nd           | Web:      www.OpenFOAM.com                      |
|    \\/     M anipulation  |                                                 |
\*---------------------------------------------------------------------------*/
FoamFile
{
    version     2.0;
    format      ascii;
    class       volScalarField;
    location    "7e-06";
    object      alpha;
}
// * * * * * * * * * * * * * * * * * * * * * * * * * * * * * * * * * * * * * //

dimensions      [1 -1 -1 0 0 0 0];


internalField   nonuniform List<scalar> 
30038
(
1.40478e-05
1.40478e-05
1.40478e-05
1.40478e-05
1.40478e-05
1.40478e-05
1.40478e-05
1.40478e-05
1.40478e-05
1.40478e-05
1.40478e-05
1.40478e-05
1.40478e-05
1.40478e-05
1.40478e-05
1.40478e-05
1.40478e-05
1.40478e-05
1.40478e-05
1.40478e-05
1.40478e-05
1.40478e-05
1.40478e-05
1.40478e-05
1.40478e-05
1.40478e-05
1.40478e-05
1.40478e-05
1.40478e-05
1.40478e-05
1.40478e-05
1.40478e-05
1.40478e-05
1.40478e-05
1.40478e-05
1.40478e-05
1.40478e-05
1.40478e-05
1.40478e-05
1.40478e-05
1.40478e-05
1.40478e-05
1.40478e-05
1.40478e-05
1.40478e-05
1.40478e-05
1.40478e-05
1.40478e-05
1.40478e-05
1.40478e-05
1.40478e-05
1.40478e-05
1.40478e-05
1.40478e-05
1.40478e-05
1.40478e-05
1.40478e-05
1.40478e-05
1.40478e-05
1.40478e-05
1.40478e-05
1.40478e-05
1.40478e-05
1.40478e-05
1.40478e-05
1.40478e-05
1.40478e-05
1.40478e-05
1.40478e-05
1.40478e-05
1.40478e-05
1.40478e-05
1.40478e-05
1.40478e-05
1.40478e-05
1.40478e-05
1.40478e-05
1.40478e-05
1.40478e-05
1.40478e-05
1.40478e-05
1.40478e-05
1.40478e-05
1.40478e-05
1.40478e-05
1.40478e-05
1.40478e-05
1.40478e-05
1.40478e-05
1.40478e-05
1.40478e-05
1.40478e-05
1.40478e-05
1.40478e-05
1.40478e-05
1.40478e-05
1.40478e-05
1.40478e-05
1.40478e-05
1.40478e-05
1.40478e-05
1.40478e-05
1.40478e-05
1.40478e-05
1.40478e-05
1.40478e-05
1.40478e-05
1.40478e-05
1.40478e-05
1.40478e-05
1.40478e-05
1.40478e-05
1.40478e-05
1.40478e-05
1.40478e-05
1.40478e-05
1.40478e-05
1.40478e-05
1.40478e-05
1.40478e-05
1.40478e-05
1.40478e-05
1.40478e-05
1.40478e-05
1.40478e-05
1.40478e-05
1.40478e-05
1.40478e-05
1.40478e-05
1.40478e-05
1.40478e-05
1.40478e-05
1.40478e-05
1.40478e-05
1.40478e-05
1.40478e-05
1.40478e-05
1.40478e-05
1.40478e-05
1.40478e-05
1.40478e-05
1.40478e-05
1.40478e-05
1.40478e-05
1.40478e-05
1.40478e-05
1.40478e-05
1.40478e-05
1.40478e-05
1.40478e-05
1.40478e-05
1.40478e-05
1.40478e-05
1.40478e-05
1.40478e-05
1.40478e-05
1.40478e-05
1.40478e-05
1.40478e-05
1.40478e-05
1.40478e-05
1.40478e-05
1.40478e-05
1.40478e-05
1.40478e-05
1.40478e-05
1.40478e-05
1.40478e-05
1.40478e-05
1.40478e-05
1.40478e-05
1.40478e-05
1.40478e-05
1.40478e-05
1.40478e-05
1.40478e-05
1.40478e-05
1.40478e-05
1.40478e-05
1.40478e-05
1.40478e-05
1.40478e-05
1.40478e-05
1.40478e-05
1.40478e-05
1.40478e-05
1.40478e-05
1.40478e-05
1.40478e-05
1.40478e-05
1.40478e-05
1.40478e-05
1.40478e-05
1.40478e-05
1.40478e-05
1.40478e-05
1.40478e-05
1.40478e-05
1.40478e-05
1.40478e-05
1.40478e-05
1.40478e-05
1.40478e-05
1.40478e-05
1.40478e-05
1.40478e-05
1.40478e-05
1.40478e-05
1.40478e-05
1.40478e-05
1.40478e-05
1.40478e-05
1.40478e-05
1.40478e-05
1.40478e-05
1.40478e-05
1.40478e-05
1.40478e-05
1.40478e-05
1.40478e-05
1.40478e-05
1.40478e-05
1.40478e-05
1.40478e-05
1.40478e-05
1.40478e-05
1.40478e-05
1.40478e-05
1.40478e-05
1.40478e-05
1.40478e-05
1.40478e-05
1.40478e-05
1.40478e-05
1.40478e-05
1.40478e-05
1.40478e-05
1.40478e-05
1.40478e-05
1.40478e-05
1.40478e-05
1.40478e-05
1.40478e-05
1.40478e-05
1.40478e-05
1.40478e-05
1.40478e-05
1.40478e-05
1.40478e-05
1.40478e-05
1.40478e-05
1.40478e-05
1.40478e-05
1.40478e-05
1.40478e-05
1.40478e-05
1.40478e-05
1.40478e-05
1.40478e-05
1.40478e-05
1.40478e-05
1.40478e-05
1.40478e-05
1.40478e-05
1.40478e-05
1.40478e-05
1.40478e-05
1.40478e-05
1.40478e-05
1.40478e-05
1.40478e-05
1.40478e-05
1.40478e-05
1.40478e-05
1.40478e-05
1.40478e-05
1.40478e-05
1.40478e-05
1.40478e-05
1.40478e-05
1.40478e-05
1.40478e-05
1.40478e-05
1.40478e-05
1.40478e-05
1.40478e-05
1.40478e-05
1.40478e-05
1.40478e-05
1.40478e-05
1.40478e-05
1.40478e-05
1.40478e-05
1.40478e-05
1.40478e-05
1.40478e-05
1.40478e-05
1.40478e-05
1.40478e-05
1.40478e-05
1.40478e-05
1.40478e-05
1.40478e-05
1.40478e-05
1.40478e-05
1.40478e-05
1.40478e-05
1.40478e-05
1.40478e-05
1.40478e-05
1.40478e-05
1.40478e-05
1.40478e-05
1.40478e-05
1.40478e-05
1.40478e-05
1.40478e-05
1.40478e-05
1.40478e-05
1.40478e-05
1.40478e-05
1.40478e-05
1.40478e-05
1.40478e-05
1.40478e-05
1.40478e-05
1.40478e-05
1.40478e-05
1.40478e-05
1.40478e-05
1.40478e-05
1.40478e-05
1.40478e-05
1.40478e-05
1.40478e-05
1.40478e-05
1.40478e-05
1.40478e-05
1.40478e-05
1.40478e-05
1.40478e-05
1.40478e-05
1.40478e-05
1.40478e-05
1.40478e-05
1.40478e-05
1.40478e-05
1.40478e-05
1.40478e-05
1.40478e-05
1.40478e-05
1.40478e-05
1.40478e-05
1.40478e-05
1.40478e-05
1.40478e-05
1.40478e-05
1.40478e-05
1.40478e-05
1.40478e-05
1.40478e-05
1.40478e-05
1.40478e-05
1.40478e-05
1.40478e-05
1.40478e-05
1.40478e-05
1.40478e-05
1.40478e-05
1.40478e-05
1.40478e-05
1.40478e-05
1.40478e-05
1.40478e-05
1.40478e-05
1.40478e-05
1.40478e-05
1.40478e-05
1.40478e-05
1.40478e-05
1.40478e-05
1.40478e-05
1.40478e-05
1.40478e-05
1.40478e-05
1.40478e-05
1.40478e-05
1.40478e-05
1.40478e-05
1.40478e-05
1.40478e-05
1.40478e-05
1.40478e-05
1.40478e-05
1.40478e-05
1.40478e-05
1.40478e-05
1.40478e-05
1.40478e-05
1.40478e-05
1.40478e-05
1.40478e-05
1.40478e-05
1.40478e-05
1.40478e-05
1.40478e-05
1.40478e-05
1.40478e-05
1.40478e-05
1.40478e-05
1.40478e-05
1.40478e-05
1.40478e-05
1.40478e-05
1.40478e-05
1.40478e-05
1.40478e-05
1.40478e-05
1.40478e-05
1.40478e-05
1.40478e-05
1.40478e-05
1.40478e-05
1.40478e-05
1.40478e-05
1.40478e-05
1.40478e-05
1.40478e-05
1.40478e-05
1.40478e-05
1.40478e-05
1.40478e-05
1.40478e-05
1.40478e-05
1.40478e-05
1.40478e-05
1.40478e-05
1.40478e-05
1.40478e-05
1.40478e-05
1.40478e-05
1.40478e-05
1.40478e-05
1.40478e-05
1.40478e-05
1.40478e-05
1.40478e-05
1.40478e-05
1.40478e-05
1.40478e-05
1.40478e-05
1.40478e-05
1.40478e-05
1.40478e-05
1.40478e-05
1.40478e-05
1.40478e-05
1.40478e-05
1.40478e-05
1.40478e-05
1.40478e-05
1.40478e-05
1.40478e-05
1.40478e-05
1.40478e-05
1.40478e-05
1.40478e-05
1.40478e-05
1.40478e-05
1.40478e-05
1.40478e-05
1.40478e-05
1.40478e-05
1.40478e-05
1.40478e-05
1.40478e-05
1.40478e-05
1.40478e-05
1.40478e-05
1.40478e-05
1.40478e-05
1.40478e-05
1.40478e-05
1.40478e-05
1.40478e-05
1.40478e-05
1.40478e-05
1.40478e-05
1.40478e-05
1.40478e-05
1.40478e-05
1.40478e-05
1.40478e-05
1.40478e-05
1.40478e-05
1.40478e-05
1.40478e-05
1.40478e-05
1.40478e-05
1.40478e-05
1.40478e-05
1.40478e-05
1.40478e-05
1.40478e-05
1.40478e-05
1.40478e-05
1.40478e-05
1.40478e-05
1.40478e-05
1.40478e-05
1.40478e-05
1.40478e-05
1.40478e-05
1.40478e-05
1.40478e-05
1.40478e-05
1.40478e-05
1.40478e-05
1.40478e-05
1.40478e-05
1.40478e-05
1.40478e-05
1.40478e-05
1.40478e-05
1.40478e-05
1.40478e-05
1.40478e-05
1.40478e-05
1.40478e-05
1.40478e-05
1.40478e-05
1.40478e-05
1.40478e-05
1.40478e-05
1.40478e-05
1.40478e-05
1.40478e-05
1.40478e-05
1.40478e-05
1.40478e-05
1.40478e-05
1.40478e-05
1.40478e-05
1.40478e-05
1.40478e-05
1.40478e-05
1.40478e-05
1.40478e-05
1.40478e-05
1.40478e-05
1.40478e-05
1.40478e-05
1.40478e-05
1.40478e-05
1.40478e-05
1.40478e-05
1.40478e-05
1.40478e-05
1.40478e-05
1.40478e-05
1.40478e-05
1.40478e-05
1.40478e-05
1.40478e-05
1.40478e-05
1.40478e-05
1.40478e-05
1.40478e-05
1.40478e-05
1.40478e-05
1.40478e-05
1.40478e-05
1.40478e-05
1.40478e-05
1.40478e-05
1.40478e-05
1.40478e-05
1.40478e-05
1.40478e-05
1.40478e-05
1.40478e-05
1.40478e-05
1.40478e-05
1.40478e-05
1.40478e-05
1.40478e-05
1.40478e-05
1.40478e-05
1.40478e-05
1.40478e-05
1.40478e-05
1.40478e-05
1.40478e-05
1.40478e-05
1.40478e-05
1.40478e-05
1.40478e-05
1.40478e-05
1.40478e-05
1.40478e-05
1.40478e-05
1.40478e-05
1.40478e-05
1.40478e-05
1.40478e-05
1.40478e-05
1.40478e-05
1.40478e-05
1.40478e-05
1.40478e-05
1.40478e-05
1.40478e-05
1.40478e-05
1.40478e-05
1.40478e-05
1.40478e-05
1.40478e-05
1.40478e-05
1.40478e-05
1.40478e-05
1.40478e-05
1.40478e-05
1.40478e-05
1.40478e-05
1.40478e-05
1.40478e-05
1.40478e-05
1.40478e-05
1.40478e-05
1.40478e-05
1.40478e-05
1.40478e-05
1.40478e-05
1.40478e-05
1.40478e-05
1.40478e-05
1.40478e-05
1.40478e-05
1.40478e-05
1.40478e-05
1.40478e-05
1.40478e-05
1.40478e-05
1.40478e-05
1.40478e-05
1.40478e-05
1.40478e-05
1.40478e-05
1.40478e-05
1.40478e-05
1.40478e-05
1.40478e-05
1.40478e-05
1.40478e-05
1.40478e-05
1.40478e-05
1.40478e-05
1.40478e-05
1.40478e-05
1.40478e-05
1.40478e-05
1.40478e-05
1.40478e-05
1.40478e-05
1.40478e-05
1.40478e-05
1.40478e-05
1.40478e-05
1.40478e-05
1.40478e-05
1.40478e-05
1.40478e-05
1.40478e-05
1.40478e-05
1.40478e-05
1.40478e-05
1.40478e-05
1.40478e-05
1.40478e-05
1.40478e-05
1.40478e-05
1.40478e-05
1.40478e-05
1.40478e-05
1.40478e-05
1.40478e-05
1.40478e-05
1.40478e-05
1.40478e-05
1.40478e-05
1.40478e-05
1.40478e-05
1.40478e-05
1.40478e-05
1.40478e-05
1.40478e-05
1.40478e-05
1.40478e-05
1.40478e-05
1.40478e-05
1.40478e-05
1.40478e-05
1.40478e-05
1.40478e-05
1.40478e-05
1.40478e-05
1.40478e-05
1.40478e-05
1.40478e-05
1.40478e-05
1.40478e-05
1.40478e-05
1.40478e-05
1.40478e-05
1.40478e-05
1.40478e-05
1.40478e-05
1.40478e-05
1.40478e-05
1.40478e-05
1.40478e-05
1.40478e-05
1.40478e-05
1.40478e-05
1.40478e-05
1.40478e-05
1.40478e-05
1.40478e-05
1.40478e-05
1.40478e-05
1.40478e-05
1.40478e-05
1.40478e-05
1.40478e-05
1.40478e-05
1.40478e-05
1.40478e-05
1.40478e-05
1.40478e-05
1.40478e-05
1.40478e-05
1.40478e-05
1.40478e-05
1.40478e-05
1.40478e-05
1.40478e-05
1.40478e-05
1.40478e-05
1.40478e-05
1.40478e-05
1.40478e-05
1.40478e-05
1.40478e-05
1.40478e-05
1.40478e-05
1.40478e-05
1.40478e-05
1.40478e-05
1.40478e-05
1.40478e-05
1.40478e-05
1.40478e-05
1.40478e-05
1.40478e-05
1.40478e-05
1.40478e-05
1.40478e-05
1.40478e-05
1.40478e-05
1.40478e-05
1.40478e-05
1.40478e-05
1.40478e-05
1.40478e-05
1.40478e-05
1.40478e-05
1.40478e-05
1.40478e-05
1.40478e-05
1.40478e-05
1.40478e-05
1.40478e-05
1.40478e-05
1.40478e-05
1.40478e-05
1.40478e-05
1.40478e-05
1.40478e-05
1.40478e-05
1.40478e-05
1.40478e-05
1.40478e-05
1.40478e-05
1.40478e-05
1.40478e-05
1.40478e-05
1.40478e-05
1.40478e-05
1.40478e-05
1.40478e-05
1.40478e-05
1.40478e-05
1.40478e-05
1.40478e-05
1.40478e-05
1.40478e-05
1.40478e-05
1.40478e-05
1.40478e-05
1.40478e-05
1.40478e-05
1.40478e-05
1.40478e-05
1.40478e-05
1.40478e-05
1.40478e-05
1.40478e-05
1.40478e-05
1.40478e-05
1.40478e-05
1.40478e-05
1.40478e-05
1.40478e-05
1.40478e-05
1.40478e-05
1.40478e-05
1.40478e-05
1.40478e-05
1.40478e-05
1.40478e-05
1.40478e-05
1.40478e-05
1.40478e-05
1.40478e-05
1.40478e-05
1.40478e-05
1.40478e-05
1.40478e-05
1.40478e-05
1.40478e-05
1.40478e-05
1.40478e-05
1.40478e-05
1.40478e-05
1.40478e-05
1.40478e-05
1.40478e-05
1.40478e-05
1.40478e-05
1.40478e-05
1.40478e-05
1.40478e-05
1.40478e-05
1.40478e-05
1.40478e-05
1.40478e-05
1.40478e-05
1.40478e-05
1.40478e-05
1.40478e-05
1.40478e-05
1.40478e-05
1.40478e-05
1.40478e-05
1.40478e-05
1.40478e-05
1.40478e-05
1.40478e-05
1.40478e-05
1.40478e-05
1.40478e-05
1.40478e-05
1.40478e-05
1.40478e-05
1.40478e-05
1.40478e-05
1.40478e-05
1.40478e-05
1.40478e-05
1.40478e-05
1.40478e-05
1.40478e-05
1.40478e-05
1.40478e-05
1.40478e-05
1.40478e-05
1.40478e-05
1.40478e-05
1.40478e-05
1.40478e-05
1.40478e-05
1.40478e-05
1.40478e-05
1.40478e-05
1.40478e-05
1.40478e-05
1.40478e-05
1.40478e-05
1.40478e-05
1.40478e-05
1.40478e-05
1.40478e-05
1.40478e-05
1.40478e-05
1.40478e-05
1.40478e-05
1.40478e-05
1.40478e-05
1.40478e-05
1.40478e-05
1.40478e-05
1.40478e-05
1.40478e-05
1.40478e-05
1.40478e-05
1.40478e-05
1.40478e-05
1.40478e-05
1.40478e-05
1.40478e-05
1.40478e-05
1.40478e-05
1.40478e-05
1.40478e-05
1.40478e-05
1.40478e-05
1.40478e-05
1.40478e-05
1.40478e-05
1.40478e-05
1.40478e-05
1.40478e-05
1.40478e-05
1.40478e-05
1.40478e-05
1.40478e-05
1.40478e-05
1.40478e-05
1.40478e-05
1.40478e-05
1.40478e-05
1.40478e-05
1.40478e-05
1.40478e-05
1.40478e-05
1.40478e-05
1.40478e-05
1.40478e-05
1.40478e-05
1.40478e-05
1.40478e-05
1.40478e-05
1.40478e-05
1.40478e-05
1.40478e-05
1.40478e-05
1.40478e-05
1.40478e-05
1.40478e-05
1.40478e-05
1.40478e-05
1.40478e-05
1.40478e-05
1.40478e-05
1.40478e-05
1.40478e-05
1.40478e-05
1.40478e-05
1.40478e-05
1.40478e-05
1.40478e-05
1.40478e-05
1.40478e-05
1.40478e-05
1.40478e-05
1.40478e-05
1.40478e-05
1.40478e-05
1.40478e-05
1.40478e-05
1.40478e-05
1.40478e-05
1.40478e-05
1.40478e-05
1.40478e-05
1.40478e-05
1.40478e-05
1.40478e-05
1.40478e-05
1.40478e-05
1.40478e-05
1.40478e-05
1.40478e-05
1.40478e-05
1.40478e-05
1.40478e-05
1.40478e-05
1.40478e-05
1.40478e-05
1.40478e-05
1.40478e-05
1.40478e-05
1.40478e-05
1.40478e-05
1.40478e-05
1.40478e-05
1.40478e-05
1.40478e-05
1.40478e-05
1.40478e-05
1.40478e-05
1.40478e-05
1.40478e-05
1.40478e-05
1.40478e-05
1.40478e-05
1.40478e-05
1.40478e-05
1.40478e-05
1.40478e-05
1.40478e-05
1.40478e-05
1.40478e-05
1.40478e-05
1.40478e-05
1.40478e-05
1.40478e-05
1.40478e-05
1.40478e-05
1.40478e-05
1.40478e-05
1.40478e-05
1.40478e-05
1.40478e-05
1.40478e-05
1.40478e-05
1.40478e-05
1.40478e-05
1.40478e-05
1.40478e-05
1.40478e-05
1.40478e-05
1.40478e-05
1.40478e-05
1.40478e-05
1.40478e-05
1.40478e-05
1.40478e-05
1.40478e-05
1.40478e-05
1.40478e-05
1.40478e-05
1.40478e-05
1.40478e-05
1.40478e-05
1.40478e-05
1.40478e-05
1.40478e-05
1.40478e-05
1.40478e-05
1.40478e-05
1.40478e-05
1.40478e-05
1.40478e-05
1.40478e-05
1.40478e-05
1.40478e-05
1.40478e-05
1.40478e-05
1.40478e-05
1.40478e-05
1.40478e-05
1.40478e-05
1.40478e-05
1.40478e-05
1.40478e-05
1.40478e-05
1.40478e-05
1.40478e-05
1.40478e-05
1.40478e-05
1.40478e-05
1.40478e-05
1.40478e-05
1.40478e-05
1.40478e-05
1.40478e-05
1.40478e-05
1.40478e-05
1.40478e-05
1.40478e-05
1.40478e-05
1.40478e-05
1.40478e-05
1.40478e-05
1.40478e-05
1.40478e-05
1.40478e-05
1.40478e-05
1.40478e-05
1.40478e-05
1.40478e-05
1.40478e-05
1.40478e-05
1.40478e-05
1.40478e-05
1.40478e-05
1.40478e-05
1.40478e-05
1.40478e-05
1.40478e-05
1.40478e-05
1.40478e-05
1.40478e-05
1.40478e-05
1.40478e-05
1.40478e-05
1.40478e-05
1.40478e-05
1.40478e-05
1.40478e-05
1.40478e-05
1.40478e-05
1.40478e-05
1.40478e-05
1.40478e-05
1.40478e-05
1.40478e-05
1.40478e-05
1.40478e-05
1.40478e-05
1.40478e-05
1.40478e-05
1.40478e-05
1.40478e-05
1.40478e-05
1.40478e-05
1.40478e-05
1.40478e-05
1.40478e-05
1.40478e-05
1.40479e-05
1.40478e-05
1.40478e-05
1.40478e-05
1.40478e-05
1.40478e-05
1.40478e-05
1.40478e-05
1.40478e-05
1.40478e-05
1.40478e-05
1.40478e-05
1.40478e-05
1.40478e-05
1.40478e-05
1.40478e-05
1.40478e-05
1.40478e-05
1.40478e-05
1.40478e-05
1.40478e-05
1.40478e-05
1.40478e-05
1.40478e-05
1.40478e-05
1.40478e-05
1.40478e-05
1.40478e-05
1.40478e-05
1.40478e-05
1.40478e-05
1.40478e-05
1.40478e-05
1.40478e-05
1.40478e-05
1.40478e-05
1.40478e-05
1.40478e-05
1.40478e-05
1.40478e-05
1.40478e-05
1.40478e-05
1.40478e-05
1.40478e-05
1.40478e-05
1.40478e-05
1.40479e-05
1.40479e-05
1.4048e-05
1.40481e-05
1.40483e-05
1.40478e-05
1.40478e-05
1.40478e-05
1.40478e-05
1.40478e-05
1.40478e-05
1.40478e-05
1.40478e-05
1.40478e-05
1.40478e-05
1.40478e-05
1.40478e-05
1.40478e-05
1.40478e-05
1.40478e-05
1.40478e-05
1.40478e-05
1.40478e-05
1.40478e-05
1.40478e-05
1.40478e-05
1.40478e-05
1.40478e-05
1.40478e-05
1.40478e-05
1.40478e-05
1.40478e-05
1.40478e-05
1.40478e-05
1.40478e-05
1.40478e-05
1.40478e-05
1.40478e-05
1.40478e-05
1.40478e-05
1.40478e-05
1.40478e-05
1.40478e-05
1.40478e-05
1.40478e-05
1.40478e-05
1.40479e-05
1.40479e-05
1.4048e-05
1.40481e-05
1.40483e-05
1.40485e-05
1.4049e-05
1.40497e-05
1.40509e-05
1.40478e-05
1.40478e-05
1.40478e-05
1.40478e-05
1.40478e-05
1.40478e-05
1.40478e-05
1.40478e-05
1.40478e-05
1.40478e-05
1.40478e-05
1.40478e-05
1.40478e-05
1.40478e-05
1.40478e-05
1.40478e-05
1.40478e-05
1.40478e-05
1.40478e-05
1.40478e-05
1.40478e-05
1.40478e-05
1.40478e-05
1.40478e-05
1.40478e-05
1.40478e-05
1.40478e-05
1.40478e-05
1.40478e-05
1.40478e-05
1.40478e-05
1.40478e-05
1.40478e-05
1.40478e-05
1.40478e-05
1.40478e-05
1.40478e-05
1.40479e-05
1.40479e-05
1.4048e-05
1.40481e-05
1.40483e-05
1.40486e-05
1.40491e-05
1.40498e-05
1.4051e-05
1.40527e-05
1.40555e-05
1.40599e-05
1.40677e-05
1.40478e-05
1.40478e-05
1.40478e-05
1.40478e-05
1.40478e-05
1.40478e-05
1.40478e-05
1.40478e-05
1.40478e-05
1.40478e-05
1.40478e-05
1.40478e-05
1.40478e-05
1.40478e-05
1.40478e-05
1.40478e-05
1.40478e-05
1.40478e-05
1.40478e-05
1.40478e-05
1.40478e-05
1.40478e-05
1.40478e-05
1.40478e-05
1.40478e-05
1.40478e-05
1.40478e-05
1.40478e-05
1.40478e-05
1.40478e-05
1.40478e-05
1.40478e-05
1.40479e-05
1.40479e-05
1.4048e-05
1.4048e-05
1.40482e-05
1.40484e-05
1.40487e-05
1.40492e-05
1.40501e-05
1.40513e-05
1.40532e-05
1.40562e-05
1.40609e-05
1.40681e-05
1.40793e-05
1.40968e-05
1.41244e-05
1.41719e-05
1.40478e-05
1.40478e-05
1.40478e-05
1.40478e-05
1.40478e-05
1.40478e-05
1.40478e-05
1.40478e-05
1.40478e-05
1.40478e-05
1.40478e-05
1.40478e-05
1.40478e-05
1.40478e-05
1.40478e-05
1.40478e-05
1.40478e-05
1.40478e-05
1.40478e-05
1.40478e-05
1.40478e-05
1.40478e-05
1.40478e-05
1.40478e-05
1.40478e-05
1.40478e-05
1.40478e-05
1.40478e-05
1.40479e-05
1.40479e-05
1.4048e-05
1.40481e-05
1.40482e-05
1.40485e-05
1.40488e-05
1.40494e-05
1.40503e-05
1.40516e-05
1.40537e-05
1.4057e-05
1.4062e-05
1.40698e-05
1.40819e-05
1.41005e-05
1.41293e-05
1.41738e-05
1.42424e-05
1.43482e-05
1.45124e-05
1.47813e-05
1.40478e-05
1.40478e-05
1.40478e-05
1.40478e-05
1.40478e-05
1.40478e-05
1.40478e-05
1.40478e-05
1.40478e-05
1.40478e-05
1.40478e-05
1.40478e-05
1.40478e-05
1.40478e-05
1.40478e-05
1.40478e-05
1.40478e-05
1.40478e-05
1.40478e-05
1.40478e-05
1.40478e-05
1.40478e-05
1.40478e-05
1.40478e-05
1.40479e-05
1.40479e-05
1.4048e-05
1.40481e-05
1.40483e-05
1.40485e-05
1.40489e-05
1.40495e-05
1.40505e-05
1.4052e-05
1.40542e-05
1.40578e-05
1.40632e-05
1.40716e-05
1.40845e-05
1.41044e-05
1.41351e-05
1.41824e-05
1.42549e-05
1.43657e-05
1.45341e-05
1.47887e-05
1.51698e-05
1.57319e-05
1.65495e-05
1.77447e-05
1.40478e-05
1.40478e-05
1.40478e-05
1.40478e-05
1.40478e-05
1.40478e-05
1.40478e-05
1.40478e-05
1.40478e-05
1.40478e-05
1.40478e-05
1.40478e-05
1.40478e-05
1.40478e-05
1.40478e-05
1.40478e-05
1.40478e-05
1.40478e-05
1.40478e-05
1.40478e-05
1.40479e-05
1.40479e-05
1.4048e-05
1.40481e-05
1.40483e-05
1.40486e-05
1.4049e-05
1.40497e-05
1.40507e-05
1.40523e-05
1.40547e-05
1.40585e-05
1.40643e-05
1.40732e-05
1.40869e-05
1.4108e-05
1.41405e-05
1.41905e-05
1.42669e-05
1.43833e-05
1.456e-05
1.48258e-05
1.52209e-05
1.57975e-05
1.66211e-05
1.77671e-05
1.93118e-05
2.13168e-05
2.38307e-05
2.68986e-05
1.40478e-05
1.40478e-05
1.40478e-05
1.40478e-05
1.40478e-05
1.40478e-05
1.40478e-05
1.40478e-05
1.40478e-05
1.40478e-05
1.40478e-05
1.40478e-05
1.40478e-05
1.40478e-05
1.40478e-05
1.40479e-05
1.40479e-05
1.40479e-05
1.4048e-05
1.40482e-05
1.40483e-05
1.40487e-05
1.40491e-05
1.40498e-05
1.40509e-05
1.40526e-05
1.40552e-05
1.40591e-05
1.40653e-05
1.40746e-05
1.40891e-05
1.41113e-05
1.41453e-05
1.41975e-05
1.42772e-05
1.43986e-05
1.45823e-05
1.4858e-05
1.52664e-05
1.58604e-05
1.67057e-05
1.78754e-05
1.94377e-05
2.14457e-05
2.39293e-05
2.68939e-05
3.03175e-05
3.41499e-05
3.83371e-05
4.27927e-05
1.40478e-05
1.40478e-05
1.40478e-05
1.40478e-05
1.40478e-05
1.40478e-05
1.40478e-05
1.40478e-05
1.40478e-05
1.40478e-05
1.40478e-05
1.40479e-05
1.40479e-05
1.4048e-05
1.4048e-05
1.40482e-05
1.40484e-05
1.40487e-05
1.40492e-05
1.405e-05
1.40511e-05
1.40529e-05
1.40556e-05
1.40598e-05
1.40661e-05
1.4076e-05
1.4091e-05
1.41141e-05
1.41494e-05
1.42035e-05
1.42859e-05
1.44111e-05
1.46e-05
1.48828e-05
1.53007e-05
1.59075e-05
1.67687e-05
1.7956e-05
1.95369e-05
2.15618e-05
2.40606e-05
2.70382e-05
3.04615e-05
3.42627e-05
3.83614e-05
4.26908e-05
4.71511e-05
5.16273e-05
5.6097e-05
6.05726e-05
1.40478e-05
1.40478e-05
1.40478e-05
1.40478e-05
1.40478e-05
1.40478e-05
1.40478e-05
1.40479e-05
1.40479e-05
1.4048e-05
1.40481e-05
1.40482e-05
1.40484e-05
1.40488e-05
1.40493e-05
1.40501e-05
1.40513e-05
1.40531e-05
1.4056e-05
1.40603e-05
1.40669e-05
1.40771e-05
1.40926e-05
1.41164e-05
1.41528e-05
1.42083e-05
1.42928e-05
1.44207e-05
1.46135e-05
1.49012e-05
1.53252e-05
1.59392e-05
1.6808e-05
1.80028e-05
1.9591e-05
2.16247e-05
2.41318e-05
2.71119e-05
3.05305e-05
3.43184e-05
3.84015e-05
4.26858e-05
4.70601e-05
5.14662e-05
5.58805e-05
6.03235e-05
6.47391e-05
6.90681e-05
7.32343e-05
7.71956e-05
1.40478e-05
1.40478e-05
1.40478e-05
1.40479e-05
1.40479e-05
1.4048e-05
1.40481e-05
1.40482e-05
1.40485e-05
1.40488e-05
1.40494e-05
1.40502e-05
1.40514e-05
1.40534e-05
1.40563e-05
1.40608e-05
1.40676e-05
1.4078e-05
1.40939e-05
1.41183e-05
1.41554e-05
1.42119e-05
1.42976e-05
1.44273e-05
1.46223e-05
1.49126e-05
1.53395e-05
1.59562e-05
1.6827e-05
1.80217e-05
1.9607e-05
2.16345e-05
2.41304e-05
2.709e-05
3.04805e-05
3.42439e-05
3.83031e-05
4.2566e-05
4.69342e-05
5.13486e-05
5.58001e-05
6.02949e-05
6.47602e-05
6.9069e-05
7.31763e-05
7.70556e-05
8.06894e-05
8.40732e-05
8.71921e-05
9.00377e-05
1.40479e-05
1.4048e-05
1.40481e-05
1.40483e-05
1.40485e-05
1.40489e-05
1.40494e-05
1.40503e-05
1.40516e-05
1.40536e-05
1.40566e-05
1.40612e-05
1.40681e-05
1.40788e-05
1.4095e-05
1.41196e-05
1.41572e-05
1.42142e-05
1.43006e-05
1.44309e-05
1.46263e-05
1.49168e-05
1.53432e-05
1.5958e-05
1.68247e-05
1.80119e-05
1.95855e-05
2.15963e-05
2.40705e-05
2.70036e-05
3.03617e-05
3.40883e-05
3.81117e-05
4.23549e-05
4.67357e-05
5.11832e-05
5.56664e-05
6.0162e-05
6.46034e-05
6.8905e-05
7.30146e-05
7.68837e-05
8.0527e-05
8.39676e-05
8.71708e-05
9.00804e-05
9.26452e-05
9.48462e-05
9.66832e-05
9.82147e-05
1.40486e-05
1.40489e-05
1.40495e-05
1.40504e-05
1.40518e-05
1.40538e-05
1.40569e-05
1.40616e-05
1.40687e-05
1.40795e-05
1.40958e-05
1.41207e-05
1.41584e-05
1.42156e-05
1.43019e-05
1.44319e-05
1.46263e-05
1.49148e-05
1.53373e-05
1.59456e-05
1.6802e-05
1.79742e-05
1.95272e-05
2.15115e-05
2.39538e-05
2.6851e-05
3.01708e-05
3.38579e-05
3.78433e-05
4.20525e-05
4.64131e-05
5.08571e-05
5.53277e-05
5.97808e-05
6.41795e-05
6.84771e-05
7.26157e-05
7.65476e-05
8.02718e-05
8.38004e-05
8.71057e-05
9.01351e-05
9.28355e-05
9.5174e-05
9.71424e-05
9.87527e-05
0.000100042
0.000101069
0.000101874
0.000102523
1.4052e-05
1.40541e-05
1.40572e-05
1.4062e-05
1.40692e-05
1.40801e-05
1.40967e-05
1.41217e-05
1.41594e-05
1.42164e-05
1.43023e-05
1.44312e-05
1.46235e-05
1.4908e-05
1.53239e-05
1.59218e-05
1.67626e-05
1.79128e-05
1.94366e-05
2.13848e-05
2.3785e-05
2.66361e-05
2.9908e-05
3.35481e-05
3.74894e-05
4.16596e-05
4.59876e-05
5.04083e-05
5.48638e-05
5.9305e-05
6.36909e-05
6.79864e-05
7.21529e-05
7.61545e-05
7.9964e-05
8.35677e-05
8.69482e-05
9.00687e-05
9.28853e-05
9.53618e-05
9.74699e-05
9.92162e-05
0.000100643
0.000101794
0.000102704
0.000103407
0.000103941
0.000104351
0.000104662
0.00010491
1.40699e-05
1.4081e-05
1.40977e-05
1.41228e-05
1.41605e-05
1.42173e-05
1.43025e-05
1.443e-05
1.46195e-05
1.4899e-05
1.53066e-05
1.58913e-05
1.67124e-05
1.78352e-05
1.93228e-05
2.12264e-05
2.35749e-05
2.63697e-05
2.95837e-05
3.31673e-05
3.70561e-05
4.11799e-05
4.54693e-05
4.98601e-05
5.42951e-05
5.87254e-05
6.31094e-05
6.74117e-05
7.15991e-05
7.56386e-05
7.95031e-05
8.31698e-05
8.66183e-05
8.98217e-05
9.27455e-05
9.53541e-05
9.7618e-05
9.95311e-05
0.000101117
0.000102407
0.00010343
0.000104226
0.000104841
0.000105317
0.00010568
0.000105952
0.000106154
0.000106301
0.000106406
0.000106487
1.41243e-05
1.41623e-05
1.4219e-05
1.43036e-05
1.44296e-05
1.46163e-05
1.48906e-05
1.52892e-05
1.58596e-05
1.66591e-05
1.77511e-05
1.9198e-05
2.10508e-05
2.33401e-05
2.60697e-05
2.92163e-05
3.27337e-05
3.65605e-05
4.06289e-05
4.48714e-05
4.92248e-05
5.36331e-05
5.80471e-05
6.24252e-05
6.67318e-05
7.09363e-05
7.50068e-05
7.89143e-05
8.26356e-05
8.61501e-05
8.94358e-05
9.24635e-05
9.52001e-05
9.76157e-05
9.96941e-05
0.000101439
0.000102873
0.000104024
0.000104933
0.000105645
0.000106197
0.000106619
0.000106939
0.000107183
0.000107366
0.000107498
0.000107589
0.000107652
0.000107694
0.000107718
0.000107716
1.44317e-05
1.46161e-05
1.48859e-05
1.52762e-05
1.58327e-05
1.66107e-05
1.76716e-05
1.90761e-05
2.08752e-05
2.31006e-05
2.5759e-05
2.88305e-05
3.22728e-05
3.60283e-05
4.00318e-05
4.42178e-05
4.85246e-05
5.28972e-05
5.7287e-05
6.16522e-05
6.59571e-05
7.01711e-05
7.42661e-05
7.82121e-05
8.19836e-05
8.55597e-05
8.8921e-05
9.20444e-05
9.49001e-05
9.74573e-05
9.96931e-05
0.0001016
0.000103188
0.000104482
0.000105518
0.000106335
0.000106973
0.000107466
0.000107845
0.000108137
0.00010836
0.000108525
0.000108643
0.000108728
0.00010879
0.000108834
0.000108849
0.000108835
0.000108792
0.000108729
0.000108648
1.52722e-05
1.58172e-05
1.65761e-05
1.76081e-05
1.8972e-05
2.0718e-05
2.28786e-05
2.54629e-05
2.84544e-05
3.18152e-05
3.54912e-05
3.94207e-05
4.35403e-05
4.77905e-05
5.2117e-05
5.64725e-05
6.08153e-05
6.51096e-05
6.93248e-05
7.34339e-05
7.741e-05
8.12255e-05
8.48578e-05
8.82878e-05
9.14964e-05
9.44594e-05
9.71475e-05
9.95335e-05
0.000101601
0.00010335
0.000104796
0.00010597
0.000106905
0.000107643
0.000108219
0.000108665
0.00010901
0.000109277
0.00010948
0.000109632
0.000109744
0.000109827
0.000109889
0.000109929
0.000109941
0.000109924
0.000109881
0.000109816
0.000109731
0.000109632
0.00010952
0.000109397
1.89007e-05
2.0598e-05
2.26969e-05
2.52081e-05
2.81185e-05
3.13939e-05
3.49846e-05
3.88322e-05
4.28765e-05
4.70596e-05
5.13293e-05
5.5639e-05
5.99482e-05
6.42211e-05
6.8427e-05
7.2539e-05
7.65328e-05
8.03823e-05
8.40624e-05
8.75529e-05
9.08362e-05
9.38928e-05
9.66978e-05
9.92235e-05
0.000101447
0.000103358
0.000104964
0.000106284
0.000107351
0.0001082
0.000108869
0.000109392
0.000109799
0.000110117
0.000110363
0.000110553
0.000110694
0.0001108
0.000110883
0.000110946
0.000110986
0.000110993
0.000110974
0.000110933
0.000110872
0.000110791
0.000110695
0.000110586
0.000110467
0.000110338
0.000110198
0.000110046
2.78537e-05
3.10435e-05
3.45457e-05
3.83059e-05
4.2267e-05
4.63738e-05
5.05758e-05
5.4828e-05
5.9091e-05
6.33301e-05
6.75143e-05
7.1617e-05
7.56145e-05
7.94842e-05
8.32006e-05
8.67413e-05
9.00881e-05
9.3224e-05
9.61294e-05
9.87791e-05
0.000101148
0.000103218
0.000104985
0.00010646
0.000107668
0.000108641
0.000109414
0.000110024
0.000110502
0.000110877
0.00011117
0.000111401
0.000111577
0.000111711
0.000111817
0.000111901
0.000111964
0.000112001
0.000112008
0.000111987
0.00011195
0.000111893
0.000111817
0.000111727
0.000111625
0.000111512
0.000111389
0.000111253
0.000111105
0.000110945
0.000110774
0.00011059
4.17547e-05
4.57771e-05
4.99013e-05
5.40845e-05
5.82887e-05
6.24803e-05
6.66294e-05
7.07091e-05
7.46963e-05
7.85695e-05
8.23069e-05
8.58845e-05
8.92822e-05
9.24833e-05
9.54716e-05
9.82266e-05
0.000100724
0.000102941
0.000104866
0.000106499
0.000107856
0.000108964
0.000109853
0.000110561
0.000111119
0.000111559
0.000111905
0.000112178
0.000112394
0.000112559
0.000112689
0.000112794
0.00011288
0.000112942
0.000112979
0.000112986
0.000112968
0.000112934
0.00011288
0.00011281
0.000112726
0.000112632
0.000112527
0.00011241
0.00011228
0.000112139
0.000111985
0.000111819
0.00011164
0.000111447
0.000111242
0.000111024
5.75885e-05
6.1719e-05
6.58185e-05
6.98607e-05
7.38225e-05
7.76833e-05
8.14234e-05
8.50213e-05
8.84549e-05
9.17062e-05
9.47599e-05
9.75997e-05
0.000100205
0.000102553
0.000104625
0.000106412
0.000107921
0.00010917
0.000110186
0.000111002
0.00011165
0.000112164
0.000112569
0.000112891
0.000113146
0.000113349
0.000113505
0.000113631
0.000113737
0.000113823
0.000113885
0.000113919
0.000113927
0.000113915
0.000113886
0.000113836
0.000113772
0.000113696
0.000113609
0.000113511
0.0001134
0.000113278
0.000113143
0.000112996
0.000112837
0.000112664
0.000112478
0.000112279
0.000112066
0.000111839
0.000111599
0.000111344
7.30411e-05
7.6873e-05
8.05975e-05
8.41963e-05
8.76481e-05
9.09329e-05
9.40344e-05
9.69386e-05
9.96291e-05
0.000102085
0.000104286
0.000106217
0.000107874
0.000109267
0.000110416
0.000111349
0.000112098
0.000112694
0.000113167
0.000113542
0.000113841
0.00011408
0.00011427
0.000114419
0.000114542
0.00011465
0.000114733
0.000114794
0.000114829
0.000114836
0.00011483
0.000114805
0.000114761
0.000114704
0.000114636
0.000114557
0.000114465
0.000114361
0.000114246
0.000114119
0.000113979
0.000113826
0.000113661
0.000113482
0.00011329
0.000113084
0.000112864
0.000112631
0.000112383
0.00011212
0.000111844
0.000111552
8.69078e-05
9.0207e-05
9.33382e-05
9.62868e-05
9.90394e-05
0.000101579
0.000103887
0.000105943
0.000107737
0.00010927
0.000110554
0.00011161
0.000112467
0.000113154
0.000113701
0.000114137
0.000114484
0.000114763
0.000114987
0.000115164
0.000115307
0.000115428
0.000115533
0.000115616
0.000115672
0.00011571
0.000115721
0.000115716
0.000115696
0.000115657
0.000115607
0.000115547
0.000115475
0.00011539
0.000115294
0.000115186
0.000115066
0.000114934
0.000114788
0.00011463
0.000114459
0.000114274
0.000114076
0.000113864
0.000113638
0.000113398
0.000113143
0.000112873
0.00011259
0.00011229
0.000111977
0.000111646
0.000101081
0.000103469
0.000105627
0.000107541
0.000109202
0.000110616
0.000111796
0.000112765
0.000113549
0.000114179
0.000114682
0.000115082
0.000115403
0.000115662
0.000115871
0.000116036
0.000116173
0.000116291
0.000116394
0.000116474
0.000116528
0.000116564
0.00011658
0.000116577
0.000116561
0.000116529
0.000116485
0.000116431
0.000116365
0.000116288
0.000116199
0.000116099
0.000115987
0.000115862
0.000115724
0.000115573
0.00011541
0.000115233
0.000115043
0.000114838
0.00011462
0.000114388
0.000114141
0.00011388
0.000113605
0.000113314
0.000113008
0.000112687
0.000112354
0.000112008
0.000111644
0.000109095
0.000110627
0.000111925
0.000113006
0.000113892
0.000114608
0.000115183
0.000115643
0.000116011
0.000116307
0.000116546
0.000116739
0.000116893
0.000117023
0.000117138
0.000117236
0.000117313
0.000117365
0.0001174
0.000117419
0.000117417
0.000117403
0.000117377
0.000117339
0.000117291
0.000117232
0.000117161
0.000117079
0.000116986
0.000116881