/*--------------------------------*- C++ -*----------------------------------*\
| =========                 |                                                 |
| \\      /  F ield         | OpenFOAM: The Open Source CFD Toolbox           |
|  \\    /   O peration     | Version:  v1706                                 |
|   \\  /    A nd           | Web:      www.OpenFOAM.com                      |
|    \\/     M anipulation  |                                                 |
\*---------------------------------------------------------------------------*/
FoamFile
{
    version     2.0;
    format      ascii;
    class       volScalarField;
    location    "7e-06";
    object      kappave;
}
// * * * * * * * * * * * * * * * * * * * * * * * * * * * * * * * * * * * * * //

dimensions      [1 1 -3 -1 0 0 0];


internalField   nonuniform List<scalar> 
30038
(
1.46038e-10
1.46038e-10
1.46038e-10
1.46038e-10
1.46038e-10
1.46038e-10
1.46038e-10
1.46038e-10
1.46038e-10
1.46038e-10
1.46038e-10
1.46038e-10
1.46038e-10
1.46038e-10
1.46038e-10
1.46038e-10
1.46038e-10
1.46038e-10
1.46038e-10
1.46038e-10
1.46038e-10
1.46038e-10
1.46038e-10
1.46038e-10
1.46038e-10
1.46038e-10
1.46038e-10
1.46038e-10
1.46038e-10
1.46038e-10
1.46038e-10
1.46038e-10
1.46038e-10
1.46038e-10
1.46038e-10
1.46038e-10
1.46038e-10
1.46038e-10
1.46038e-10
1.46038e-10
1.46038e-10
1.46038e-10
1.46038e-10
1.46038e-10
1.46038e-10
1.46038e-10
1.46038e-10
1.46038e-10
1.46038e-10
1.46038e-10
1.46038e-10
1.46038e-10
1.46038e-10
1.46038e-10
1.46038e-10
1.46038e-10
1.46038e-10
1.46038e-10
1.46038e-10
1.46038e-10
1.46038e-10
1.46038e-10
1.46038e-10
1.46038e-10
1.46038e-10
1.46038e-10
1.46038e-10
1.46038e-10
1.46038e-10
1.46038e-10
1.46038e-10
1.46038e-10
1.46038e-10
1.46038e-10
1.46038e-10
1.46038e-10
1.46038e-10
1.46038e-10
1.46038e-10
1.46038e-10
1.46038e-10
1.46038e-10
1.46038e-10
1.46038e-10
1.46038e-10
1.46038e-10
1.46038e-10
1.46038e-10
1.46038e-10
1.46038e-10
1.46038e-10
1.46038e-10
1.46038e-10
1.46038e-10
1.46038e-10
1.46038e-10
1.46038e-10
1.46038e-10
1.46038e-10
1.46038e-10
1.46038e-10
1.46038e-10
1.46038e-10
1.46038e-10
1.46038e-10
1.46038e-10
1.46038e-10
1.46038e-10
1.46038e-10
1.46038e-10
1.46038e-10
1.46038e-10
1.46038e-10
1.46038e-10
1.46038e-10
1.46038e-10
1.46038e-10
1.46038e-10
1.46038e-10
1.46038e-10
1.46038e-10
1.46038e-10
1.46038e-10
1.46038e-10
1.46038e-10
1.46038e-10
1.46038e-10
1.46038e-10
1.46038e-10
1.46038e-10
1.46038e-10
1.46038e-10
1.46038e-10
1.46038e-10
1.46038e-10
1.46038e-10
1.46038e-10
1.46038e-10
1.46038e-10
1.46038e-10
1.46038e-10
1.46038e-10
1.46038e-10
1.46038e-10
1.46038e-10
1.46038e-10
1.46038e-10
1.46038e-10
1.46038e-10
1.46038e-10
1.46038e-10
1.46038e-10
1.46038e-10
1.46038e-10
1.46038e-10
1.46038e-10
1.46038e-10
1.46038e-10
1.46038e-10
1.46038e-10
1.46038e-10
1.46038e-10
1.46038e-10
1.46038e-10
1.46038e-10
1.46038e-10
1.46038e-10
1.46038e-10
1.46038e-10
1.46038e-10
1.46038e-10
1.46038e-10
1.46038e-10
1.46038e-10
1.46038e-10
1.46038e-10
1.46038e-10
1.46038e-10
1.46038e-10
1.46038e-10
1.46038e-10
1.46038e-10
1.46038e-10
1.46038e-10
1.46038e-10
1.46038e-10
1.46038e-10
1.46038e-10
1.46038e-10
1.46038e-10
1.46038e-10
1.46038e-10
1.46038e-10
1.46038e-10
1.46038e-10
1.46038e-10
1.46038e-10
1.46038e-10
1.46038e-10
1.46038e-10
1.46038e-10
1.46038e-10
1.46038e-10
1.46038e-10
1.46038e-10
1.46038e-10
1.46038e-10
1.46038e-10
1.46038e-10
1.46038e-10
1.46038e-10
1.46038e-10
1.46038e-10
1.46038e-10
1.46038e-10
1.46038e-10
1.46038e-10
1.46038e-10
1.46038e-10
1.46038e-10
1.46038e-10
1.46038e-10
1.46038e-10
1.46038e-10
1.46038e-10
1.46038e-10
1.46038e-10
1.46038e-10
1.46038e-10
1.46038e-10
1.46038e-10
1.46038e-10
1.46038e-10
1.46038e-10
1.46038e-10
1.46038e-10
1.46038e-10
1.46038e-10
1.46038e-10
1.46038e-10
1.46038e-10
1.46038e-10
1.46038e-10
1.46038e-10
1.46038e-10
1.46038e-10
1.46038e-10
1.46038e-10
1.46038e-10
1.46038e-10
1.46038e-10
1.46038e-10
1.46038e-10
1.46038e-10
1.46038e-10
1.46038e-10
1.46038e-10
1.46038e-10
1.46038e-10
1.46038e-10
1.46038e-10
1.46038e-10
1.46038e-10
1.46038e-10
1.46038e-10
1.46038e-10
1.46038e-10
1.46038e-10
1.46038e-10
1.46038e-10
1.46038e-10
1.46038e-10
1.46038e-10
1.46038e-10
1.46038e-10
1.46038e-10
1.46038e-10
1.46038e-10
1.46038e-10
1.46038e-10
1.46038e-10
1.46038e-10
1.46038e-10
1.46038e-10
1.46038e-10
1.46038e-10
1.46038e-10
1.46038e-10
1.46038e-10
1.46038e-10
1.46038e-10
1.46038e-10
1.46038e-10
1.46038e-10
1.46038e-10
1.46038e-10
1.46038e-10
1.46038e-10
1.46038e-10
1.46038e-10
1.46038e-10
1.46038e-10
1.46038e-10
1.46038e-10
1.46038e-10
1.46038e-10
1.46038e-10
1.46038e-10
1.46038e-10
1.46038e-10
1.46038e-10
1.46038e-10
1.46038e-10
1.46038e-10
1.46038e-10
1.46038e-10
1.46038e-10
1.46038e-10
1.46038e-10
1.46038e-10
1.46038e-10
1.46038e-10
1.46038e-10
1.46038e-10
1.46038e-10
1.46038e-10
1.46038e-10
1.46038e-10
1.46038e-10
1.46038e-10
1.46038e-10
1.46038e-10
1.46038e-10
1.46038e-10
1.46038e-10
1.46038e-10
1.46038e-10
1.46038e-10
1.46038e-10
1.46038e-10
1.46038e-10
1.46038e-10
1.46038e-10
1.46038e-10
1.46038e-10
1.46038e-10
1.46038e-10
1.46038e-10
1.46038e-10
1.46038e-10
1.46038e-10
1.46038e-10
1.46038e-10
1.46038e-10
1.46038e-10
1.46038e-10
1.46038e-10
1.46038e-10
1.46038e-10
1.46038e-10
1.46038e-10
1.46038e-10
1.46038e-10
1.46038e-10
1.46038e-10
1.46038e-10
1.46038e-10
1.46038e-10
1.46038e-10
1.46038e-10
1.46038e-10
1.46038e-10
1.46038e-10
1.46038e-10
1.46038e-10
1.46038e-10
1.46038e-10
1.46038e-10
1.46038e-10
1.46038e-10
1.46038e-10
1.46038e-10
1.46038e-10
1.46038e-10
1.46038e-10
1.46038e-10
1.46038e-10
1.46038e-10
1.46038e-10
1.46038e-10
1.46038e-10
1.46038e-10
1.46038e-10
1.46038e-10
1.46038e-10
1.46038e-10
1.46038e-10
1.46038e-10
1.46038e-10
1.46038e-10
1.46038e-10
1.46038e-10
1.46038e-10
1.46038e-10
1.46038e-10
1.46038e-10
1.46038e-10
1.46038e-10
1.46038e-10
1.46038e-10
1.46038e-10
1.46038e-10
1.46038e-10
1.46038e-10
1.46038e-10
1.46038e-10
1.46038e-10
1.46038e-10
1.46038e-10
1.46038e-10
1.46038e-10
1.46038e-10
1.46038e-10
1.46038e-10
1.46038e-10
1.46038e-10
1.46038e-10
1.46038e-10
1.46038e-10
1.46038e-10
1.46038e-10
1.46038e-10
1.46038e-10
1.46038e-10
1.46038e-10
1.46038e-10
1.46038e-10
1.46038e-10
1.46038e-10
1.46038e-10
1.46038e-10
1.46038e-10
1.46038e-10
1.46038e-10
1.46038e-10
1.46038e-10
1.46038e-10
1.46038e-10
1.46038e-10
1.46038e-10
1.46038e-10
1.46038e-10
1.46038e-10
1.46038e-10
1.46038e-10
1.46038e-10
1.46038e-10
1.46038e-10
1.46038e-10
1.46038e-10
1.46038e-10
1.46038e-10
1.46038e-10
1.46038e-10
1.46038e-10
1.46038e-10
1.46038e-10
1.46038e-10
1.46038e-10
1.46038e-10
1.46038e-10
1.46038e-10
1.46038e-10
1.46038e-10
1.46038e-10
1.46038e-10
1.46038e-10
1.46038e-10
1.46038e-10
1.46038e-10
1.46038e-10
1.46038e-10
1.46038e-10
1.46038e-10
1.46038e-10
1.46038e-10
1.46038e-10
1.46038e-10
1.46038e-10
1.46038e-10
1.46038e-10
1.46038e-10
1.46038e-10
1.46038e-10
1.46038e-10
1.46038e-10
1.46038e-10
1.46038e-10
1.46038e-10
1.46038e-10
1.46038e-10
1.46038e-10
1.46038e-10
1.46038e-10
1.46038e-10
1.46038e-10
1.46038e-10
1.46038e-10
1.46038e-10
1.46038e-10
1.46038e-10
1.46038e-10
1.46038e-10
1.46038e-10
1.46038e-10
1.46038e-10
1.46038e-10
1.46038e-10
1.46038e-10
1.46038e-10
1.46038e-10
1.46038e-10
1.46038e-10
1.46038e-10
1.46038e-10
1.46038e-10
1.46038e-10
1.46038e-10
1.46038e-10
1.46038e-10
1.46038e-10
1.46038e-10
1.46038e-10
1.46038e-10
1.46038e-10
1.46038e-10
1.46038e-10
1.46038e-10
1.46038e-10
1.46038e-10
1.46038e-10
1.46038e-10
1.46038e-10
1.46038e-10
1.46038e-10
1.46038e-10
1.46038e-10
1.46038e-10
1.46038e-10
1.46038e-10
1.46038e-10
1.46038e-10
1.46038e-10
1.46038e-10
1.46038e-10
1.46038e-10
1.46038e-10
1.46038e-10
1.46038e-10
1.46038e-10
1.46038e-10
1.46038e-10
1.46038e-10
1.46038e-10
1.46038e-10
1.46038e-10
1.46038e-10
1.46038e-10
1.46038e-10
1.46038e-10
1.46038e-10
1.46038e-10
1.46038e-10
1.46038e-10
1.46038e-10
1.46038e-10
1.46038e-10
1.46038e-10
1.46038e-10
1.46038e-10
1.46038e-10
1.46038e-10
1.46038e-10
1.46038e-10
1.46038e-10
1.46038e-10
1.46038e-10
1.46038e-10
1.46038e-10
1.46038e-10
1.46038e-10
1.46038e-10
1.46038e-10
1.46038e-10
1.46038e-10
1.46038e-10
1.46038e-10
1.46038e-10
1.46038e-10
1.46038e-10
1.46038e-10
1.46038e-10
1.46038e-10
1.46038e-10
1.46038e-10
1.46038e-10
1.46038e-10
1.46038e-10
1.46038e-10
1.46038e-10
1.46038e-10
1.46038e-10
1.46038e-10
1.46038e-10
1.46038e-10
1.46038e-10
1.46038e-10
1.46038e-10
1.46038e-10
1.46038e-10
1.46038e-10
1.46038e-10
1.46038e-10
1.46038e-10
1.46038e-10
1.46038e-10
1.46038e-10
1.46038e-10
1.46038e-10
1.46038e-10
1.46038e-10
1.46038e-10
1.46038e-10
1.46038e-10
1.46038e-10
1.46038e-10
1.46038e-10
1.46038e-10
1.46038e-10
1.46038e-10
1.46038e-10
1.46038e-10
1.46038e-10
1.46038e-10
1.46038e-10
1.46038e-10
1.46038e-10
1.46038e-10
1.46038e-10
1.46038e-10
1.46038e-10
1.46038e-10
1.46038e-10
1.46038e-10
1.46038e-10
1.46038e-10
1.46038e-10
1.46038e-10
1.46038e-10
1.46038e-10
1.46038e-10
1.46038e-10
1.46038e-10
1.46038e-10
1.46038e-10
1.46038e-10
1.46038e-10
1.46038e-10
1.46038e-10
1.46038e-10
1.46038e-10
1.46038e-10
1.46038e-10
1.46038e-10
1.46038e-10
1.46038e-10
1.46038e-10
1.46038e-10
1.46038e-10
1.46038e-10
1.46038e-10
1.46038e-10
1.46038e-10
1.46038e-10
1.46038e-10
1.46038e-10
1.46038e-10
1.46038e-10
1.46038e-10
1.46038e-10
1.46038e-10
1.46038e-10
1.46038e-10
1.46038e-10
1.46038e-10
1.46038e-10
1.46038e-10
1.46038e-10
1.46038e-10
1.46038e-10
1.46038e-10
1.46038e-10
1.46038e-10
1.46038e-10
1.46038e-10
1.46038e-10
1.46038e-10
1.46038e-10
1.46038e-10
1.46038e-10
1.46038e-10
1.46038e-10
1.46038e-10
1.46038e-10
1.46038e-10
1.46038e-10
1.46038e-10
1.46038e-10
1.46038e-10
1.46038e-10
1.46038e-10
1.46038e-10
1.46038e-10
1.46038e-10
1.46038e-10
1.46038e-10
1.46038e-10
1.46038e-10
1.46038e-10
1.46038e-10
1.46038e-10
1.46038e-10
1.46038e-10
1.46038e-10
1.46038e-10
1.46038e-10
1.46038e-10
1.46038e-10
1.46038e-10
1.46038e-10
1.46038e-10
1.46038e-10
1.46038e-10
1.46038e-10
1.46038e-10
1.46038e-10
1.46038e-10
1.46038e-10
1.46038e-10
1.46038e-10
1.46038e-10
1.46038e-10
1.46038e-10
1.46038e-10
1.46038e-10
1.46038e-10
1.46038e-10
1.46038e-10
1.46038e-10
1.46038e-10
1.46038e-10
1.46038e-10
1.46038e-10
1.46038e-10
1.46038e-10
1.46038e-10
1.46038e-10
1.46038e-10
1.46038e-10
1.46038e-10
1.46038e-10
1.46038e-10
1.46038e-10
1.46038e-10
1.46038e-10
1.46038e-10
1.46038e-10
1.46038e-10
1.46038e-10
1.46038e-10
1.46038e-10
1.46038e-10
1.46038e-10
1.46038e-10
1.46038e-10
1.46038e-10
1.46038e-10
1.46038e-10
1.46038e-10
1.46038e-10
1.46038e-10
1.46038e-10
1.46038e-10
1.46038e-10
1.46038e-10
1.46038e-10
1.46038e-10
1.46038e-10
1.46038e-10
1.46038e-10
1.46038e-10
1.46038e-10
1.46038e-10
1.46038e-10
1.46038e-10
1.46038e-10
1.46038e-10
1.46038e-10
1.46038e-10
1.46038e-10
1.46038e-10
1.46038e-10
1.46038e-10
1.46038e-10
1.46038e-10
1.46038e-10
1.46038e-10
1.46038e-10
1.46038e-10
1.46038e-10
1.46038e-10
1.46038e-10
1.46038e-10
1.46038e-10
1.46038e-10
1.46038e-10
1.46038e-10
1.46038e-10
1.46038e-10
1.46038e-10
1.46038e-10
1.46038e-10
1.46038e-10
1.46038e-10
1.46038e-10
1.46038e-10
1.46038e-10
1.46038e-10
1.46038e-10
1.46038e-10
1.46038e-10
1.46038e-10
1.46038e-10
1.46038e-10
1.46038e-10
1.46038e-10
1.46038e-10
1.46038e-10
1.46038e-10
1.46038e-10
1.46038e-10
1.46038e-10
1.46038e-10
1.46038e-10
1.46038e-10
1.46038e-10
1.46038e-10
1.46038e-10
1.46038e-10
1.46038e-10
1.46038e-10
1.46038e-10
1.46038e-10
1.46038e-10
1.46038e-10
1.46038e-10
1.46038e-10
1.46038e-10
1.46038e-10
1.46038e-10
1.46038e-10
1.46038e-10
1.46038e-10
1.46038e-10
1.46038e-10
1.46038e-10
1.46038e-10
1.46038e-10
1.46038e-10
1.46038e-10
1.46038e-10
1.46038e-10
1.46038e-10
1.46038e-10
1.46038e-10
1.46038e-10
1.46038e-10
1.46038e-10
1.46038e-10
1.46038e-10
1.46038e-10
1.46038e-10
1.46038e-10
1.46038e-10
1.46038e-10
1.46038e-10
1.46038e-10
1.46038e-10
1.46038e-10
1.46038e-10
1.46038e-10
1.46038e-10
1.46038e-10
1.46038e-10
1.46038e-10
1.46038e-10
1.46038e-10
1.46038e-10
1.46038e-10
1.46038e-10
1.46038e-10
1.46038e-10
1.46038e-10
1.46038e-10
1.46038e-10
1.46038e-10
1.46038e-10
1.46038e-10
1.46038e-10
1.46038e-10
1.46038e-10
1.46038e-10
1.46038e-10
1.46038e-10
1.46038e-10
1.46038e-10
1.46038e-10
1.46038e-10
1.46038e-10
1.46038e-10
1.46038e-10
1.46038e-10
1.46038e-10
1.46038e-10
1.46038e-10
1.46038e-10
1.46038e-10
1.46038e-10
1.46038e-10
1.46038e-10
1.46038e-10
1.46038e-10
1.46038e-10
1.46038e-10
1.46038e-10
1.46038e-10
1.46038e-10
1.46038e-10
1.46038e-10
1.46038e-10
1.46038e-10
1.46038e-10
1.46038e-10
1.46038e-10
1.46038e-10
1.46038e-10
1.46038e-10
1.46038e-10
1.46038e-10
1.46038e-10
1.46038e-10
1.46038e-10
1.46038e-10
1.46038e-10
1.46038e-10
1.46038e-10
1.46038e-10
1.46038e-10
1.46038e-10
1.46038e-10
1.46038e-10
1.46038e-10
1.46038e-10
1.46038e-10
1.46038e-10
1.46038e-10
1.46038e-10
1.46038e-10
1.46038e-10
1.46038e-10
1.46038e-10
1.46038e-10
1.46038e-10
1.46038e-10
1.46038e-10
1.46038e-10
1.46038e-10
1.46038e-10
1.46038e-10
1.46038e-10
1.46038e-10
1.46038e-10
1.46038e-10
1.46038e-10
1.46038e-10
1.46038e-10
1.46038e-10
1.46038e-10
1.46038e-10
1.46038e-10
1.46038e-10
1.46038e-10
1.46038e-10
1.46038e-10
1.46038e-10
1.46038e-10
1.46038e-10
1.46038e-10
1.46038e-10
1.46038e-10
1.46038e-10
1.46038e-10
1.46038e-10
1.46038e-10
1.46038e-10
1.46038e-10
1.46038e-10
1.46038e-10
1.46038e-10
1.46038e-10
1.46038e-10
1.46038e-10
1.46038e-10
1.46038e-10
1.46038e-10
1.46038e-10
1.46038e-10
1.46038e-10
1.46038e-10
1.46038e-10
1.46038e-10
1.46038e-10
1.46038e-10
1.46038e-10
1.46038e-10
1.46038e-10
1.46038e-10
1.46038e-10
1.46038e-10
1.46038e-10
1.46038e-10
1.46038e-10
1.46038e-10
1.46038e-10
1.46038e-10
1.46038e-10
1.46038e-10
1.46038e-10
1.46038e-10
1.46038e-10
1.46038e-10
1.46038e-10
1.46038e-10
1.46038e-10
1.46038e-10
1.46038e-10
1.46038e-10
1.46038e-10
1.46038e-10
1.46038e-10
1.46038e-10
1.46038e-10
1.46038e-10
1.46038e-10
1.46038e-10
1.46038e-10
1.46038e-10
1.46038e-10
1.46038e-10
1.46038e-10
1.46038e-10
1.46038e-10
1.46038e-10
1.46038e-10
1.46038e-10
1.46038e-10
1.46038e-10
1.46038e-10
1.46038e-10
1.46038e-10
1.46038e-10
1.46038e-10
1.46038e-10
1.46038e-10
1.46038e-10
1.46038e-10
1.46038e-10
1.46038e-10
1.46038e-10
1.46038e-10
1.46038e-10
1.46038e-10
1.46039e-10
1.4604e-10
1.46038e-10
1.46038e-10
1.46038e-10
1.46038e-10
1.46038e-10
1.46038e-10
1.46038e-10
1.46038e-10
1.46038e-10
1.46038e-10
1.46038e-10
1.46038e-10
1.46038e-10
1.46038e-10
1.46038e-10
1.46038e-10
1.46038e-10
1.46038e-10
1.46038e-10
1.46038e-10
1.46038e-10
1.46038e-10
1.46038e-10
1.46038e-10
1.46038e-10
1.46038e-10
1.46038e-10
1.46038e-10
1.46038e-10
1.46038e-10
1.46038e-10
1.46038e-10
1.46038e-10
1.46038e-10
1.46038e-10
1.46038e-10
1.46038e-10
1.46038e-10
1.46038e-10
1.46038e-10
1.46038e-10
1.46039e-10
1.46039e-10
1.46041e-10
1.46043e-10
1.46047e-10
1.46053e-10
1.46068e-10
1.46038e-10
1.46038e-10
1.46038e-10
1.46038e-10
1.46038e-10
1.46038e-10
1.46038e-10
1.46038e-10
1.46038e-10
1.46038e-10
1.46038e-10
1.46038e-10
1.46038e-10
1.46038e-10
1.46038e-10
1.46038e-10
1.46038e-10
1.46038e-10
1.46038e-10
1.46038e-10
1.46038e-10
1.46038e-10
1.46038e-10
1.46038e-10
1.46038e-10
1.46038e-10
1.46038e-10
1.46038e-10
1.46038e-10
1.46038e-10
1.46038e-10
1.46038e-10
1.46038e-10
1.46038e-10
1.46038e-10
1.46038e-10
1.46038e-10
1.46038e-10
1.46038e-10
1.46039e-10
1.4604e-10
1.46042e-10
1.46045e-10
1.46049e-10
1.46058e-10
1.46072e-10
1.46096e-10
1.46138e-10
1.46211e-10
1.46376e-10
1.46038e-10
1.46038e-10
1.46038e-10
1.46038e-10
1.46038e-10
1.46038e-10
1.46038e-10
1.46038e-10
1.46038e-10
1.46038e-10
1.46038e-10
1.46038e-10
1.46038e-10
1.46038e-10
1.46038e-10
1.46038e-10
1.46038e-10
1.46038e-10
1.46038e-10
1.46038e-10
1.46038e-10
1.46038e-10
1.46038e-10
1.46038e-10
1.46038e-10
1.46038e-10
1.46038e-10
1.46038e-10
1.46038e-10
1.46038e-10
1.46038e-10
1.46038e-10
1.46038e-10
1.46038e-10
1.46039e-10
1.46039e-10
1.46041e-10
1.46043e-10
1.46047e-10
1.46053e-10
1.46064e-10
1.46082e-10
1.46113e-10
1.46167e-10
1.46258e-10
1.46414e-10
1.46682e-10
1.47142e-10
1.4795e-10
1.49728e-10
1.46038e-10
1.46038e-10
1.46038e-10
1.46038e-10
1.46038e-10
1.46038e-10
1.46038e-10
1.46038e-10
1.46038e-10
1.46038e-10
1.46038e-10
1.46038e-10
1.46038e-10
1.46038e-10
1.46038e-10
1.46038e-10
1.46038e-10
1.46038e-10
1.46038e-10
1.46038e-10
1.46038e-10
1.46038e-10
1.46038e-10
1.46038e-10
1.46038e-10
1.46038e-10
1.46038e-10
1.46038e-10
1.46038e-10
1.46038e-10
1.46039e-10
1.4604e-10
1.46042e-10
1.46044e-10
1.46049e-10
1.46057e-10
1.46071e-10
1.46094e-10
1.46135e-10
1.46203e-10
1.46319e-10
1.46518e-10
1.46858e-10
1.47436e-10
1.48424e-10
1.50111e-10
1.52997e-10
1.57936e-10
1.66541e-10
1.8483e-10
1.46038e-10
1.46038e-10
1.46038e-10
1.46038e-10
1.46038e-10
1.46038e-10
1.46038e-10
1.46038e-10
1.46038e-10
1.46038e-10
1.46038e-10
1.46038e-10
1.46038e-10
1.46038e-10
1.46038e-10
1.46038e-10
1.46038e-10
1.46038e-10
1.46038e-10
1.46038e-10
1.46038e-10
1.46038e-10
1.46038e-10
1.46038e-10
1.46038e-10
1.46039e-10
1.46039e-10
1.46041e-10
1.46043e-10
1.46046e-10
1.46052e-10
1.46062e-10
1.4608e-10
1.46109e-10
1.4616e-10
1.46245e-10
1.46392e-10
1.46641e-10
1.47067e-10
1.47791e-10
1.49026e-10
1.51129e-10
1.54707e-10
1.60787e-10
1.71106e-10
1.88597e-10
2.18169e-10
2.67994e-10
3.5272e-10
5.22002e-10
1.46038e-10
1.46038e-10
1.46038e-10
1.46038e-10
1.46038e-10
1.46038e-10
1.46038e-10
1.46038e-10
1.46038e-10
1.46038e-10
1.46038e-10
1.46038e-10
1.46038e-10
1.46038e-10
1.46038e-10
1.46038e-10
1.46038e-10
1.46038e-10
1.46038e-10
1.46038e-10
1.46038e-10
1.46039e-10
1.4604e-10
1.46041e-10
1.46044e-10
1.46048e-10
1.46056e-10
1.46068e-10
1.4609e-10
1.46126e-10
1.46189e-10
1.46294e-10
1.46475e-10
1.46782e-10
1.47306e-10
1.48197e-10
1.49715e-10
1.52297e-10
1.56685e-10
1.64132e-10
1.76743e-10
1.98031e-10
2.33793e-10
2.93497e-10
3.92592e-10
5.56347e-10
8.26084e-10
1.2696e-09
2.00633e-09
3.39156e-09
1.46038e-10
1.46038e-10
1.46038e-10
1.46038e-10
1.46038e-10
1.46038e-10
1.46038e-10
1.46038e-10
1.46038e-10
1.46038e-10
1.46038e-10
1.46038e-10
1.46038e-10
1.46038e-10
1.46038e-10
1.46038e-10
1.46039e-10
1.46039e-10
1.4604e-10
1.46042e-10
1.46045e-10
1.46051e-10
1.4606e-10
1.46075e-10
1.46101e-10
1.46146e-10
1.46221e-10
1.4635e-10
1.46569e-10
1.46941e-10
1.47573e-10
1.4865e-10
1.50481e-10
1.53593e-10
1.58877e-10
1.67834e-10
1.82981e-10
2.08495e-10
2.51237e-10
3.22391e-10
4.40132e-10
6.33886e-10
9.51069e-10
1.46819e-09
2.31014e-09
3.6835e-09
5.93129e-09
9.62411e-09
1.57604e-08
2.67345e-08
1.46038e-10
1.46038e-10
1.46038e-10
1.46038e-10
1.46038e-10
1.46038e-10
1.46038e-10
1.46038e-10
1.46038e-10
1.46038e-10
1.46038e-10
1.46038e-10
1.46039e-10
1.4604e-10
1.46041e-10
1.46043e-10
1.46047e-10
1.46053e-10
1.46064e-10
1.46083e-10
1.46114e-10
1.46167e-10
1.46257e-10
1.46411e-10
1.46671e-10
1.47114e-10
1.47867e-10
1.49146e-10
1.51318e-10
1.55004e-10
1.61254e-10
1.7183e-10
1.89678e-10
2.19674e-10
2.69816e-10
3.53121e-10
4.90655e-10
7.16422e-10
1.0852e-09
1.68553e-09
2.66197e-09
4.25133e-09
6.83986e-09
1.10571e-08
1.79345e-08
2.91598e-08
4.74161e-08
7.67699e-08
1.23346e-07
1.97719e-07
1.46038e-10
1.46038e-10
1.46038e-10
1.46038e-10
1.46038e-10
1.46038e-10
1.46038e-10
1.46038e-10
1.46039e-10
1.4604e-10
1.46042e-10
1.46044e-10
1.46049e-10
1.46056e-10
1.46069e-10
1.46091e-10
1.46128e-10
1.4619e-10
1.46296e-10
1.46476e-10
1.46782e-10
1.473e-10
1.4818e-10
1.49674e-10
1.52207e-10
1.56501e-10
1.63771e-10
1.76052e-10
1.96732e-10
2.31402e-10
2.89203e-10
3.84962e-10
5.42632e-10
8.00862e-10
1.22209e-09
1.90748e-09
3.02164e-09
4.83323e-09
7.78026e-09
1.25778e-08
2.03981e-08
3.31359e-08
5.37236e-08
8.64757e-08
1.37448e-07
2.14755e-07
3.28493e-07
4.90173e-07
7.13285e-07
1.01512e-06
1.46038e-10
1.46038e-10
1.46038e-10
1.46039e-10
1.46039e-10
1.4604e-10
1.46042e-10
1.46045e-10
1.46051e-10
1.4606e-10
1.46075e-10
1.461e-10
1.46143e-10
1.46215e-10
1.46338e-10
1.46546e-10
1.46898e-10
1.47495e-10
1.48507e-10
1.50222e-10
1.53128e-10
1.58046e-10
1.66359e-10
1.80378e-10
2.0394e-10
2.43351e-10
3.08891e-10
4.17193e-10
5.95081e-10
8.85792e-10
1.35914e-09
2.12814e-09
3.37642e-09
5.40352e-09
8.69958e-09
1.40673e-08
2.28159e-08
3.70442e-08
5.99926e-08
9.64231e-08
1.53038e-07
2.38716e-07
3.64031e-07
5.40377e-07
7.79539e-07
1.09421e-06
1.49633e-06
1.99503e-06
2.60234e-06
3.33499e-06
1.4604e-10
1.46041e-10
1.46043e-10
1.46047e-10
1.46053e-10
1.46063e-10
1.46081e-10
1.4611e-10
1.46159e-10
1.46242e-10
1.46383e-10
1.4662e-10
1.47021e-10
1.47699e-10
1.48846e-10
1.50786e-10
1.54066e-10
1.59608e-10
1.6896e-10
1.84701e-10
2.111e-10
2.55157e-10
3.28251e-10
4.48758e-10
6.4627e-10
9.68446e-10
1.49217e-09
2.34182e-09
3.71924e-09
5.95332e-09
9.58172e-09
1.54838e-08
2.50889e-08
4.06827e-08
6.58074e-08
1.057e-07
1.67675e-07
2.61273e-07
3.97869e-07
5.89764e-07
8.50168e-07
1.19256e-06
1.62764e-06
2.16377e-06
2.80895e-06
3.57534e-06
4.46908e-06
5.49229e-06
6.64932e-06
7.95519e-06
1.46056e-10
1.46068e-10
1.46088e-10
1.46121e-10
1.46178e-10
1.46273e-10
1.46432e-10
1.467e-10
1.47152e-10
1.47914e-10
1.49199e-10
1.51366e-10
1.55021e-10
1.61182e-10
1.71552e-10
1.88964e-10
2.18092e-10
2.6658e-10
3.46823e-10
4.78803e-10
6.94668e-10
1.04615e-09
1.61665e-09
2.54096e-09
4.03766e-09
6.46249e-09
1.03963e-08
1.67875e-08
2.7175e-08
4.40143e-08
7.11037e-08
1.14055e-07
1.80676e-07
2.81106e-07
4.27587e-07
6.33804e-07
9.14068e-07
1.28236e-06
1.75046e-06
2.32794e-06
3.02578e-06
3.85675e-06
4.82463e-06
5.92335e-06
7.15196e-06
8.51669e-06
1.00204e-05
1.16562e-05
1.34197e-05
1.533e-05
1.46199e-10
1.46307e-10
1.46488e-10
1.4679e-10
1.47297e-10
1.48147e-10
1.49576e-10
1.51977e-10
1.56013e-10
1.62791e-10
1.74163e-10
1.93194e-10
2.2493e-10
2.77593e-10
3.64483e-10
5.07008e-10
7.39562e-10
1.11745e-09
1.72973e-09
2.72026e-09
4.32204e-09
6.91395e-09
1.11138e-08
1.79291e-08
2.89921e-08
4.69036e-08
7.56816e-08
1.21257e-07
1.91886e-07
2.98294e-07
4.5344e-07
6.71902e-07
9.68966e-07
1.35969e-06
1.85792e-06
2.47565e-06
3.22439e-06
4.11473e-06
5.15092e-06
6.33071e-06
7.65801e-06
9.13626e-06
1.07616e-05
1.25232e-05
1.44082e-05
1.64093e-05
1.85165e-05
2.07106e-05
2.29814e-05
2.53788e-05
1.47462e-10
1.48411e-10
1.49996e-10
1.52646e-10
1.5708e-10
1.64494e-10
1.76877e-10
1.97514e-10
2.31784e-10
2.88427e-10
3.81534e-10
5.33738e-10
7.81341e-10
1.18263e-09
1.83136e-09
2.87877e-09
4.56953e-09
7.30093e-09
1.172e-08
1.88803e-08
3.04871e-08
4.92543e-08
7.93739e-08
1.27037e-07
2.00871e-07
3.1212e-07
4.74415e-07
7.03153e-07
1.0146e-06
1.42488e-06
1.9492e-06
2.60111e-06
3.39229e-06
4.33256e-06
5.42958e-06
6.68778e-06
8.1089e-06
9.69338e-06
1.14373e-05
1.33341e-05
1.53793e-05
1.75645e-05
1.98676e-05
2.22607e-05
2.47209e-05
2.72326e-05
2.97843e-05
3.23647e-05
3.49743e-05
3.77039e-05
1.58289e-10
1.66391e-10
1.79847e-10
2.02151e-10
2.38995e-10
2.99586e-10
3.98716e-10
5.60071e-10
8.21555e-10
1.2439e-09
1.92459e-09
3.02059e-09
4.78538e-09
7.62979e-09
1.22217e-08
1.96469e-08
3.16602e-08
5.10528e-08
8.21366e-08
1.31288e-07
2.0742e-07
3.2219e-07
4.89813e-07
7.26443e-07
1.04927e-06
1.47551e-06
2.02152e-06
2.70212e-06
3.53024e-06
4.51661e-06
5.66976e-06
6.99622e-06
8.49945e-06
1.01802e-05
1.20368e-05
1.40651e-05
1.62613e-05
1.86157e-05
2.1108e-05
2.37131e-05
2.64058e-05
2.91642e-05
3.19714e-05
3.48122e-05
3.76732e-05
4.05399e-05
4.33969e-05
4.62308e-05
4.90431e-05
5.1948e-05
2.47087e-10
3.11863e-10
4.17223e-10
5.878e-10
8.62885e-10
1.30524e-09
2.01535e-09
3.15453e-09
4.98263e-09
7.91971e-09
1.2647e-08
2.02693e-08
3.25692e-08
5.2379e-08
8.4075e-08
1.34141e-07
2.11669e-07
3.28614e-07
4.99646e-07
7.41567e-07
1.07241e-06
1.51042e-06
2.07313e-06
2.77663e-06
3.63508e-06
4.66062e-06
5.86299e-06
7.24975e-06
8.82623e-06
1.05944e-05
1.2554e-05
1.47027e-05
1.70353e-05
1.95426e-05
2.22095e-05
2.50143e-05
2.79324e-05
3.09394e-05
3.4015e-05
3.71421e-05
4.03008e-05
4.34702e-05
4.66322e-05
4.97735e-05
5.28831e-05
5.59478e-05
5.89525e-05
6.18839e-05
6.47458e-05
6.76643e-05
6.19454e-10
9.09142e-10
1.37241e-09
2.11231e-09
3.29368e-09
5.18109e-09
8.20078e-09
1.30416e-08
2.08175e-08
3.33207e-08
5.33943e-08
8.54299e-08
1.35943e-07
2.14103e-07
3.32028e-07
5.04697e-07
7.4941e-07
1.08491e-06
1.53037e-06
2.10444e-06
2.82443e-06
3.70589e-06
4.76222e-06
6.00463e-06
7.442e-06
9.08092e-06
1.09255e-05
1.29762e-05
1.5232e-05
1.76889e-05
2.03396e-05
2.31714e-05
2.61659e-05
2.92995e-05
3.25466e-05
3.58826e-05
3.92857e-05
4.27344e-05
4.6209e-05
4.96933e-05
5.31725e-05
5.66282e-05
6.00412e-05
6.33946e-05
6.66757e-05
6.98729e-05
7.29747e-05
7.59728e-05
7.88569e-05
8.16336e-05
8.44171e-05
3.45519e-09
5.40678e-09
8.51265e-09
1.34664e-08
2.13851e-08
3.40593e-08
5.43218e-08
8.65427e-08
1.3721e-07
2.15476e-07
3.335e-07
5.06412e-07
7.51835e-07
1.08905e-06
1.538e-06
2.1183e-06
2.84846e-06
3.74528e-06
4.82357e-06
6.09594e-06
7.57272e-06
9.26195e-06
1.11693e-05
1.32973e-05
1.56457e-05
1.82123e-05
2.0991e-05
2.39724e-05
2.71407e-05
3.04742e-05
3.39474e-05
3.75335e-05
4.12072e-05
4.49453e-05
4.87262e-05
5.25311e-05
5.63423e-05
6.01411e-05
6.39106e-05
6.76349e-05
7.1299e-05
7.48842e-05
7.8373e-05
8.17545e-05
8.50223e-05
8.81664e-05
9.11654e-05
9.4006e-05
9.66746e-05
9.91881e-05
0.000101668
1.39959e-08
2.2086e-08
3.49602e-08
5.54316e-08
8.78285e-08
1.38571e-07
2.16728e-07
3.34392e-07
5.06699e-07
7.51417e-07
1.08817e-06
1.53747e-06
2.11971e-06
2.85441e-06
3.75957e-06
4.8513e-06
6.14356e-06
7.64821e-06
9.37474e-06
1.13304e-05
1.35198e-05
1.59442e-05
1.86025e-05
2.1491e-05
2.46023e-05
2.79241e-05
3.14375e-05
3.51182e-05
3.89386e-05
4.28711e-05
4.68901e-05
5.09719e-05
5.50948e-05
5.92391e-05
6.33855e-05
6.75146e-05
7.16096e-05
7.56538e-05
7.96301e-05
8.35216e-05
8.73152e-05
9.1001e-05
9.45654e-05
9.79905e-05
0.000101255
0.000104345
0.000107252
0.000109972
0.000112494
0.000114815
0.000116949
0.000119017
8.97623e-08
1.40744e-07
2.18928e-07
3.36265e-07
5.07776e-07
7.51207e-07
1.08632e-06
1.53397e-06
2.11513e-06
2.85009e-06
3.75785e-06
4.8557e-06
6.15892e-06
7.68064e-06
9.43194e-06
1.14216e-05
1.36559e-05
1.61385e-05
1.88695e-05
2.1847e-05
2.50659e-05
2.8517e-05
3.21852e-05
3.6049e-05
4.00815e-05
4.4254e-05
4.85383e-05
5.29083e-05
5.734e-05
6.18113e-05
6.63016e-05
7.07911e-05
7.52602e-05
7.96908e-05
8.4066e-05
8.83668e-05
9.25754e-05
9.66814e-05
0.000100676
0.000104542
0.000108263
0.000111812
0.000115178
0.000118352
0.000121323
0.000124083
0.000126626
0.00012895
0.000131052
0.000132928
0.000134589
0.000136147
5.12078e-07
7.54573e-07
1.08803e-06
1.53342e-06
2.11205e-06
2.84473e-06
3.75122e-06
4.84977e-06
6.15677e-06
7.68665e-06
9.45175e-06
1.14623e-05
1.37264e-05
1.62495e-05
1.90341e-05
2.20795e-05
2.53828e-05
2.89374e-05
3.27322e-05
3.67495e-05
4.09654e-05
4.53514e-05
4.98775e-05
5.45156e-05
5.92393e-05
6.4024e-05
6.88476e-05
7.36887e-05
7.85266e-05
8.33418e-05
8.81155e-05
9.28301e-05
9.74652e-05
0.000102004
0.000106437
0.000110754
0.000114933
0.000118954
0.000122796
0.000126445
0.000129903
0.000133148
0.000136171
0.000138967
0.00014153
0.000143856
0.000145939
0.000147772
0.000149353
0.000150683
0.00015177
0.000152719
2.11864e-06
2.84851e-06
3.75208e-06
4.84827e-06
6.15439e-06
7.68593e-06
9.45639e-06
1.14773e-05
1.37582e-05
1.63064e-05
1.91264e-05
2.22197e-05
2.55847e-05
2.92178e-05
3.31107e-05
3.72502e-05
4.16164e-05
4.61832e-05
5.09207e-05
5.57988e-05
6.07893e-05
6.58658e-05
7.10033e-05
7.61796e-05
8.13729e-05
8.65616e-05
9.17263e-05
9.68481e-05
0.000101908
0.000106883
0.000111762
0.000116534
0.000121185
0.000125688
0.000130025
0.000134174
0.000138125
0.000141873
0.0001454
0.000148699
0.000151765
0.000154592
0.000157168
0.000159486
0.000161541
0.000163327
0.000164844
0.000166086
0.00016705
0.00016775
0.000168176
0.000168424
6.1707e-06
7.7004e-06
9.47087e-06
1.14947e-05
1.37828e-05
1.63437e-05
1.9184e-05
2.23074e-05
2.5714e-05
2.9402e-05
3.33663e-05
3.75973e-05
4.20799e-05
4.67919e-05
5.17055e-05
5.67901e-05
6.20157e-05
6.73542e-05
7.2779e-05
7.82656e-05
8.37912e-05
8.93342e-05
9.48725e-05
0.000100387
0.000105858
0.000111265
0.000116585
0.00012181
0.00012693
0.000131921
0.000136758
0.000141422
0.000145892
0.000150162
0.000154219
0.000158045
0.000161635
0.000164984
0.000168085
0.000170926
0.0001735
0.000175799
0.000177819
0.000179552
0.000180998
0.000182147
0.000183007
0.000183572
0.000183835
0.000183839
0.000183535
0.000183045
1.38345e-05
1.63998e-05
1.92492e-05
2.23884e-05
2.58199e-05
2.95431e-05
3.35553e-05
3.78505e-05
4.24174e-05
4.72388e-05
5.22908e-05
5.75444e-05
6.29687e-05
6.85344e-05
7.42135e-05
7.99794e-05
8.58081e-05
9.16768e-05
9.75633e-05
0.000103446
0.000109306
0.000115124
0.000120875
0.000126543
0.000132117
0.000137587
0.000142921
0.000148099
0.000153101
0.000157901
0.000162502
0.000166882
0.000171024
0.000174925
0.000178577
0.000181969
0.000185091
0.000187935
0.000190495
0.000192765
0.000194738
0.00019641
0.000197774
0.000198828
0.000199581
0.000200004
0.000200132
0.000199955
0.000199438
0.000198689
0.00019764
0.000196365
2.59565e-05
2.96996e-05
3.3741e-05
3.80774e-05
4.27011e-05
4.75995e-05
5.27536e-05
5.81379e-05
6.37225e-05
6.94771e-05
7.53727e-05
8.13818e-05
8.74785e-05
9.3639e-05
9.9841e-05
0.000106062
0.000112281
0.000118479
0.000124636
0.000130727
0.000136738
0.000142659
0.000148478
0.000154157
0.000159675
0.000165022
0.000170164
0.0001751
0.000179813
0.000184285
0.000188511
0.000192483
0.000196185
0.000199608
0.000202743
0.000205584
0.000208122
0.000210352
0.000212267
0.000213867
0.000215142
0.000216095
0.000216723
0.000217012
0.000217009
0.000216629
0.000215962
0.000215007
0.00021372
0.000212135
0.000210269
0.000208176
4.79589e-05
5.31827e-05
5.86614e-05
6.43681e-05
7.02728e-05
7.6346e-05
8.25594e-05
8.8886e-05
9.53006e-05
0.00010178
0.000108302
0.000114844
0.000121388
0.000127913
0.000134398
0.000140819
0.000147167
0.00015343
0.000159589
0.00016561
0.000171467
0.000177155
0.000182645
0.000187921
0.000192974
0.000197786
0.000202348
0.00020665
0.000210676
0.000214416
0.000217862
0.000221004
0.000223832
0.000226341
0.000228523
0.000230375
0.000231894
0.000233071
0.000233917
0.00023441
0.000234568
0.0002344
0.000233845
0.000233025
0.000231859
0.000230357
0.000228545
0.000226423
0.000224009
0.000221319
0.000218403
7.10279e-05
7.72399e-05
8.36179e-05
9.01347e-05
9.67638e-05
0.000103481
0.000110264
0.000117091
0.00012394
0.000130792
0.00013763
0.000144428
0.000151167
0.000157839
0.000164433
0.000170922
0.000177276
0.000183469
0.000189493
0.000195326
0.000200941
0.000206334
0.000211491
0.000216396
0.000221036
0.000225397
0.000229468
0.000233238
0.000236697