/*--------------------------------*- C++ -*----------------------------------*\
| =========                 |                                                 |
| \\      /  F ield         | OpenFOAM: The Open Source CFD Toolbox           |
|  \\    /   O peration     | Version:  v1706                                 |
|   \\  /    A nd           | Web:      www.OpenFOAM.com                      |
|    \\/     M anipulation  |                                                 |
\*---------------------------------------------------------------------------*/
FoamFile
{
    version     2.0;
    format      ascii;
    class       volScalarField;
    location    "7e-06";
    object      kappatr;
}
// * * * * * * * * * * * * * * * * * * * * * * * * * * * * * * * * * * * * * //

dimensions      [1 1 -3 -1 0 0 0];


internalField   nonuniform List<scalar> 
30038
(
0.014593
0.014593
0.014593
0.014593
0.014593
0.014593
0.014593
0.014593
0.014593
0.014593
0.014593
0.014593
0.014593
0.014593
0.014593
0.014593
0.014593
0.014593
0.014593
0.014593
0.014593
0.014593
0.014593
0.014593
0.014593
0.014593
0.014593
0.014593
0.014593
0.014593
0.014593
0.014593
0.014593
0.014593
0.014593
0.014593
0.014593
0.014593
0.014593
0.014593
0.014593
0.014593
0.014593
0.014593
0.014593
0.014593
0.014593
0.014593
0.014593
0.014593
0.014593
0.014593
0.014593
0.014593
0.014593
0.014593
0.014593
0.014593
0.014593
0.014593
0.014593
0.014593
0.014593
0.014593
0.014593
0.014593
0.014593
0.014593
0.014593
0.014593
0.014593
0.014593
0.014593
0.014593
0.014593
0.014593
0.014593
0.014593
0.014593
0.014593
0.014593
0.014593
0.014593
0.014593
0.014593
0.014593
0.014593
0.014593
0.014593
0.014593
0.014593
0.014593
0.014593
0.014593
0.014593
0.014593
0.014593
0.014593
0.014593
0.014593
0.014593
0.014593
0.014593
0.014593
0.014593
0.014593
0.014593
0.014593
0.014593
0.014593
0.014593
0.014593
0.014593
0.014593
0.014593
0.014593
0.014593
0.014593
0.014593
0.014593
0.014593
0.014593
0.014593
0.014593
0.014593
0.014593
0.014593
0.014593
0.014593
0.014593
0.014593
0.014593
0.014593
0.014593
0.014593
0.014593
0.014593
0.014593
0.014593
0.014593
0.014593
0.014593
0.014593
0.014593
0.014593
0.014593
0.014593
0.014593
0.014593
0.014593
0.014593
0.014593
0.014593
0.014593
0.014593
0.014593
0.014593
0.014593
0.014593
0.014593
0.014593
0.014593
0.014593
0.014593
0.014593
0.014593
0.014593
0.014593
0.014593
0.014593
0.014593
0.014593
0.014593
0.014593
0.014593
0.014593
0.014593
0.014593
0.014593
0.014593
0.014593
0.014593
0.014593
0.014593
0.014593
0.014593
0.014593
0.014593
0.014593
0.014593
0.014593
0.014593
0.014593
0.014593
0.014593
0.014593
0.014593
0.014593
0.014593
0.014593
0.014593
0.014593
0.014593
0.014593
0.014593
0.014593
0.014593
0.014593
0.014593
0.014593
0.014593
0.014593
0.014593
0.014593
0.014593
0.014593
0.014593
0.014593
0.014593
0.014593
0.014593
0.014593
0.014593
0.014593
0.014593
0.014593
0.014593
0.014593
0.014593
0.014593
0.014593
0.014593
0.014593
0.014593
0.014593
0.014593
0.014593
0.014593
0.014593
0.014593
0.014593
0.014593
0.014593
0.014593
0.014593
0.014593
0.014593
0.014593
0.014593
0.014593
0.014593
0.014593
0.014593
0.014593
0.014593
0.014593
0.014593
0.014593
0.014593
0.014593
0.014593
0.014593
0.014593
0.014593
0.014593
0.014593
0.014593
0.014593
0.014593
0.014593
0.014593
0.014593
0.014593
0.014593
0.014593
0.014593
0.014593
0.014593
0.014593
0.014593
0.014593
0.014593
0.014593
0.014593
0.014593
0.014593
0.014593
0.014593
0.014593
0.014593
0.014593
0.014593
0.014593
0.014593
0.014593
0.014593
0.014593
0.014593
0.014593
0.014593
0.014593
0.014593
0.014593
0.014593
0.014593
0.014593
0.014593
0.014593
0.014593
0.014593
0.014593
0.014593
0.014593
0.014593
0.014593
0.014593
0.014593
0.014593
0.014593
0.014593
0.014593
0.014593
0.014593
0.014593
0.014593
0.014593
0.014593
0.014593
0.014593
0.014593
0.014593
0.014593
0.014593
0.014593
0.014593
0.014593
0.014593
0.014593
0.014593
0.014593
0.014593
0.014593
0.014593
0.014593
0.014593
0.014593
0.014593
0.014593
0.014593
0.014593
0.014593
0.014593
0.014593
0.014593
0.014593
0.014593
0.014593
0.014593
0.014593
0.014593
0.014593
0.014593
0.014593
0.014593
0.014593
0.014593
0.014593
0.014593
0.014593
0.014593
0.014593
0.014593
0.014593
0.014593
0.014593
0.014593
0.014593
0.014593
0.014593
0.014593
0.014593
0.014593
0.014593
0.014593
0.014593
0.014593
0.014593
0.014593
0.014593
0.014593
0.014593
0.014593
0.014593
0.014593
0.014593
0.014593
0.014593
0.014593
0.014593
0.014593
0.014593
0.014593
0.014593
0.014593
0.014593
0.014593
0.014593
0.014593
0.014593
0.014593
0.014593
0.014593
0.014593
0.014593
0.014593
0.014593
0.014593
0.014593
0.014593
0.014593
0.014593
0.014593
0.014593
0.014593
0.014593
0.014593
0.014593
0.014593
0.014593
0.014593
0.014593
0.014593
0.014593
0.014593
0.014593
0.014593
0.014593
0.014593
0.014593
0.014593
0.014593
0.014593
0.014593
0.014593
0.014593
0.014593
0.014593
0.014593
0.014593
0.014593
0.014593
0.014593
0.014593
0.014593
0.014593
0.014593
0.014593
0.014593
0.014593
0.014593
0.014593
0.014593
0.014593
0.014593
0.014593
0.014593
0.014593
0.014593
0.014593
0.014593
0.014593
0.014593
0.014593
0.014593
0.014593
0.014593
0.014593
0.014593
0.014593
0.014593
0.014593
0.014593
0.014593
0.014593
0.014593
0.014593
0.014593
0.014593
0.014593
0.014593
0.014593
0.014593
0.014593
0.014593
0.014593
0.014593
0.014593
0.014593
0.014593
0.014593
0.014593
0.014593
0.014593
0.014593
0.014593
0.014593
0.014593
0.014593
0.014593
0.014593
0.014593
0.014593
0.014593
0.014593
0.014593
0.014593
0.014593
0.014593
0.014593
0.014593
0.014593
0.014593
0.014593
0.014593
0.014593
0.014593
0.014593
0.014593
0.014593
0.014593
0.014593
0.014593
0.014593
0.014593
0.014593
0.014593
0.014593
0.014593
0.014593
0.014593
0.014593
0.014593
0.014593
0.014593
0.014593
0.014593
0.014593
0.014593
0.014593
0.014593
0.014593
0.014593
0.014593
0.014593
0.014593
0.014593
0.014593
0.014593
0.014593
0.014593
0.014593
0.014593
0.014593
0.014593
0.014593
0.014593
0.014593
0.014593
0.014593
0.014593
0.014593
0.014593
0.014593
0.014593
0.014593
0.014593
0.014593
0.014593
0.014593
0.014593
0.014593
0.014593
0.014593
0.014593
0.014593
0.014593
0.014593
0.014593
0.014593
0.014593
0.014593
0.014593
0.014593
0.014593
0.014593
0.014593
0.014593
0.014593
0.014593
0.014593
0.014593
0.014593
0.014593
0.014593
0.014593
0.014593
0.014593
0.014593
0.014593
0.014593
0.014593
0.014593
0.014593
0.014593
0.014593
0.014593
0.014593
0.014593
0.014593
0.014593
0.014593
0.014593
0.014593
0.014593
0.014593
0.014593
0.014593
0.014593
0.014593
0.014593
0.014593
0.014593
0.014593
0.014593
0.014593
0.014593
0.014593
0.014593
0.014593
0.014593
0.014593
0.014593
0.014593
0.014593
0.014593
0.014593
0.014593
0.014593
0.014593
0.014593
0.014593
0.014593
0.014593
0.014593
0.014593
0.014593
0.014593
0.014593
0.014593
0.014593
0.014593
0.014593
0.014593
0.014593
0.014593
0.014593
0.014593
0.014593
0.014593
0.014593
0.014593
0.014593
0.014593
0.014593
0.014593
0.014593
0.014593
0.014593
0.014593
0.014593
0.014593
0.014593
0.014593
0.014593
0.014593
0.014593
0.014593
0.014593
0.014593
0.014593
0.014593
0.014593
0.014593
0.014593
0.014593
0.014593
0.014593
0.014593
0.014593
0.014593
0.014593
0.014593
0.014593
0.014593
0.014593
0.014593
0.014593
0.014593
0.014593
0.014593
0.014593
0.014593
0.014593
0.014593
0.014593
0.014593
0.014593
0.014593
0.014593
0.014593
0.014593
0.014593
0.014593
0.014593
0.014593
0.014593
0.014593
0.014593
0.014593
0.014593
0.014593
0.014593
0.014593
0.014593
0.014593
0.014593
0.014593
0.014593
0.014593
0.014593
0.014593
0.014593
0.014593
0.014593
0.014593
0.014593
0.014593
0.014593
0.014593
0.014593
0.014593
0.014593
0.014593
0.014593
0.014593
0.014593
0.014593
0.014593
0.014593
0.014593
0.014593
0.014593
0.014593
0.014593
0.014593
0.014593
0.014593
0.014593
0.014593
0.014593
0.014593
0.014593
0.014593
0.014593
0.014593
0.014593
0.014593
0.014593
0.014593
0.014593
0.014593
0.014593
0.014593
0.014593
0.014593
0.014593
0.014593
0.014593
0.014593
0.014593
0.014593
0.014593
0.014593
0.014593
0.014593
0.014593
0.014593
0.014593
0.014593
0.014593
0.014593
0.014593
0.014593
0.014593
0.014593
0.014593
0.014593
0.014593
0.014593
0.014593
0.014593
0.014593
0.014593
0.014593
0.014593
0.014593
0.014593
0.014593
0.014593
0.014593
0.014593
0.014593
0.014593
0.014593
0.014593
0.014593
0.014593
0.014593
0.014593
0.014593
0.014593
0.014593
0.014593
0.014593
0.014593
0.014593
0.014593
0.014593
0.014593
0.014593
0.014593
0.014593
0.014593
0.014593
0.014593
0.014593
0.014593
0.014593
0.014593
0.014593
0.014593
0.014593
0.014593
0.014593
0.014593
0.014593
0.014593
0.014593
0.014593
0.014593
0.014593
0.014593
0.014593
0.014593
0.014593
0.014593
0.014593
0.014593
0.014593
0.014593
0.014593
0.014593
0.014593
0.014593
0.014593
0.014593
0.014593
0.014593
0.014593
0.014593
0.014593
0.014593
0.014593
0.014593
0.014593
0.014593
0.014593
0.014593
0.014593
0.014593
0.014593
0.014593
0.014593
0.014593
0.014593
0.014593
0.014593
0.014593
0.014593
0.014593
0.014593
0.014593
0.014593
0.014593
0.014593
0.014593
0.014593
0.014593
0.014593
0.014593
0.014593
0.014593
0.014593
0.014593
0.014593
0.014593
0.014593
0.014593
0.014593
0.014593
0.014593
0.014593
0.014593
0.014593
0.014593
0.014593
0.014593
0.014593
0.014593
0.014593
0.014593
0.014593
0.014593
0.014593
0.014593
0.014593
0.014593
0.014593
0.014593
0.014593
0.014593
0.014593
0.014593
0.014593
0.014593
0.014593
0.014593
0.014593
0.014593
0.014593
0.014593
0.014593
0.014593
0.014593
0.014593
0.014593
0.014593
0.014593
0.014593
0.014593
0.014593
0.014593
0.014593
0.014593
0.014593
0.014593
0.014593
0.014593
0.014593
0.014593
0.014593
0.014593
0.014593
0.014593
0.014593
0.014593
0.014593
0.014593
0.014593
0.014593
0.014593
0.014593
0.014593
0.014593
0.014593
0.014593
0.014593
0.014593
0.014593
0.014593
0.014593
0.014593
0.014593
0.014593
0.014593
0.014593
0.014593
0.014593
0.014593
0.014593
0.014593
0.014593
0.014593
0.014593
0.014593
0.014593
0.014593
0.014593
0.014593
0.014593
0.014593
0.014593
0.014593
0.014593
0.014593
0.014593
0.014593
0.014593
0.014593
0.014593
0.014593
0.014593
0.014593
0.014593
0.014593
0.014593
0.014593
0.014593
0.014593
0.014593
0.014593
0.014593
0.014593
0.014593
0.014593
0.014593
0.014593
0.014593
0.014593
0.014593
0.014593
0.014593
0.014593
0.014593
0.014593
0.014593
0.014593
0.014593
0.014593
0.014593
0.014593
0.014593
0.014593
0.014593
0.014593
0.014593
0.014593
0.014593
0.014593
0.014593
0.014593
0.014593
0.014593
0.014593
0.014593
0.014593
0.014593
0.014593
0.014593
0.014593
0.014593
0.014593
0.014593
0.014593
0.014593
0.014593
0.014593
0.014593
0.014593
0.014593
0.014593
0.014593
0.014593
0.014593
0.014593
0.014593
0.014593
0.014593
0.014593
0.014593
0.014593
0.014593
0.014593
0.014593
0.014593
0.014593
0.014593
0.014593
0.014593
0.014593
0.014593
0.014593
0.014593
0.014593
0.014593
0.014593
0.014593
0.014593
0.014593
0.014593
0.014593
0.014593
0.014593
0.014593
0.014593
0.014593
0.014593
0.014593
0.014593
0.014593
0.014593
0.014593
0.014593
0.014593
0.014593
0.014593
0.014593
0.014593
0.014593
0.014593
0.014593
0.014593
0.014593
0.014593
0.014593
0.014593
0.014593
0.014593
0.014593
0.014593
0.014593
0.0145931
0.014593
0.014593
0.014593
0.014593
0.014593
0.014593
0.014593
0.014593
0.014593
0.014593
0.014593
0.014593
0.014593
0.014593
0.014593
0.014593
0.014593
0.014593
0.014593
0.014593
0.014593
0.014593
0.014593
0.014593
0.014593
0.014593
0.014593
0.014593
0.014593
0.014593
0.014593
0.014593
0.014593
0.014593
0.014593
0.014593
0.014593
0.014593
0.014593
0.014593
0.014593
0.014593
0.014593
0.014593
0.0145931
0.0145931
0.0145931
0.0145932
0.0145933
0.0145935
0.014593
0.014593
0.014593
0.014593
0.014593
0.014593
0.014593
0.014593
0.014593
0.014593
0.014593
0.014593
0.014593
0.014593
0.014593
0.014593
0.014593
0.014593
0.014593
0.014593
0.014593
0.014593
0.014593
0.014593
0.014593
0.014593
0.014593
0.014593
0.014593
0.014593
0.014593
0.014593
0.014593
0.014593
0.014593
0.014593
0.014593
0.014593
0.014593
0.014593
0.0145931
0.0145931
0.0145931
0.0145932
0.0145933
0.0145935
0.0145938
0.0145942
0.0145949
0.0145962
0.014593
0.014593
0.014593
0.014593
0.014593
0.014593
0.014593
0.014593
0.014593
0.014593
0.014593
0.014593
0.014593
0.014593
0.014593
0.014593
0.014593
0.014593
0.014593
0.014593
0.014593
0.014593
0.014593
0.014593
0.014593
0.014593
0.014593
0.014593
0.014593
0.014593
0.014593
0.014593
0.014593
0.014593
0.014593
0.014593
0.0145931
0.0145931
0.0145932
0.0145932
0.0145934
0.0145936
0.0145939
0.0145944
0.0145951
0.0145963
0.0145981
0.014601
0.0146056
0.0146136
0.014593
0.014593
0.014593
0.014593
0.014593
0.014593
0.014593
0.014593
0.014593
0.014593
0.014593
0.014593
0.014593
0.014593
0.014593
0.014593
0.014593
0.014593
0.014593
0.014593
0.014593
0.014593
0.014593
0.014593
0.014593
0.014593
0.014593
0.014593
0.014593
0.014593
0.014593
0.0145931
0.0145931
0.0145931
0.0145932
0.0145933
0.0145934
0.0145936
0.014594
0.0145945
0.0145954
0.0145966
0.0145987
0.0146018
0.0146066
0.0146141
0.0146257
0.0146439
0.0146726
0.014722
0.014593
0.014593
0.014593
0.014593
0.014593
0.014593
0.014593
0.014593
0.014593
0.014593
0.014593
0.014593
0.014593
0.014593
0.014593
0.014593
0.014593
0.014593
0.014593
0.014593
0.014593
0.014593
0.014593
0.014593
0.014593
0.014593
0.014593
0.0145931
0.0145931
0.0145931
0.0145932
0.0145933
0.0145935
0.0145937
0.0145941
0.0145947
0.0145956
0.014597
0.0145992
0.0146026
0.0146078
0.0146159
0.0146284
0.0146478
0.0146777
0.0147239
0.0147952
0.0149051
0.0150757
0.015355
0.014593
0.014593
0.014593
0.014593
0.014593
0.014593
0.014593
0.014593
0.014593
0.014593
0.014593
0.014593
0.014593
0.014593
0.014593
0.014593
0.014593
0.014593
0.014593
0.014593
0.014593
0.014593
0.014593
0.0145931
0.0145931
0.0145931
0.0145932
0.0145933
0.0145935
0.0145938
0.0145942
0.0145948
0.0145958
0.0145973
0.0145997
0.0146034
0.014609
0.0146177
0.0146311
0.0146518
0.0146837
0.0147328
0.0148081
0.0149232
0.0150982
0.0153627
0.0157586
0.0163425
0.0171918
0.0184334
0.014593
0.014593
0.014593
0.014593
0.014593
0.014593
0.014593
0.014593
0.014593
0.014593
0.014593
0.014593
0.014593
0.014593
0.014593
0.014593
0.014593
0.014593
0.014593
0.0145931
0.0145931
0.0145932
0.0145932
0.0145934
0.0145935
0.0145938
0.0145943
0.014595
0.014596
0.0145977
0.0146002
0.0146041
0.0146101
0.0146194
0.0146336
0.0146556
0.0146894
0.0147412
0.0148206
0.0149416
0.0151251
0.0154012
0.0158116
0.0164106
0.0172662
0.0184567
0.0200613
0.0221441
0.0247556
0.0279426
0.014593
0.014593
0.014593
0.014593
0.014593
0.014593
0.014593
0.014593
0.014593
0.014593
0.014593
0.014593
0.014593
0.014593
0.0145931
0.0145931
0.0145931
0.0145932
0.0145933
0.0145934
0.0145936
0.0145939
0.0145944
0.0145951
0.0145963
0.014598
0.0146007
0.0146048
0.0146111
0.0146209
0.0146359
0.0146589
0.0146943
0.0147485
0.0148313
0.0149574
0.0151483
0.0154347
0.0158589
0.016476
0.0173541
0.0185692
0.0201921
0.022278
0.024858
0.0279377
0.0314942
0.0354754
0.0398252
0.0444537
0.014593
0.014593
0.014593
0.014593
0.014593
0.014593
0.014593
0.014593
0.014593
0.014593
0.0145931
0.0145931
0.0145931
0.0145932
0.0145933
0.0145934
0.0145936
0.014594
0.0145945
0.0145953
0.0145964
0.0145983
0.0146011
0.0146054
0.0146121
0.0146223
0.0146379
0.0146619
0.0146986
0.0147547
0.0148404
0.0149704
0.0151667
0.0154604
0.0158945
0.0165249
0.0174195
0.018653
0.0202952
0.0223987
0.0249945
0.0280876
0.0316438
0.0355926
0.0398504
0.0443479
0.0489813
0.0536313
0.0582746
0.062924
0.014593
0.014593
0.014593
0.014593
0.014593
0.014593
0.0145931
0.0145931
0.0145931
0.0145932
0.0145933
0.0145934
0.0145937
0.014594
0.0145946
0.0145954
0.0145966
0.0145985
0.0146015
0.014606
0.0146129
0.0146234
0.0146396
0.0146643
0.0147021
0.0147598
0.0148475
0.0149804
0.0151806
0.0154795
0.01592
0.0165578
0.0174604
0.0187015
0.0203514
0.022464
0.0250684
0.0281642
0.0317155
0.0356504
0.039892
0.0443426
0.0488868
0.0534639
0.0580497
0.0626653
0.0672523
0.0717495
0.0760775
0.0801928
0.014593
0.014593
0.0145931
0.0145931
0.0145931
0.0145932
0.0145933
0.0145935
0.0145937
0.0145941
0.0145946
0.0145955
0.0145968
0.0145988
0.0146018
0.0146065
0.0146136
0.0146244
0.014641
0.0146662
0.0147048
0.0147634
0.0148525
0.0149873
0.0151898
0.0154914
0.0159348
0.0165755
0.0174801
0.0187211
0.0203679
0.0224742
0.025067
0.0281414
0.0316635
0.0355731
0.0397898
0.0442182
0.048756
0.0533418
0.0579662
0.0626356
0.0672743
0.0717505
0.0760173
0.0800473
0.0838224
0.0873378
0.0905779
0.0935342
0.0145931
0.0145932
0.0145933
0.0145935
0.0145938
0.0145941
0.0145947
0.0145956
0.014597
0.014599
0.0146021
0.0146069
0.0146142
0.0146252
0.014642
0.0146677
0.0147066
0.0147659
0.0148556
0.014991
0.015194
0.0154958
0.0159387
0.0165774
0.0174777
0.018711
0.0203456
0.0224345
0.0250047
0.0280517
0.0315402
0.0354114
0.0395911
0.043999
0.0485499
0.0531701
0.0578273
0.0624976
0.0671114
0.0715801
0.0758495
0.0798689
0.0836537
0.0872281
0.090556
0.0935787
0.0962433
0.09853
0.100439
0.10203
0.0145938
0.0145942
0.0145948
0.0145957
0.0145971
0.0145992
0.0146025
0.0146073
0.0146147
0.0146259
0.0146429
0.0146687
0.0147079
0.0147673
0.014857
0.014992
0.015194
0.0154936
0.0159325
0.0165645
0.0174541
0.0186718
0.0202851
0.0223464
0.0248836
0.0278932
0.0313418
0.0351721
0.0393122
0.0436848
0.0482148
0.0528313
0.0574755
0.0621016
0.0666711
0.0711357
0.0754351
0.0795198
0.0833887
0.0870546
0.0904885
0.0936357
0.0964412
0.0988707
0.100916
0.102589
0.103929
0.104996
0.105832
0.106507
0.0145973
0.0145995
0.0146028
0.0146078
0.0146153
0.0146266
0.0146438
0.0146697
0.014709
0.0147682
0.0148574
0.0149913
0.015191
0.0154866
0.0159187
0.0165398
0.0174132
0.018608
0.020191
0.0222148
0.0247082
0.0276699
0.0310689
0.0348503
0.0389446
0.0432767
0.0477727
0.052365
0.0569936
0.0616074
0.0661636
0.0706259
0.0749543
0.0791115
0.0830691
0.0868129
0.0903249
0.0935669
0.0964931
0.0990661
0.101256
0.103071
0.104554
0.10575
0.106695
0.107426
0.107981
0.108407
0.10873
0.108989
0.014616
0.0146275
0.0146448
0.0146709
0.0147101
0.0147691
0.0148577
0.01499
0.0151869
0.0154772
0.0159006
0.0165081
0.0173611
0.0185274
0.0200728
0.0220502
0.0244899
0.0273932
0.030732
0.0344547
0.0384945
0.0427784
0.0472343
0.0517956
0.0564029
0.0610053
0.0655596
0.070029
0.0743792
0.0785756
0.0825903
0.0863997
0.0899823
0.0933104
0.0963481
0.0990582
0.10141
0.103398
0.105046
0.106387
0.10745
0.108277
0.108917
0.109411
0.109788
0.110072
0.110281
0.110435
0.110545
0.110628
0.0146725
0.0147119
0.0147708
0.0148588
0.0149897
0.0151836
0.0154685
0.0158826
0.0164751
0.0173056
0.0184401
0.0199431
0.0218678
0.024246
0.0270816
0.0303503
0.0340042
0.0379796
0.042206
0.0466132
0.0511357
0.0557152
0.0603007
0.0648488
0.0693227
0.0736906
0.0779193
0.0819788
0.0858448
0.089496
0.0929096
0.0960552
0.0988984
0.101408
0.103568
0.105381
0.106871
0.108067
0.109012
0.109752
0.110326
0.110765
0.111098
0.111351
0.111542
0.111679
0.111774
0.11184
0.111884
0.111909
0.111908
0.0149918
0.0151834
0.0154636
0.0158691
0.0164472
0.0172554
0.0183575
0.0198165
0.0216854
0.0239972
0.0267588
0.0299495
0.0335255
0.0374268
0.0415857
0.0459342
0.0504083
0.0549507
0.059511
0.0640458
0.068518
0.0728958
0.0771499
0.0812494
0.0851676
0.0888828
0.0923749
0.0956199
0.0985869
0.101244
0.103567
0.105548
0.107198
0.108543
0.10962
0.110469
0.111132
0.111645
0.112039
0.112343
0.112575
0.112747
0.11287
0.112959
0.113024
0.113069
0.113085
0.113072
0.113027
0.112962
0.112878
0.0158649
0.0164311
0.0172195
0.0182915
0.0197084
0.0215221
0.0237666
0.0264512
0.0295589
0.0330501
0.0368688
0.0409508
0.0452305
0.0496457
0.0541403
0.0586649
0.0631764
0.0676376
0.0720167
0.0762855
0.0804162
0.0843801
0.0881537
0.0917172
0.0950507
0.0981291
0.100922
0.103401
0.105549
0.107367
0.10887
0.110089
0.111062
0.111828
0.112427
0.112891
0.113251
0.113528
0.11374
0.113898
0.114015
0.114102
0.114166
0.114208
0.114221
0.114204
0.114159
0.114092
0.114005
0.113902
0.113785
0.113659
0.0196343
0.0213974
0.0235778
0.0261865
0.0292099
0.0326125
0.0363425
0.0403395
0.0445408
0.0488864
0.0533219
0.0577991
0.0622757
0.0667147
0.0710839
0.0753558
0.079505
0.0835042
0.0873275
0.0909539
0.094365
0.0975407
0.100455
0.103079
0.10539
0.107376
0.109044
0.110416
0.111525
0.112407
0.113103
0.113647
0.114071
0.114401
0.114658
0.114855
0.115002
0.115113
0.1152
0.115265
0.115308
0.115316
0.115296
0.115254
0.115191
0.115107
0.115008
0.114895
0.114772
0.114637
0.114492
0.114335
0.0289348
0.0322485
0.0358866
0.0397928
0.0439078
0.048174
0.0525392
0.0569566
0.0613852
0.065789
0.0701359
0.0743981
0.0785511
0.0825713
0.0864323
0.0901108
0.0935878
0.096846
0.0998646
0.102618
0.105079
0.10723
0.109066
0.110599
0.111855
0.112866
0.11367
0.114304
0.114801
0.115191
0.115496
0.115736
0.11592
0.11606
0.116171
0.116259
0.116324
0.116364
0.116372
0.11635
0.116312
0.116253
0.116174
0.116081
0.115976
0.115859
0.115731
0.11559
0.115437
0.115271
0.115093
0.114903
0.0433755
0.0475541
0.0518385
0.0561842
0.0605518
0.0649063
0.0692166
0.073455
0.0775972
0.081621
0.0855038
0.0892207
0.0927507
0.0960766
0.0991813
0.102044
0.104639
0.106943
0.108943
0.11064
0.11205
0.113201
0.114126
0.114862
0.115443
0.1159
0.11626
0.116545
0.116769
0.116942
0.117077
0.117187
0.117277
0.117342
0.117381
0.117388
0.117371
0.117336
0.11728
0.117208
0.117121
0.117024
0.116915
0.116794
0.116659
0.116512
0.116353
0.11618
0.115994
0.115794
0.115582
0.115355
0.0598244
0.0641155
0.0683743
0.0725737
0.0766895
0.0807004
0.0845861
0.0883241
0.0918914
0.0952693
0.098442
0.101393
0.1041
0.106539
0.108692
0.11055
0.112118
0.113416
0.114472
0.11532
0.115995
0.116529
0.11695
0.117285
0.117552
0.117762
0.117926
0.118057
0.118168
0.118258
0.118323
0.118359
0.118367
0.118356
0.118326
0.118275
0.118209
0.11813
0.11804
0.117939
0.117824
0.117697
0.117557
0.117405
0.11724
0.11706
0.116867
0.11666
0.11644
0.116204
0.115955
0.11569
0.0758777
0.0798587
0.0837282
0.0874671
0.0910533
0.094466
0.0976885
0.100706
0.103501
0.106054
0.108341
0.110347
0.112069
0.113517
0.114712
0.115682
0.11646
0.11708
0.117572
0.117962
0.118273
0.118523
0.118721
0.118877
0.119005
0.119117
0.119205
0.119269
0.119306
0.119313
0.119308
0.119283
0.119238
0.119179
0.119109
0.119027
0.118932
0.118824
0.118705
0.118573
0.118428
0.11827
0.118098
0.117912
0.117713
0.117499
0.117271
0.117028
0.116771
0.116498
0.116211
0.115907
0.0902842
0.093712
0.0969652
0.100029
0.102889
0.105528
0.107926
0.110063
0.111927
0.11352
0.114855
0.115953
0.116843
0.117557
0.118127
0.118581
0.118942
0.119232
0.119466
0.11965
0.1198
0.119926
0.120037
0.120123
0.120183
0.120222
0.120234
0.12023
0.120209
0.12017
0.120119
0.120057
0.119982
0.119895
0.119795
0.119683
0.119559
0.119422
0.119271
0.119107
0.118929
0.118738
0.118532
0.118311
0.118077
0.117827
0.117562
0.117282
0.116987
0.116676
0.11635
0.116007
0.10501
0.107491
0.109735
0.111723
0.11345
0.114919
0.116146
0.117153
0.117969
0.118624
0.119147
0.119564
0.119898
0.120168
0.120385
0.120558
0.120701
0.120825
0.120932
0.121017
0.121073
0.121112
0.121129
0.121127
0.12111
0.121077
0.121032
0.120977
0.120909
0.120829
0.120738
0.120634
0.120518
0.120388
0.120245
0.120089
0.119919
0.119736
0.119538
0.119326
0.119099
0.118858
0.118602
0.118331
0.118044
0.117742
0.117424
0.117091
0.116744
0.116384
0.116005
0.113339
0.114931
0.11628
0.117404
0.118325
0.11907
0.119668
0.120147
0.12053
0.120838
0.121088
0.121288
0.12145
0.121586
0.121705
0.121808
0.121889
0.121944
0.121981
0.122002
0.122001
0.121987
0.12196
0.121922
0.121873
0.121811
0.121738
0.121654
0.121558
0.121449
0.121327
0.121193
0.121045
0.120884
0.120708
0.120519
0.120315
0.120097
0.119865
0.119617
0.119355
0.119077
0.118784
0.118475
0.118151
0.117814
0.117462
0.117094
0.116711
0.116313
0.115897
0.118641
0.119479
0.120156
0.120701
0.121136
0.121485
0.121768
0.121997
0.122181
0.122331
0.12246
0.122573
0.122671
0.122745
0.122798
0.122836
0.122857
0.122858
0.122845
0.122824
0.12279
0.122746
0.122691
0.122624
0.122547
0.122457
0.122356
0.122242
0.122115
0.121976
0.121823
0.121656
0.121475
0.12128
0.121071
0.120847
0.120609
0.120355
0.120087
0.119803
0.119504
0.119189
0.118861
0.118518
0.11816
0.117787
0.117399
0.116995
0.116574
0.116138
0.115682
0.122122
0.122439
0.122695
0.122903
0.12307
0.123208
0.123328
0.123435
0.123525
0.123593
0.123642
0.123679
0.123698
0.1237
0.12369
0.123672
0.123642
0.123602
0.123551
0.12349
0.123419
0.123336
0.123241
0.123134
0.123015
0.122883
0.122738
0.12258
0.122408
0.122222
0.122022
0.121807
0.121578
0.121334
0.121074
0.120801
0.120511
0.120206
0.119886
0.119553
0.119205
0.118842
0.118463
0.11807
0.11766
0.117234
0.116792
0.116334
0.115861
0.115368
0.123812
0.12396
0.124085
0.124196
0.124293
0.124376
0.124437
0.124481
0.124516
0.124532
0.124532
0.124525
0.124509
0.124481
0.124444
0.124397
0.124341
0.124274
0.124197
0.124108
0.124008
0.123896
0.123771
0.123634
0.123483
0.123319
0.123142
0.12295
0.122745
0.122525
0.12229
0.122041
0.121776
0.121497
0.121201
0.120891
0.120568
0.12023
0.119876
0.119508
0.119125
0.118725
0.11831
0.117879
0.117432
0.11697
0.116492
0.115998
0.115489
0.11496
0.125068
0.125155
0.125227
0.125281
0.12532
0.125352
0.125363
0.125362
0.125354
0.125338
0.125312
0.125276
0.125232
0.12518
0.125117
0.125043
0.12496
0.124865
0.124759
0.124641
0.124511
0.124368
0.124212
0.124042
0.123859
0.123663
0.123452
0.123226
0.122986
0.122732
0.122462
0.122177
0.121876
0.121563
0.121235
0.120891
0.120533
0.120161
0.119772
0.119367
0.118947
0.118512
0.11806
0.117593
0.117111
0.116613
0.1161
0.115571
0.115027
0.114463
0.126129
0.126163
0.126188
0.126195
0.126191
0.126182
0.126165
0.126138
0.126103
0.126061
0.12601
0.12595
0.12588
0.1258
0.12571
0.125609
0.125497
0.125373
0.125237
0.125088
0.124926
0.124751
0.124563
0.12436
0.124144
0.123913
0.123668
0.123409
0.123134
0.122843
0.122539
0.122221
0.121888
0.12154
0.121178
0.1208
0.120407
0.119998
0.119573
0.119133
0.118677
0.118206
0.11772
0.117218
0.116701
0.116168
0.115621
0.115058
0.114481
0.113884
0.127032
0.127025
0.127014
0.126994
0.126965
0.126929
0.126888
0.126837
0.126778
0.126711
0.126634
0.126547
0.12645
0.126342
0.126224
0.126093
0.125951
0.125796
0.125628
0.125447
0.125253
0.125046
0.124824
0.124588
0.124338
0.124073
0.123793
0.123498
0.12319
0.122867
0.12253
0.122178
0.121811
0.121429
0.12103
0.120617
0.120188
0.119744
0.119284
0.118809
0.118319
0.117814
0.117293
0.116757
0.116207
0.115641
0.115061
0.114466
0.113857
0.113229
0.127828
0.127796
0.127759
0.127716
0.127665
0.127606
0.127539
0.127464
0.127379
0.127285
0.127181
0.127067
0.126941
0.126804
0.126655
0.126494
0.12632
0.126133
0.125933
0.12572
0.125493
0.125252
0.124996
0.124726
0.124441
0.124142
0.12383
0.123503
0.123161
0.122805
0.122434
0.122047
0.121645
0.121227
0.120794
0.120346
0.119883
0.119404
0.118911
0.118402
0.117878
0.117339
0.116786
0.116217
0.115634
0.115037
0.114426
0.1138
0.113161
0.112505
0.12855
0.128497
0.128437
0.12837
0.128295
0.128211
0.128119
0.128017
0.127905
0.127783
0.127651
0.127506
0.127351
0.127183
0.127003
0.126811
0.126605
0.126386
0.126153
0.125906
0.125646
0.12537
0.125081
0.124778
0.124461
0.12413
0.123784
0.123424
0.123048
0.122657
0.122251
0.12183
0.121393
0.120941
0.120474
0.119993
0.119495
0.118983
0.118457
0.117915
0.117359
0.116788
0.116202
0.115603
0.11499
0.114362
0.113722
0.113068
0.112402
0.111719
0.12913
0.129046
0.128954
0.128854
0.128744
0.128624
0.128495
0.128354
0.128203
0.128041
0.127866
0.12768
0.127481
0.127269
0.127044
0.126806
0.126554
0.126288
0.126007
0.125713
0.125406
0.125085
0.124749
0.1244
0.124035
0.123655
0.123261
0.122851
0.122425
0.121985
0.12153
0.12106
0.120575
0.120075
0.11956
0.11903
0.118486
0.117927
0.117354
0.116766
0.116165
0.115549
0.11492
0.114278
0.113624
0.112957
0.112277
0.111585
0.110878
0.129695
0.129585
0.129467
0.129339
0.129202
0.129054
0.128896
0.128726
0.128545
0.128351
0.128146
0.127928
0.127697
0.127453
0.127196
0.126924
0.126638
0.12634
0.126029
0.125703
0.125363
0.12501
0.124641
0.124257
0.123858
0.123444
0.123016
0.122573
0.122114
0.121641
0.121153
0.12065
0.120132
0.1196
0.119053
0.118492
0.117916
0.117327
0.116723
0.116106
0.115476
0.114832
0.114176
0.113508
0.112827
0.112135
0.111431
0.110716
0.109986
0.130188
0.130052
0.129907
0.129751
0.129585
0.129408
0.129219
0.129019
0.128807
0.128583
0.128346
0.128096
0.127833
0.127556
0.127265
0.126963
0.126646
0.126316
0.125973
0.125614
0.125241
0.124854
0.124451
0.124034
0.123602
0.123156
0.122694
0.122218
0.121727
0.121222
0.120702
0.120167
0.119618
0.119054
0.118477
0.117885
0.11728
0.116661
0.116029
0.115385
0.114728
0.114058
0.113376
0.112683
0.111978
0.111263
0.110535
0.109801
0.109051
0.130446
0.130272
0.130088
0.129892
0.129685
0.129466
0.129236
0.128992
0.128736
0.128467
0.128185
0.12789
0.127582
0.127261
0.126927
0.126579
0.126216
0.125839
0.125448
0.125041
0.124621
0.124186
0.123736
0.123272
0.122793
0.122299
0.121791
0.121269
0.120732
0.120181
0.119615
0.119036
0.118443
0.117836
0.117216
0.116583
0.115937
0.115278
0.114608
0.113925
0.113231
0.112525
0.111809
0.111082
0.110346
0.109597
0.108846
0.108078
0.130767
0.130564
0.13035
0.130124
0.129886
0.129637
0.129375
0.1291
0.128812
0.128512
0.128199
0.127873
0.127535
0.127182
0.126815
0.126434
0.126039
0.12563
0.125206
0.124767
0.124315
0.123848
0.123366
0.12287
0.12236
0.121835
0.121296
0.120743
0.120176
0.119595
0.119
0.118392
0.117771
0.117137
0.11649
0.11583
0.115158
0.114475
0.113779
0.113073
0.112356
0.111628
0.11089
0.110145
0.10939
0.108624
0.107856
0.107074
0.130781
0.130537
0.130281
0.130013
0.129731
0.129438
0.129133
0.128815
0.128485
0.128142
0.127785
0.127414
0.127029
0.12663
0.126217
0.12579
0.125348
0.124893
0.124423
0.123939
0.12344
0.122927
0.122401
0.12186
0.121305
0.120736
0.120154
0.119558
0.118949
0.118326
0.117691
0.117043
0.116383
0.11571
0.115026
0.11433
0.113623
0.112905
0.112176
0.111439
0.110691
0.109935
0.109172
0.1084
0.107621
0.106839
0.106044
0.130925
0.13065
0.130363
0.130065
0.129754
0.129432
0.129097
0.128749
0.128387
0.128012
0.127623
0.12722
0.126804
0.126373
0.125929
0.12547
0.124998
0.124511
0.124011
0.123496
0.122967
0.122424
0.121868
0.121298
0.120714
0.120117
0.119507
0.118884
0.118248
0.117599
0.116938
0.116265
0.115579
0.114883
0.114175
0.113456
0.112728
0.111989
0.11124