/*--------------------------------*- C++ -*----------------------------------*\
| =========                 |                                                 |
| \\      /  F ield         | OpenFOAM: The Open Source CFD Toolbox           |
|  \\    /   O peration     | Version:  v1706                                 |
|   \\  /    A nd           | Web:      www.OpenFOAM.com                      |
|    \\/     M anipulation  |                                                 |
\*---------------------------------------------------------------------------*/
FoamFile
{
    version     2.0;
    format      ascii;
    class       volScalarField;
    location    "7e-06";
    object      Mach;
}
// * * * * * * * * * * * * * * * * * * * * * * * * * * * * * * * * * * * * * //

dimensions      [0 0 0 0 0 0 0];


internalField   nonuniform List<scalar> 
30038
(
11.2859
11.2859
11.2859
11.2859
11.2859
11.2859
11.2859
11.2859
11.2859
11.2859
11.2859
11.2859
11.2859
11.2859
11.2859
11.2859
11.2859
11.2859
11.2859
11.2859
11.2859
11.2859
11.2859
11.2859
11.2859
11.2859
11.2859
11.2859
11.2859
11.2859
11.2859
11.2859
11.2859
11.2859
11.2859
11.2859
11.2859
11.2859
11.2859
11.2859
11.2859
11.2859
11.2859
11.2859
11.2859
11.2859
11.2859
11.2859
11.2859
11.2859
11.2859
11.2859
11.2859
11.2859
11.2859
11.2859
11.2859
11.2859
11.2859
11.2859
11.2859
11.2859
11.2859
11.2859
11.2859
11.2859
11.2859
11.2859
11.2859
11.2859
11.2859
11.2859
11.2859
11.2859
11.2859
11.2859
11.2859
11.2859
11.2859
11.2859
11.2859
11.2859
11.2859
11.2859
11.2859
11.2859
11.2859
11.2859
11.2859
11.2859
11.2859
11.2859
11.2859
11.2859
11.2859
11.2859
11.2859
11.2859
11.2859
11.2859
11.2859
11.2859
11.2859
11.2859
11.2859
11.2859
11.2859
11.2859
11.2859
11.2859
11.2859
11.2859
11.2859
11.2859
11.2859
11.2859
11.2859
11.2859
11.2859
11.2859
11.2859
11.2859
11.2859
11.2859
11.2859
11.2859
11.2859
11.2859
11.2859
11.2859
11.2859
11.2859
11.2859
11.2859
11.2859
11.2859
11.2859
11.2859
11.2859
11.2859
11.2859
11.2859
11.2859
11.2859
11.2859
11.2859
11.2859
11.2859
11.2859
11.2859
11.2859
11.2859
11.2859
11.2859
11.2859
11.2859
11.2859
11.2859
11.2859
11.2859
11.2859
11.2859
11.2859
11.2859
11.2859
11.2859
11.2859
11.2859
11.2859
11.2859
11.2859
11.2859
11.2859
11.2859
11.2859
11.2859
11.2859
11.2859
11.2859
11.2859
11.2859
11.2859
11.2859
11.2859
11.2859
11.2859
11.2859
11.2859
11.2859
11.2859
11.2859
11.2859
11.2859
11.2859
11.2859
11.2859
11.2859
11.2859
11.2859
11.2859
11.2859
11.2859
11.2859
11.2859
11.2859
11.2859
11.2859
11.2859
11.2859
11.2859
11.2859
11.2859
11.2859
11.2859
11.2859
11.2859
11.2859
11.2859
11.2859
11.2859
11.2859
11.2859
11.2859
11.2859
11.2859
11.2859
11.2859
11.2859
11.2859
11.2859
11.2859
11.2859
11.2859
11.2859
11.2859
11.2859
11.2859
11.2859
11.2859
11.2859
11.2859
11.2859
11.2859
11.2859
11.2859
11.2859
11.2859
11.2859
11.2859
11.2859
11.2859
11.2859
11.2859
11.2859
11.2859
11.2859
11.2859
11.2859
11.2859
11.2859
11.2859
11.2859
11.2859
11.2859
11.2859
11.2859
11.2859
11.2859
11.2859
11.2859
11.2859
11.2859
11.2859
11.2859
11.2859
11.2859
11.2859
11.2859
11.2859
11.2859
11.2859
11.2859
11.2859
11.2859
11.2859
11.2859
11.2859
11.2859
11.2859
11.2859
11.2859
11.2859
11.2859
11.2859
11.2859
11.2859
11.2859
11.2859
11.2859
11.2859
11.2859
11.2859
11.2859
11.2859
11.2859
11.2859
11.2859
11.2859
11.2859
11.2859
11.2859
11.2859
11.2859
11.2859
11.2859
11.2859
11.2859
11.2859
11.2859
11.2859
11.2859
11.2859
11.2859
11.2859
11.2859
11.2859
11.2859
11.2859
11.2859
11.2859
11.2859
11.2859
11.2859
11.2859
11.2859
11.2859
11.2859
11.2859
11.2859
11.2859
11.2859
11.2859
11.2859
11.2859
11.2859
11.2859
11.2859
11.2859
11.2859
11.2859
11.2859
11.2859
11.2859
11.2859
11.2859
11.2859
11.2859
11.2859
11.2859
11.2859
11.2859
11.2859
11.2859
11.2859
11.2859
11.2859
11.2859
11.2859
11.2859
11.2859
11.2859
11.2859
11.2859
11.2859
11.2859
11.2859
11.2859
11.2859
11.2859
11.2859
11.2859
11.2859
11.2859
11.2859
11.2859
11.2859
11.2859
11.2859
11.2859
11.2859
11.2859
11.2859
11.2859
11.2859
11.2859
11.2859
11.2859
11.2859
11.2859
11.2859
11.2859
11.2859
11.2859
11.2859
11.2859
11.2859
11.2859
11.2859
11.2859
11.2859
11.2859
11.2859
11.2859
11.2859
11.2859
11.2859
11.2859
11.2859
11.2859
11.2859
11.2859
11.2859
11.2859
11.2859
11.2859
11.2859
11.2859
11.2859
11.2859
11.2859
11.2859
11.2859
11.2859
11.2859
11.2859
11.2859
11.2859
11.2859
11.2859
11.2859
11.2859
11.2859
11.2859
11.2859
11.2859
11.2859
11.2859
11.2859
11.2859
11.2859
11.2859
11.2859
11.2859
11.2859
11.2859
11.2859
11.2859
11.2859
11.2859
11.2859
11.2859
11.2859
11.2859
11.2859
11.2859
11.2859
11.2859
11.2859
11.2859
11.2859
11.2859
11.2859
11.2859
11.2859
11.2859
11.2859
11.2859
11.2859
11.2859
11.2859
11.2859
11.2859
11.2859
11.2859
11.2859
11.2859
11.2859
11.2859
11.2859
11.2859
11.2859
11.2859
11.2859
11.2859
11.2859
11.2859
11.2859
11.2859
11.2859
11.2859
11.2859
11.2859
11.2859
11.2859
11.2859
11.2859
11.2859
11.2859
11.2859
11.2859
11.2859
11.2859
11.2859
11.2859
11.2859
11.2859
11.2859
11.2859
11.2859
11.2859
11.2859
11.2859
11.2859
11.2859
11.2859
11.2859
11.2859
11.2859
11.2859
11.2859
11.2859
11.2859
11.2859
11.2859
11.2859
11.2859
11.2859
11.2859
11.2859
11.2859
11.2859
11.2859
11.2859
11.2859
11.2859
11.2859
11.2859
11.2859
11.2859
11.2859
11.2859
11.2859
11.2859
11.2859
11.2859
11.2859
11.2859
11.2859
11.2859
11.2859
11.2859
11.2859
11.2859
11.2859
11.2859
11.2859
11.2859
11.2859
11.2859
11.2859
11.2859
11.2859
11.2859
11.2859
11.2859
11.2859
11.2859
11.2859
11.2859
11.2859
11.2859
11.2859
11.2859
11.2859
11.2859
11.2859
11.2859
11.2859
11.2859
11.2859
11.2859
11.2859
11.2859
11.2859
11.2859
11.2859
11.2859
11.2859
11.2859
11.2859
11.2859
11.2859
11.2859
11.2859
11.2859
11.2859
11.2859
11.2859
11.2859
11.2859
11.2859
11.2859
11.2859
11.2859
11.2859
11.2859
11.2859
11.2859
11.2859
11.2859
11.2859
11.2859
11.2859
11.2859
11.2859
11.2859
11.2859
11.2859
11.2859
11.2859
11.2859
11.2859
11.2859
11.2859
11.2859
11.2859
11.2859
11.2859
11.2859
11.2859
11.2859
11.2859
11.2859
11.2859
11.2859
11.2859
11.2859
11.2859
11.2859
11.2859
11.2859
11.2859
11.2859
11.2859
11.2859
11.2859
11.2859
11.2859
11.2859
11.2859
11.2859
11.2859
11.2859
11.2859
11.2859
11.2859
11.2859
11.2859
11.2859
11.2859
11.2859
11.2859
11.2859
11.2859
11.2859
11.2859
11.2859
11.2859
11.2859
11.2859
11.2859
11.2859
11.2859
11.2859
11.2859
11.2859
11.2859
11.2859
11.2859
11.2859
11.2859
11.2859
11.2859
11.2859
11.2859
11.2859
11.2859
11.2859
11.2859
11.2859
11.2859
11.2859
11.2859
11.2859
11.2859
11.2859
11.2859
11.2859
11.2859
11.2859
11.2859
11.2859
11.2859
11.2859
11.2859
11.2859
11.2859
11.2859
11.2859
11.2859
11.2859
11.2859
11.2859
11.2859
11.2859
11.2859
11.2859
11.2859
11.2859
11.2859
11.2859
11.2859
11.2859
11.2859
11.2859
11.2859
11.2859
11.2859
11.2859
11.2859
11.2859
11.2859
11.2859
11.2859
11.2859
11.2859
11.2859
11.2859
11.2859
11.2859
11.2859
11.2859
11.2859
11.2859
11.2859
11.2859
11.2859
11.2859
11.2859
11.2859
11.2859
11.2859
11.2859
11.2859
11.2859
11.2859
11.2859
11.2859
11.2859
11.2859
11.2859
11.2859
11.2859
11.2859
11.2859
11.2859
11.2859
11.2859
11.2859
11.2859
11.2859
11.2859
11.2859
11.2859
11.2859
11.2859
11.2859
11.2859
11.2859
11.2859
11.2859
11.2859
11.2859
11.2859
11.2859
11.2859
11.2859
11.2859
11.2859
11.2859
11.2859
11.2859
11.2859
11.2859
11.2859
11.2859
11.2859
11.2859
11.2859
11.2859
11.2859
11.2859
11.2859
11.2859
11.2859
11.2859
11.2859
11.2859
11.2859
11.2859
11.2859
11.2859
11.2859
11.2859
11.2859
11.2859
11.2859
11.2859
11.2859
11.2859
11.2859
11.2859
11.2859
11.2859
11.2859
11.2859
11.2859
11.2859
11.2859
11.2859
11.2859
11.2859
11.2859
11.2859
11.2859
11.2859
11.2859
11.2859
11.2859
11.2859
11.2859
11.2859
11.2859
11.2859
11.2859
11.2859
11.2859
11.2859
11.2859
11.2859
11.2859
11.2859
11.2859
11.2859
11.2859
11.2859
11.2859
11.2859
11.2859
11.2859
11.2859
11.2859
11.2859
11.2859
11.2859
11.2859
11.2859
11.2859
11.2859
11.2859
11.2859
11.2859
11.2859
11.2859
11.2859
11.2859
11.2859
11.2859
11.2859
11.2859
11.2859
11.2859
11.2859
11.2859
11.2859
11.2859
11.2859
11.2859
11.2859
11.2859
11.2859
11.2859
11.2859
11.2859
11.2859
11.2859
11.2859
11.2859
11.2859
11.2859
11.2859
11.2859
11.2859
11.2859
11.2859
11.2859
11.2859
11.2859
11.2859
11.2859
11.2859
11.2859
11.2859
11.2859
11.2859
11.2859
11.2859
11.2859
11.2859
11.2859
11.2859
11.2859
11.2859
11.2859
11.2859
11.2859
11.2859
11.2859
11.2859
11.2859
11.2859
11.2859
11.2859
11.2859
11.2859
11.2859
11.2859
11.2859
11.2859
11.2859
11.2859
11.2859
11.2859
11.2859
11.2859
11.2859
11.2859
11.2859
11.2859
11.2859
11.2859
11.2859
11.2859
11.2859
11.2859
11.2859
11.2859
11.2859
11.2859
11.2859
11.2859
11.2859
11.2859
11.2859
11.2859
11.2859
11.2859
11.2859
11.2859
11.2859
11.2859
11.2859
11.2859
11.2859
11.2859
11.2859
11.2859
11.2859
11.2859
11.2859
11.2859
11.2859
11.2859
11.2859
11.2859
11.2859
11.2859
11.2859
11.2859
11.2859
11.2859
11.2859
11.2859
11.2859
11.2859
11.2859
11.2859
11.2859
11.2859
11.2859
11.2859
11.2859
11.2859
11.2859
11.2859
11.2859
11.2859
11.2859
11.2859
11.2859
11.2859
11.2859
11.2859
11.2859
11.2859
11.2859
11.2859
11.2859
11.2859
11.2859
11.2859
11.2859
11.2859
11.2859
11.2859
11.2859
11.2859
11.2859
11.2859
11.2859
11.2859
11.2859
11.2859
11.2859
11.2859
11.2859
11.2859
11.2859
11.2859
11.2859
11.2859
11.2859
11.2859
11.2859
11.2859
11.2859
11.2859
11.2859
11.2859
11.2859
11.2859
11.2859
11.2859
11.2859
11.2859
11.2859
11.2859
11.2859
11.2859
11.2859
11.2859
11.2859
11.2859
11.2859
11.2859
11.2859
11.2859
11.2859
11.2859
11.2859
11.2859
11.2859
11.2859
11.2859
11.2859
11.2859
11.2859
11.2859
11.2859
11.2859
11.2859
11.2859
11.2859
11.2859
11.2859
11.2859
11.2859
11.2859
11.2859
11.2859
11.2859
11.2859
11.2859
11.2859
11.2859
11.2859
11.2859
11.2859
11.2859
11.2859
11.2859
11.2859
11.2859
11.2859
11.2859
11.2859
11.2859
11.2859
11.2859
11.2859
11.2859
11.2859
11.2859
11.2859
11.2859
11.2859
11.2859
11.2859
11.2859
11.2859
11.2859
11.2859
11.2859
11.2859
11.2859
11.2859
11.2859
11.2859
11.2858
11.2858
11.2858
11.2858
11.2859
11.2859
11.2859
11.2859
11.2859
11.2859
11.2859
11.2859
11.2859
11.2859
11.2859
11.2859
11.2859
11.2859
11.2859
11.2859
11.2859
11.2859
11.2859
11.2859
11.2859
11.2859
11.2859
11.2859
11.2859
11.2859
11.2859
11.2859
11.2859
11.2859
11.2859
11.2859
11.2859
11.2859
11.2859
11.2859
11.2859
11.2859
11.2859
11.2859
11.2859
11.2859
11.2858
11.2858
11.2858
11.2858
11.2858
11.2858
11.2857
11.2856
11.2859
11.2859
11.2859
11.2859
11.2859
11.2859
11.2859
11.2859
11.2859
11.2859
11.2859
11.2859
11.2859
11.2859
11.2859
11.2859
11.2859
11.2859
11.2859
11.2859
11.2859
11.2859
11.2859
11.2859
11.2859
11.2859
11.2859
11.2859
11.2859
11.2859
11.2859
11.2859
11.2859
11.2859
11.2859
11.2859
11.2859
11.2859
11.2858
11.2858
11.2858
11.2858
11.2858
11.2857
11.2857
11.2856
11.2854
11.2852
11.2848
11.2841
11.2859
11.2859
11.2859
11.2859
11.2859
11.2859
11.2859
11.2859
11.2859
11.2859
11.2859
11.2859
11.2859
11.2859
11.2859
11.2859
11.2859
11.2859
11.2859
11.2859
11.2859
11.2859
11.2859
11.2859
11.2859
11.2859
11.2859
11.2859
11.2859
11.2859
11.2859
11.2859
11.2859
11.2858
11.2858
11.2858
11.2858
11.2858
11.2858
11.2857
11.2857
11.2855
11.2854
11.2851
11.2847
11.2841
11.2831
11.2815
11.279
11.2746
11.2859
11.2859
11.2859
11.2859
11.2859
11.2859
11.2859
11.2859
11.2859
11.2859
11.2859
11.2859
11.2859
11.2859
11.2859
11.2859
11.2859
11.2859
11.2859
11.2859
11.2859
11.2859
11.2859
11.2859
11.2859
11.2859
11.2859
11.2859
11.2859
11.2858
11.2858
11.2858
11.2858
11.2858
11.2858
11.2857
11.2856
11.2855
11.2853
11.285
11.2846
11.2839
11.2828
11.2811
11.2785
11.2744
11.2681
11.2582
11.2428
11.2164
11.2859
11.2859
11.2859
11.2859
11.2859
11.2859
11.2859
11.2859
11.2859
11.2859
11.2859
11.2859
11.2859
11.2859
11.2859
11.2859
11.2859
11.2859
11.2859
11.2859
11.2859
11.2859
11.2859
11.2859
11.2859
11.2858
11.2858
11.2858
11.2858
11.2858
11.2858
11.2857
11.2856
11.2855
11.2853
11.2849
11.2844
11.2837
11.2825
11.2806
11.2778
11.2734
11.2666
11.2562
11.2401
11.2154
11.1774
11.1195
11.0308
10.8897
11.2859
11.2859
11.2859
11.2859
11.2859
11.2859
11.2859
11.2859
11.2859
11.2859
11.2859
11.2859
11.2859
11.2859
11.2859
11.2859
11.2859
11.2859
11.2859
11.2859
11.2858
11.2858
11.2858
11.2858
11.2858
11.2858
11.2857
11.2857
11.2856
11.2854
11.2852
11.2849
11.2843
11.2835
11.2822
11.2802
11.2771
11.2724
11.2651
11.254
11.2368
11.2105
11.1704
11.1098
11.0191
10.8854
10.6924
10.4224
10.0573
9.57545
11.2859
11.2859
11.2859
11.2859
11.2859
11.2859
11.2859
11.2859
11.2859
11.2859
11.2859
11.2859
11.2859
11.2859
11.2859
11.2859
11.2858
11.2858
11.2858
11.2858
11.2858
11.2858
11.2857
11.2857
11.2856
11.2854
11.2852
11.2848
11.2842
11.2833
11.2819
11.2798
11.2765
11.2715
11.2638
11.2519
11.2337
11.2059
11.1637
11.1
11.0051
10.8661
10.6672
10.3923
10.0276
9.56736
9.01752
8.40114
7.74899
7.09575
11.2859
11.2859
11.2859
11.2859
11.2859
11.2859
11.2859
11.2859
11.2859
11.2859
11.2859
11.2859
11.2858
11.2858
11.2858
11.2858
11.2858
11.2858
11.2857
11.2856
11.2855
11.2854
11.2851
11.2847
11.2841
11.2831
11.2817
11.2794
11.276
11.2706
11.2625
11.25
11.231
11.2019
11.1579
11.0917
10.9932
10.8494
10.6448
10.3632
9.99156
9.52407
8.97125
8.36042
7.72383
7.09252
6.49174
5.93989
5.4428
5.00316
11.2859
11.2859
11.2859
11.2859
11.2859
11.2859
11.2859
11.2859
11.2858
11.2858
11.2858
11.2858
11.2858
11.2858
11.2857
11.2856
11.2855
11.2853
11.2851
11.2846
11.284
11.283
11.2814
11.2791
11.2754
11.2699
11.2614
11.2484
11.2286
11.1986
11.1531
11.0849
10.9838
10.8365
10.6273
10.3403
9.96269
9.49101
8.93649
8.32533
7.69035
7.06252
6.46937
5.92825
5.44379
5.01296
4.62879
4.29177
3.99795
3.74541
11.2859
11.2859
11.2859
11.2859
11.2858
11.2858
11.2858
11.2858
11.2858
11.2858
11.2857
11.2856
11.2855
11.2853
11.285
11.2846
11.2839
11.2828
11.2812
11.2788
11.275
11.2693
11.2605
11.2471
11.2267
11.1958
11.1492
11.0795
10.9765
10.8269
10.615
10.3249
9.94473
9.47212
8.91799
8.307
7.67267
7.04759
6.45777
5.91946
5.43598
5.00094
4.61814
4.28891
4.00247
3.74894
3.52496
3.32953
3.15759
3.00893
11.2858
11.2858
11.2858
11.2858
11.2858
11.2857
11.2857
11.2856
11.2855
11.2853
11.285
11.2845
11.2838
11.2827
11.281
11.2785
11.2746
11.2687
11.2597
11.246
11.2253
11.1938
11.1465
11.0759
10.9717
10.8209
10.6077
10.3167
9.93607
9.46388
8.91154
8.30358
7.67209
7.04883
6.45914
5.91855
5.4325
4.99969
4.61871
4.28883
4.00012
3.74409
3.51967
3.32486
3.15488
3.00457
2.8721
2.75814
2.65955
2.57706
11.2858
11.2857
11.2857
11.2856
11.2854
11.2852
11.2849
11.2844
11.2837
11.2826
11.2809
11.2783
11.2743
11.2683
11.2591
11.2453
11.2242
11.1925
11.1448
11.0738
10.9694
10.8185
10.6056
10.3154
9.9364
9.46661
8.91729
8.31259
7.68416
7.0632
6.47431
5.93291
5.4457
5.01331
4.63167
4.29695
4.0042
3.74662
3.52075
3.32427
3.15077
2.99569
2.86129
2.74454
2.64369
2.55865
2.4887
2.43275
2.38818
2.35384
11.2854
11.2852
11.2849
11.2844
11.2836
11.2824
11.2807
11.278
11.274
11.2679
11.2586
11.2446
11.2235
11.1917
11.144
11.0732
10.9693
10.8193
10.6082
10.3206
9.9453
9.4799
8.9352
8.33469
7.70942
7.09033
6.50196
5.95981
5.47093
5.03621
4.65265
4.3153
4.0191
3.75877
3.52974
3.3285
3.15085
2.99339
2.85552
2.73513
2.63047
2.54097
2.46636
2.40551
2.35729
2.32048
2.29312
2.27321
2.25871
2.24827
11.2835
11.2823
11.2805
11.2778
11.2737
11.2675
11.2582
11.2441
11.2229
11.1912
11.1437
11.0735
10.9707
10.8226
10.6144
10.3311
9.96131
9.50225
8.96392
8.36887
7.74741
7.13016
6.54179
5.99818
5.50684
5.06898
4.68196
4.34115
4.04132
3.77738
3.54466
3.33925
3.1578
2.99737
2.85578
2.73137
2.62246
2.52818
2.44833
2.38238
2.32952
2.28839
2.25714
2.23402
2.21761
2.20649
2.19909
2.19432
2.19159
2.19024
11.2733
11.267
11.2576
11.2435
11.2223
11.1906
11.1435
11.0741
10.9727
10.827
10.6227
10.3448
9.98198
9.53098
9.00073
8.4126
7.79596
7.18106
6.59272
6.04731
5.55289
5.11121
4.72
4.37491
4.07079
3.80263
3.5658
3.35629
3.17074
3.00637
2.86081
2.73217
2.61905
2.52044
2.43579
2.36466
2.3064
2.26006
2.22431
2.19768
2.17854
2.16511
2.15593
2.15005
2.14679
2.14557
2.14564
2.1467
2.14886
2.15168
11.2426
11.2213
11.1897
11.1429
11.0742
10.9742
10.8312
10.631
10.3591
10.0042
9.56247
9.04174
8.46201
7.85151
7.23993
6.6522
6.10519
5.60765
5.16189
4.76612
4.41628
4.10744
3.83462
3.59326
3.37933
3.18945
3.02078
2.871
2.73814
2.62067
2.51752
2.42799
2.35162
2.28796
2.23634
2.19573
2.1648
2.142
2.12572
2.11457
2.10741
2.1032
2.10103
2.10044
2.10119
2.10308
2.106
2.10945
2.11332
2.11718
2.1209
11.073
10.9742
10.8335
10.6372
10.3713
10.0245
9.59255
9.08232
8.51228
7.90935
7.30245
6.71645
6.16868
5.66853
5.21897
4.81872
4.46409
4.1504
3.87278
3.62668
3.40815
3.21374
3.0406
2.8864
2.74916
2.62728
2.51956
2.42517
2.34361
2.27451
2.2174
2.17155
2.13587
2.10899
2.08943
2.07572
2.06657
2.06083
2.0576
2.05641
2.05673
2.05817
2.06056
2.06372
2.06747
2.07174
2.0756
2.0798
2.08343
2.08782
2.09218
10.639
10.3782
10.039
9.6167
9.11733
8.55795
7.96398
7.36338
6.78071
6.23357
5.73195
5.27946
4.87534
4.51634
4.19805
3.91579
3.66508
3.44197
3.24306
3.06545
2.90677
2.7651
2.63877
2.52649
2.42733
2.34069
2.26618
2.20349
2.15212
2.11126
2.0798
2.05637
2.03955
2.02797
2.02042
2.01592
2.01369
2.01323
2.01409
2.01595
2.01893
2.02249
2.02648
2.03051
2.03459
2.03888
2.04293
2.04748
2.05213
2.05659
2.06121
2.0658
9.14138
8.59311
8.00934
7.41677
6.83939
6.29482
5.79347
5.3395
4.93271
4.57027
4.24809
3.96173
3.70683
3.47948
3.27631
3.09444
2.93147
2.78545
2.65475
2.53803
2.43425
2.34271
2.26296
2.19473
2.1377
2.09135
2.05482
2.02696
2.00646
1.99194
1.98215
1.97596
1.9725
1.97111
1.97126
1.97263
1.975
1.97819
1.98193
1.98613
1.99017
1.99445
1.99872
2.00314
2.00778
2.01249
2.01702
2.02187
2.02678
2.03163
2.03646
2.04113
6.88637
6.34677
5.84797
5.39459
4.98689
4.62247
4.29761
4.0081
3.74979
3.51886
3.31196
3.12626
2.95937
2.80933
2.6745
2.55356
2.44541
2.34925
2.26454
2.19099
2.12838
2.07639
2.03446
2.00168
1.97692
1.9589
1.94633
1.93803
1.933
1.9304
1.92972
1.93043
1.93221
1.93498
1.93839
1.94228
1.9464
1.95054
1.95513
1.95924
1.964
1.96882
1.97353
1.97825
1.98319
1.98819
1.99311
1.99804
2.00298
2.0079
2.01284
2.01759
5.0334
4.66901
4.34314
4.05188
3.79132
3.55778
3.348
3.15917
2.98897
2.83543
2.69693
2.57215
2.45999
2.35958
2.27032
2.19183
2.12391
2.06637
2.01889
1.98085
1.95135
1.92927
1.91338
1.90247
1.89544
1.89139
1.88957
1.88945
1.89063
1.89278
1.89584
1.89942
1.90349
1.9075
1.91183
1.91642
1.92076
1.92553
1.93042
1.93512
1.94017
1.94524
1.95026
1.95523
1.96024
1.96526
1.97027
1.97526
1.98025
1.98524
1.99024
1.99507
3.8284
3.59356
3.38202
3.19105
3.01838
2.86208
2.72056
2.59251
2.47685
2.3727
2.27939
2.19648
2.1237
2.06093
2.00801
1.96459
1.93003
1.90342
1.88368
1.86963
1.86014
1.8542
1.85099
1.84984
1.85022
1.8518
1.8543
1.85755
1.86126
1.86537
1.8695
1.87391
1.8785
1.88305
1.88788
1.89276
1.89758
1.90269
1.90785
1.91293
1.91802
1.92311
1.92818
1.93324
1.93829
1.94335
1.9484
1.95344
1.9585
1.96355
1.96862
1.97352
3.04543
2.88733
2.74365
2.61309
2.4946
2.38733
2.29058
2.20385
2.12683
2.05936
2.00138
1.95271
1.91299
1.88157
1.85754
1.83986
1.82742
1.81917
1.81419
1.81167
1.81111
1.81193
1.81384
1.81664
1.82003
1.82389
1.82791
1.83228
1.83684
1.84127
1.84607
1.85094
1.8558
1.86082
1.86598
1.87114
1.87624
1.88139
1.88656
1.89171
1.89683
1.90194
1.90705
1.91215
1.91725
1.92235
1.92745
1.93255
1.93767
1.94278
1.94791
1.95288
2.51159
2.40196
2.30249
2.21266
2.1321
2.06062
1.99815
1.94465
1.89994
1.86364
1.83507
1.81338
1.79755
1.78655
1.7794
1.77526
1.7734
1.77332
1.77453
1.7767
1.77975
1.78326
1.78726
1.79132
1.79571
1.80048
1.80489
1.80976
1.81469
1.81959
1.82475
1.82995
1.83512
1.84028
1.84547
1.85066
1.85583
1.861
1.86617
1.87133
1.87649
1.88163
1.88677
1.89192
1.89706
1.90221
1.90737
1.91253
1.91769
1.92286
1.92805
1.93307
2.06342
1.99721
1.93949
1.89023
1.84924
1.81612
1.79021
1.77066
1.75651
1.74682
1.74066
1.73728
1.73602
1.73638
1.73794
1.74039
1.74361
1.74722
1.75131
1.75549
1.75991
1.76473
1.76925
1.77417
1.77915
1.78414
1.78936
1.79459
1.79977
1.80499
1.81022
1.81544
1.82063
1.82582
1.83102
1.8362
1.84139
1.84658
1.85177
1.85695
1.86213
1.86732
1.8725
1.87769
1.88289
1.88809
1.8933
1.89852
1.9037
1.90889
1.91393
1.83768
1.80023
1.77012
1.74668
1.72913
1.71654
1.70805
1.70282
1.70013
1.69943
1.70019
1.70206
1.70477
1.70811
1.71186
1.71591
1.72032
1.72484
1.72966
1.73429
1.73924
1.74422
1.74936
1.75463
1.75988
1.76511
1.77037
1.77563
1.78086
1.78608
1.7913
1.79652
1.80172
1.80692
1.81213
1.81734
1.82254
1.82776
1.83297
1.83819
1.8434
1.84862
1.85385
1.85908
1.86432
1.86954
1.87476
1.87998
1.88518
1.89039
1.89542
1.70425
1.68858
1.67746
1.6701
1.66574
1.66369
1.66351
1.66466
1.6668
1.66977
1.67322
1.67709
1.68123
1.68569
1.69037
1.69517
1.69994
1.70492
1.70994
1.7152
1.72051
1.72578
1.73107
1.73637
1.74166
1.74692
1.75217
1.75742
1.76265
1.76788
1.7731
1.77831
1.78353
1.78874
1.79396
1.79919
1.80442
1.80966
1.8149
1.82014
1.82539
1.83064
1.83589
1.84113
1.84637
1.85161
1.85683
1.86206
1.86727
1.8725
1.87756
1.6293
1.62789
1.62819
1.62971
1.6321
1.63531
1.63888
1.64289
1.64715
1.65169
1.6564
1.66129
1.66613
1.67119
1.67633
1.68163
1.68696
1.69226
1.69761
1.70297
1.70829
1.71359
1.71887
1.72415
1.7294
1.73465
1.73988
1.74511
1.75034
1.75557
1.76079
1.76602
1.77124
1.77648
1.78172
1.78697
1.79223
1.7975
1.80276
1.80801
1.81327
1.81852
1.82376
1.829
1.83425
1.8395
1.84475
1.84997
1.85521
1.86026
1.59526
1.59792
1.60131
1.60503
1.60919
1.6136
1.61822
1.62299
1.62796
1.63286
1.63794
1.64322
1.64858
1.65395
1.65932
1.66472
1.67011
1.67547
1.68081
1.68614
1.69145
1.69673
1.70201
1.70727
1.71251
1.71775
1.72299
1.72822
1.73345
1.73868
1.74391
1.74915
1.75439
1.75964
1.7649
1.77017
1.77542
1.78068
1.78594
1.79119
1.79644
1.8017
1.80696
1.81222
1.81748
1.82273
1.82799
1.83321
1.83844
1.84349
1.57158
1.57588
1.5804
1.58519
1.59009
1.59511
1.60006
1.60519
1.61059
1.616
1.62142
1.62686
1.63232
1.63776
1.64316
1.64856
1.65393
1.65928
1.6646
1.66991
1.6752
1.68048
1.68574
1.69099
1.69623
1.70147
1.7067
1.71193
1.71717
1.7224
1.72764
1.73288
1.73814
1.74339
1.74864
1.75389
1.75914
1.76439
1.76965
1.77491
1.78017
1.78544
1.7907
1.79597
1.80123
1.80648
1.81173
1.81694
1.82215
1.82718
1.55246
1.55752
1.5626
1.56766
1.57287
1.57837
1.58385
1.58931
1.59484
1.60036
1.60585
1.61132
1.61677
1.6222
1.62759
1.63297
1.63832
1.64365
1.64896
1.65425
1.65953
1.6648
1.67005
1.67529
1.68053
1.68576
1.691
1.69622
1.70146
1.7067
1.71194
1.71717
1.72241
1.72764
1.73288
1.73812
1.74337
1.74863
1.75389
1.75915
1.76441
1.76968
1.77494
1.7802
1.78545
1.79069
1.79592
1.80111
1.8063
1.81129
1.53558
1.54093
1.54652
1.55205
1.55758
1.56319
1.56879
1.57434
1.57988
1.5854
1.59088
1.59634
1.60177
1.60717
1.61255
1.61791
1.62325
1.62856
1.63386
1.63914
1.64441
1.64966
1.6549
1.66014
1.66537
1.6706
1.67583
1.68106
1.68628
1.6915
1.69672
1.70194
1.70715
1.71238
1.71761
1.72286
1.7281
1.73336
1.73861
1.74387
1.74912
1.75438
1.75963
1.76488
1.77011
1.77532
1.78053
1.78568
1.79083
1.79577
1.52055
1.52618
1.53188
1.53754
1.54316
1.54878
1.55437
1.55993
1.56546
1.57096
1.57643
1.58187
1.58728
1.59267
1.59803
1.60337
1.60869
1.61399
1.61928
1.62454
1.6298
1.63504
1.64028
1.64551
1.65074
1.65595
1.66116
1.66637
1.67157
1.67676
1.68196
1.68717
1.69238
1.6976
1.70283
1.70806
1.7133
1.71854
1.72378
1.72902
1.73426
1.7395
1.74473
1.74995
1.75516
1.76033
1.76551
1.7706
1.77569
1.78061
1.50656
1.51227
1.51798
1.52365
1.52928
1.53489
1.54046
1.54601
1.55152
1.557
1.56245
1.56788
1.57327
1.57865
1.584
1.58932
1.59463
1.59991
1.60518
1.61044
1.61568
1.62092
1.62615
1.63135
1.63655
1.64175
1.64693
1.6521
1.65729
1.66247
1.66766
1.67286
1.67806
1.68326
1.68848
1.69369
1.69891
1.70413
1.70936
1.71458
1.71979
1.72501
1.7302
1.73538
1.74055
1.74568
1.7508
1.75591
1.76104
1.76597
1.49888
1.50457
1.51023
1.51586
1.52146
1.52702
1.53255
1.53805
1.54351
1.54895
1.55436
1.55974
1.5651
1.57043
1.57574
1.58103
1.5863
1.59156
1.59681
1.60203
1.60724
1.61244
1.61762
1.62278
1.62795
1.63312
1.63828
1.64345
1.64862
1.65379
1.65897
1.66415
1.66933
1.67452
1.67972
1.68491
1.69011
1.69531
1.70049
1.70567
1.71085
1.716
1.72114
1.7263
1.73145
1.7366
1.74169
1.74679
1.75169
1.48593
1.49161
1.49727
1.50288
1.50846
1.51401
1.51953
1.52501
1.53047
1.53589
1.54128
1.54665
1.55199
1.55731
1.5626
1.56788
1.57314
1.57837
1.58359
1.58878
1.59396
1.59912
1.60428
1.60943
1.61458
1.61972
1.62487
1.63002
1.63516
1.64031
1.64547
1.65062
1.65578
1.66094
1.66611
1.67127
1.67642
1.68158
1.68673
1.69187
1.69701
1.70219
1.70735
1.7125
1.71765
1.72279
1.7278
1.73282
1.73764
1.4734
1.47908
1.48472
1.49033
1.4959
1.50143
1.50694
1.51241
1.51785
1.52325
1.52863
1.53398
1.53931
1.54461
1.54989
1.55514
1.56036
1.56556
1.57074
1.57591
1.58106
1.58621
1.59134
1.59647
1.6016
1.60672
1.61184
1.61696
1.62208
1.6272
1.63232
1.63744
1.64257
1.64769
1.65281
1.65793
1.66305
1.66816
1.67332
1.67848
1.68363
1.6888
1.69395
1.69906
1.70414
1.7092
1.71408
1.71912
1.72382
1.46695
1.47258
1.47818
1.48373
1.48926
1.49475
1.5002
1.50563
1.51102
1.51638
1.52172
1.52702
1.53229
1.53754
1.54275
1.54794
1.55312
1.55828
1.56342
1.56855
1.57367
1.57878
1.58388
1.58898
1.59407
1.59916
1.60424
1.60933
1.61441
1.61949
1.62458
1.62966
1.63473
1.63981
1.64493
1.65006
1.65518
1.66033
1.66548
1.6706
1.67572
1.68079
1.68585
1.69085
1.69583
1.70062
1.70565
1.71023
1.4552
1.46082
1.46641
1.47196
1.47747
1.48294
1.48838
1.49379
1.49917
1.50451
1.50981
1.51508
1.52032
1.52553
1.53072
1.53589
1.54104
1.54617
1.55129
1.55639
1.56148
1.56656
1.57163
1.57669
1.58174
1.5868
1.59184
1.59688
1.60193
1.60696
1.612
1.61706
1.62215
1.62723
1.63233
1.63745
1.64256
1.64765
1.65275
1.65779
1.66286
1.66785
1.67284
1.67782
1.68271
1.68743
1.69236
1.69683
1.44944
1.45501
1.46054
1.46604
1.4715
1.47693
1.48231
1.48766
1.49296
1.49823
1.50347
1.50869
1.51387
1.51904
1.52418
1.5293
1.5344
1.53949
1.54455
1.54961
1.55465
1.55968
1.5647
1.56971
1.57473
1.57972
1.58472
1.58973
1.59477
1.59981
1.60486
1.60993
1.615
1.62006
1.62512
1.63016
1.63519
1.64023
1.64519
1.65023
1.65514
1.66008
1.66498
1.66979
1.67446
1.67927
1.68362
1.4384
1.44396
1.44948
1.45496
1.4604
1.46579
1.47114
1.47645
1.48173
1.48698
1.4922
1.49738
1.50254
1.50768
1.51279
1.51788
1.52294
1.52799
1.53302
1.53803
1.54303
1.54802
1.55299
1.55796
1.56293
1.56793
1.57292
1.57792
1.58294
1.58797
1.59298
1.598
1.60299
1.608
1.61299
1.61798
1.62295
1.62793
1.63281
1.63782
1.64264
1.64753
1.65234
1.65706
1.66166
1.66635
1.67057
1.43323
1.43873
1.44418
1.44959
1.45495
1.46028
1.46557
1.47082
1.47604
1.48123
1.48639
1.49152
1.49661
1.50169
1.50674
1.51176
1.51677
1.52176
1.52672
1.53167
1.53662
1.54159
1.54655
1.55151
1.55649
1.56146
1.56643
1.57139
1.57636
1.58131
1.58627
1.5912
1.59615
1.60109
1.606
1.61093
1.61585
1.62066
1.6256
1.63034
1.63517
1.63987
1.64452
1.64902
1.65358
1.65767
1.4228
1.42826
1.43369
1.43907
1.44441
1.44971
1.45498
1.46021
1.4654
1.47055
1.47568
1.48077
1.48582
1.49086
1.49587
1.50084
1.5058
1.51075
1.51571
1.52065
1.52559
1.53054
1.53548
1.54041
1.54533
1.55024
1.55515
1.56005
1.56496
1.56984
1.57475
1.57962
1.58452
1.58939
1.59425
1.59911
1.60396
1.60871
1.61356
1.61822
1.62297
1.62756
1.63212
1.63651
1.64094
1.6449
1.41263
1.41808
1.42348
1.42884
1.43416
1.43943
1.44467
1.44986
1.45502
1.46013
1.46522
1.47027
1.47528
1.48027
1.48524
1.49021
1.49516
1.50009
1.50503
1.50995
1.51486
1.51975
1.52464
1.52951
1.53437
1.53922
1.54408
1.54892
1.55376
1.55859
1.56344
1.56823
1.5731
1.57788
1.58269
1.58747
1.59225
1.59692
1.60169
1.60626
1.61092
1.61539
1.61985
1.62411
1.6284
1.63222
1.40274
1.40816
1.41354
1.41888
1.42416
1.4294
1.4346
1.43976
1.44488
1.44995
1.45499
1.46002
1.46502
1.47
1.47495
1.47991
1.48483
1.48974
1.49462
1.49949
1.50434
1.50917
1.514
1.51881
1.52361
1.52841
1.5332
1.53799
1.54277
1.54753
1.55233
1.55706
1.56185
1.56656
1.57131
1.576
1.5807
1.5853
1.58996
1.59444
1.59899
1.60335
1.60769
1.61181
1.61593
1.61961
1.3931
1.3985
1.40385
1.40915
1.4144
1.41961
1.42476
1.42989
1.43499
1.44005
1.44508
1.45009
1.45508
1.46003
1.46496
1.46985
1.47473
1.47958
1.4844
1.48921
1.49401
1.49878
1.50355
1.50831
1.51306
1.51779
1.52253
1.52724
1.53197
1.53667
1.5414
1.54605
1.55077
1.55541
1.56008
1.56468
1.5693
1.57381
1.57836
1.58274
1.58717
1.5914
1.59561
1.59958
1.60353
1.60704
1.38369
1.38906
1.39437
1.39964
1.40487
1.41006
1.41521
1.42032
1.4254
1.43045
1.43546
1.44043
1.44537
1.45028
1.45515
1.45999
1.46481
1.46961
1.47438
1.47914
1.48388
1.4886
1.49331
1.498
1.50269
1.50736
1.51204
1.51668
1.52135
1.52597
1.53063
1.53521
1.53985
1.5444
1.54899
1.5535
1.55803
1.56243
1.56688
1.57115
1.57544
1.57953
1.58359
1.5874
1.59116
1.59448
1.37449
1.37985
1.38515
1.39041
1.39563
1.40081
1.40594
1.41103
1.41608
1.42108
1.42604
1.43097
1.43585
1.44071
1.44553
1.45032
1.45509
1.45983
1.46455
1.46925
1.47393
1.47859
1.48324
1.48787
1.49251
1.49711
1.50172
1.50629
1.51089
1.51543
1.52001
1.52452
1.52907
1.53354
1.53803
1.54244
1.54686
1.55116
1.55548
1.55963
1.56378
1.56772
1.57162
1.57525
1.57881
1.58193
1.37092
1.37621
1.38146
1.38665
1.39179
1.39688
1.40193
1.40693
1.41189
1.4168
1.42168
1.42652
1.43132
1.4361
1.44084
1.44555
1.45024
1.4549
1.45954
1.46417
1.46877
1.47335
1.47792
1.48248
1.48701
1.49155
1.49606
1.50057
1.50504
1.50953
1.51396
1.51841
1.52279
1.52718
1.53148
1.53579
1.53998
1.54416
1.54818
1.55217
1.55595
1.55966
1.56311
1.56645
1.56934
1.36222
1.36749
1.37269
1.37785
1.38295
1.388
1.393
1.39796
1.40287
1.40774
1.41257
1.41737
1.42212
1.42684
1.43153
1.43619
1.44082
1.44543
1.45001
1.45457
1.4591
1.46363
1.46812
1.47261
1.47707
1.48153
1.48596
1.49039
1.49478
1.49917
1.50351
1.50786
1.51214
1.51642
1.52062
1.5248
1.52886
1.5329
1.53677
1.54059
1.5442
1.54771
1.55095
1.55406
1.55671
1.3537
1.35893
1.3641
1.36921
1.37428
1.37929
1.38425
1.38917
1.39404
1.39886
1.40364
1.40839
1.41309
1.41776
1.42239
1.427
1.43157
1.43611
1.44063
1.44513
1.44959
1.45405
1.45847
1.46288
1.46727
1.47164
1.47599
1.48033
1.48463
1.48892
1.49317
1.49741
1.50158
1.50574
1.50982
1.51386
1.51779
1.52167
1.52539
1.52902
1.53245
1.53574
1.53877
1.54162
1.54402
1.35053
1.35567
1.36075
1.36577
1.37075
1.37567
1.38054
1.38536
1.39014
1.39488
1.39957
1.40422
1.40884
1.41341
1.41796
1.42247
1.42695
1.4314