/*--------------------------------*- C++ -*----------------------------------*\
| =========                 |                                                 |
| \\      /  F ield         | OpenFOAM: The Open Source CFD Toolbox           |
|  \\    /   O peration     | Version:  v1706                                 |
|   \\  /    A nd           | Web:      www.OpenFOAM.com                      |
|    \\/     M anipulation  |                                                 |
\*---------------------------------------------------------------------------*/
FoamFile
{
    version     2.0;
    format      ascii;
    class       volScalarField;
    location    "7e-06";
    object      mu;
}
// * * * * * * * * * * * * * * * * * * * * * * * * * * * * * * * * * * * * * //

dimensions      [1 -1 -1 0 0 0 0];


internalField   nonuniform List<scalar> 
30038
(
1.0351e-05
1.0351e-05
1.0351e-05
1.0351e-05
1.0351e-05
1.0351e-05
1.0351e-05
1.0351e-05
1.0351e-05
1.0351e-05
1.0351e-05
1.0351e-05
1.0351e-05
1.0351e-05
1.0351e-05
1.0351e-05
1.0351e-05
1.0351e-05
1.0351e-05
1.0351e-05
1.0351e-05
1.0351e-05
1.0351e-05
1.0351e-05
1.0351e-05
1.0351e-05
1.0351e-05
1.0351e-05
1.0351e-05
1.0351e-05
1.0351e-05
1.0351e-05
1.0351e-05
1.0351e-05
1.0351e-05
1.0351e-05
1.0351e-05
1.0351e-05
1.0351e-05
1.0351e-05
1.0351e-05
1.0351e-05
1.0351e-05
1.0351e-05
1.0351e-05
1.0351e-05
1.0351e-05
1.0351e-05
1.0351e-05
1.0351e-05
1.0351e-05
1.0351e-05
1.0351e-05
1.0351e-05
1.0351e-05
1.0351e-05
1.0351e-05
1.0351e-05
1.0351e-05
1.0351e-05
1.0351e-05
1.0351e-05
1.0351e-05
1.0351e-05
1.0351e-05
1.0351e-05
1.0351e-05
1.0351e-05
1.0351e-05
1.0351e-05
1.0351e-05
1.0351e-05
1.0351e-05
1.0351e-05
1.0351e-05
1.0351e-05
1.0351e-05
1.0351e-05
1.0351e-05
1.0351e-05
1.0351e-05
1.0351e-05
1.0351e-05
1.0351e-05
1.0351e-05
1.0351e-05
1.0351e-05
1.0351e-05
1.0351e-05
1.0351e-05
1.0351e-05
1.0351e-05
1.0351e-05
1.0351e-05
1.0351e-05
1.0351e-05
1.0351e-05
1.0351e-05
1.0351e-05
1.0351e-05
1.0351e-05
1.0351e-05
1.0351e-05
1.0351e-05
1.0351e-05
1.0351e-05
1.0351e-05
1.0351e-05
1.0351e-05
1.0351e-05
1.0351e-05
1.0351e-05
1.0351e-05
1.0351e-05
1.0351e-05
1.0351e-05
1.0351e-05
1.0351e-05
1.0351e-05
1.0351e-05
1.0351e-05
1.0351e-05
1.0351e-05
1.0351e-05
1.0351e-05
1.0351e-05
1.0351e-05
1.0351e-05
1.0351e-05
1.0351e-05
1.0351e-05
1.0351e-05
1.0351e-05
1.0351e-05
1.0351e-05
1.0351e-05
1.0351e-05
1.0351e-05
1.0351e-05
1.0351e-05
1.0351e-05
1.0351e-05
1.0351e-05
1.0351e-05
1.0351e-05
1.0351e-05
1.0351e-05
1.0351e-05
1.0351e-05
1.0351e-05
1.0351e-05
1.0351e-05
1.0351e-05
1.0351e-05
1.0351e-05
1.0351e-05
1.0351e-05
1.0351e-05
1.0351e-05
1.0351e-05
1.0351e-05
1.0351e-05
1.0351e-05
1.0351e-05
1.0351e-05
1.0351e-05
1.0351e-05
1.0351e-05
1.0351e-05
1.0351e-05
1.0351e-05
1.0351e-05
1.0351e-05
1.0351e-05
1.0351e-05
1.0351e-05
1.0351e-05
1.0351e-05
1.0351e-05
1.0351e-05
1.0351e-05
1.0351e-05
1.0351e-05
1.0351e-05
1.0351e-05
1.0351e-05
1.0351e-05
1.0351e-05
1.0351e-05
1.0351e-05
1.0351e-05
1.0351e-05
1.0351e-05
1.0351e-05
1.0351e-05
1.0351e-05
1.0351e-05
1.0351e-05
1.0351e-05
1.0351e-05
1.0351e-05
1.0351e-05
1.0351e-05
1.0351e-05
1.0351e-05
1.0351e-05
1.0351e-05
1.0351e-05
1.0351e-05
1.0351e-05
1.0351e-05
1.0351e-05
1.0351e-05
1.0351e-05
1.0351e-05
1.0351e-05
1.0351e-05
1.0351e-05
1.0351e-05
1.0351e-05
1.0351e-05
1.0351e-05
1.0351e-05
1.0351e-05
1.0351e-05
1.0351e-05
1.0351e-05
1.0351e-05
1.0351e-05
1.0351e-05
1.0351e-05
1.0351e-05
1.0351e-05
1.0351e-05
1.0351e-05
1.0351e-05
1.0351e-05
1.0351e-05
1.0351e-05
1.0351e-05
1.0351e-05
1.0351e-05
1.0351e-05
1.0351e-05
1.0351e-05
1.0351e-05
1.0351e-05
1.0351e-05
1.0351e-05
1.0351e-05
1.0351e-05
1.0351e-05
1.0351e-05
1.0351e-05
1.0351e-05
1.0351e-05
1.0351e-05
1.0351e-05
1.0351e-05
1.0351e-05
1.0351e-05
1.0351e-05
1.0351e-05
1.0351e-05
1.0351e-05
1.0351e-05
1.0351e-05
1.0351e-05
1.0351e-05
1.0351e-05
1.0351e-05
1.0351e-05
1.0351e-05
1.0351e-05
1.0351e-05
1.0351e-05
1.0351e-05
1.0351e-05
1.0351e-05
1.0351e-05
1.0351e-05
1.0351e-05
1.0351e-05
1.0351e-05
1.0351e-05
1.0351e-05
1.0351e-05
1.0351e-05
1.0351e-05
1.0351e-05
1.0351e-05
1.0351e-05
1.0351e-05
1.0351e-05
1.0351e-05
1.0351e-05
1.0351e-05
1.0351e-05
1.0351e-05
1.0351e-05
1.0351e-05
1.0351e-05
1.0351e-05
1.0351e-05
1.0351e-05
1.0351e-05
1.0351e-05
1.0351e-05
1.0351e-05
1.0351e-05
1.0351e-05
1.0351e-05
1.0351e-05
1.0351e-05
1.0351e-05
1.0351e-05
1.0351e-05
1.0351e-05
1.0351e-05
1.0351e-05
1.0351e-05
1.0351e-05
1.0351e-05
1.0351e-05
1.0351e-05
1.0351e-05
1.0351e-05
1.0351e-05
1.0351e-05
1.0351e-05
1.0351e-05
1.0351e-05
1.0351e-05
1.0351e-05
1.0351e-05
1.0351e-05
1.0351e-05
1.0351e-05
1.0351e-05
1.0351e-05
1.0351e-05
1.0351e-05
1.0351e-05
1.0351e-05
1.0351e-05
1.0351e-05
1.0351e-05
1.0351e-05
1.0351e-05
1.0351e-05
1.0351e-05
1.0351e-05
1.0351e-05
1.0351e-05
1.0351e-05
1.0351e-05
1.0351e-05
1.0351e-05
1.0351e-05
1.0351e-05
1.0351e-05
1.0351e-05
1.0351e-05
1.0351e-05
1.0351e-05
1.0351e-05
1.0351e-05
1.0351e-05
1.0351e-05
1.0351e-05
1.0351e-05
1.0351e-05
1.0351e-05
1.0351e-05
1.0351e-05
1.0351e-05
1.0351e-05
1.0351e-05
1.0351e-05
1.0351e-05
1.0351e-05
1.0351e-05
1.0351e-05
1.0351e-05
1.0351e-05
1.0351e-05
1.0351e-05
1.0351e-05
1.0351e-05
1.0351e-05
1.0351e-05
1.0351e-05
1.0351e-05
1.0351e-05
1.0351e-05
1.0351e-05
1.0351e-05
1.0351e-05
1.0351e-05
1.0351e-05
1.0351e-05
1.0351e-05
1.0351e-05
1.0351e-05
1.0351e-05
1.0351e-05
1.0351e-05
1.0351e-05
1.0351e-05
1.0351e-05
1.0351e-05
1.0351e-05
1.0351e-05
1.0351e-05
1.0351e-05
1.0351e-05
1.0351e-05
1.0351e-05
1.0351e-05
1.0351e-05
1.0351e-05
1.0351e-05
1.0351e-05
1.0351e-05
1.0351e-05
1.0351e-05
1.0351e-05
1.0351e-05
1.0351e-05
1.0351e-05
1.0351e-05
1.0351e-05
1.0351e-05
1.0351e-05
1.0351e-05
1.0351e-05
1.0351e-05
1.0351e-05
1.0351e-05
1.0351e-05
1.0351e-05
1.0351e-05
1.0351e-05
1.0351e-05
1.0351e-05
1.0351e-05
1.0351e-05
1.0351e-05
1.0351e-05
1.0351e-05
1.0351e-05
1.0351e-05
1.0351e-05
1.0351e-05
1.0351e-05
1.0351e-05
1.0351e-05
1.0351e-05
1.0351e-05
1.0351e-05
1.0351e-05
1.0351e-05
1.0351e-05
1.0351e-05
1.0351e-05
1.0351e-05
1.0351e-05
1.0351e-05
1.0351e-05
1.0351e-05
1.0351e-05
1.0351e-05
1.0351e-05
1.0351e-05
1.0351e-05
1.0351e-05
1.0351e-05
1.0351e-05
1.0351e-05
1.0351e-05
1.0351e-05
1.0351e-05
1.0351e-05
1.0351e-05
1.0351e-05
1.0351e-05
1.0351e-05
1.0351e-05
1.0351e-05
1.0351e-05
1.0351e-05
1.0351e-05
1.0351e-05
1.0351e-05
1.0351e-05
1.0351e-05
1.0351e-05
1.0351e-05
1.0351e-05
1.0351e-05
1.0351e-05
1.0351e-05
1.0351e-05
1.0351e-05
1.0351e-05
1.0351e-05
1.0351e-05
1.0351e-05
1.0351e-05
1.0351e-05
1.0351e-05
1.0351e-05
1.0351e-05
1.0351e-05
1.0351e-05
1.0351e-05
1.0351e-05
1.0351e-05
1.0351e-05
1.0351e-05
1.0351e-05
1.0351e-05
1.0351e-05
1.0351e-05
1.0351e-05
1.0351e-05
1.0351e-05
1.0351e-05
1.0351e-05
1.0351e-05
1.0351e-05
1.0351e-05
1.0351e-05
1.0351e-05
1.0351e-05
1.0351e-05
1.0351e-05
1.0351e-05
1.0351e-05
1.0351e-05
1.0351e-05
1.0351e-05
1.0351e-05
1.0351e-05
1.0351e-05
1.0351e-05
1.0351e-05
1.0351e-05
1.0351e-05
1.0351e-05
1.0351e-05
1.0351e-05
1.0351e-05
1.0351e-05
1.0351e-05
1.0351e-05
1.0351e-05
1.0351e-05
1.0351e-05
1.0351e-05
1.0351e-05
1.0351e-05
1.0351e-05
1.0351e-05
1.0351e-05
1.0351e-05
1.0351e-05
1.0351e-05
1.0351e-05
1.0351e-05
1.0351e-05
1.0351e-05
1.0351e-05
1.0351e-05
1.0351e-05
1.0351e-05
1.0351e-05
1.0351e-05
1.0351e-05
1.0351e-05
1.0351e-05
1.0351e-05
1.0351e-05
1.0351e-05
1.0351e-05
1.0351e-05
1.0351e-05
1.0351e-05
1.0351e-05
1.0351e-05
1.0351e-05
1.0351e-05
1.0351e-05
1.0351e-05
1.0351e-05
1.0351e-05
1.0351e-05
1.0351e-05
1.0351e-05
1.0351e-05
1.0351e-05
1.0351e-05
1.0351e-05
1.0351e-05
1.0351e-05
1.0351e-05
1.0351e-05
1.0351e-05
1.0351e-05
1.0351e-05
1.0351e-05
1.0351e-05
1.0351e-05
1.0351e-05
1.0351e-05
1.0351e-05
1.0351e-05
1.0351e-05
1.0351e-05
1.0351e-05
1.0351e-05
1.0351e-05
1.0351e-05
1.0351e-05
1.0351e-05
1.0351e-05
1.0351e-05
1.0351e-05
1.0351e-05
1.0351e-05
1.0351e-05
1.0351e-05
1.0351e-05
1.0351e-05
1.0351e-05
1.0351e-05
1.0351e-05
1.0351e-05
1.0351e-05
1.0351e-05
1.0351e-05
1.0351e-05
1.0351e-05
1.0351e-05
1.0351e-05
1.0351e-05
1.0351e-05
1.0351e-05
1.0351e-05
1.0351e-05
1.0351e-05
1.0351e-05
1.0351e-05
1.0351e-05
1.0351e-05
1.0351e-05
1.0351e-05
1.0351e-05
1.0351e-05
1.0351e-05
1.0351e-05
1.0351e-05
1.0351e-05
1.0351e-05
1.0351e-05
1.0351e-05
1.0351e-05
1.0351e-05
1.0351e-05
1.0351e-05
1.0351e-05
1.0351e-05
1.0351e-05
1.0351e-05
1.0351e-05
1.0351e-05
1.0351e-05
1.0351e-05
1.0351e-05
1.0351e-05
1.0351e-05
1.0351e-05
1.0351e-05
1.0351e-05
1.0351e-05
1.0351e-05
1.0351e-05
1.0351e-05
1.0351e-05
1.0351e-05
1.0351e-05
1.0351e-05
1.0351e-05
1.0351e-05
1.0351e-05
1.0351e-05
1.0351e-05
1.0351e-05
1.0351e-05
1.0351e-05
1.0351e-05
1.0351e-05
1.0351e-05
1.0351e-05
1.0351e-05
1.0351e-05
1.0351e-05
1.0351e-05
1.0351e-05
1.0351e-05
1.0351e-05
1.0351e-05
1.0351e-05
1.0351e-05
1.0351e-05
1.0351e-05
1.0351e-05
1.0351e-05
1.0351e-05
1.0351e-05
1.0351e-05
1.0351e-05
1.0351e-05
1.0351e-05
1.0351e-05
1.0351e-05
1.0351e-05
1.0351e-05
1.0351e-05
1.0351e-05
1.0351e-05
1.0351e-05
1.0351e-05
1.0351e-05
1.0351e-05
1.0351e-05
1.0351e-05
1.0351e-05
1.0351e-05
1.0351e-05
1.0351e-05
1.0351e-05
1.0351e-05
1.0351e-05
1.0351e-05
1.0351e-05
1.0351e-05
1.0351e-05
1.0351e-05
1.0351e-05
1.0351e-05
1.0351e-05
1.0351e-05
1.0351e-05
1.0351e-05
1.0351e-05
1.0351e-05
1.0351e-05
1.0351e-05
1.0351e-05
1.0351e-05
1.0351e-05
1.0351e-05
1.0351e-05
1.0351e-05
1.0351e-05
1.0351e-05
1.0351e-05
1.0351e-05
1.0351e-05
1.0351e-05
1.0351e-05
1.0351e-05
1.0351e-05
1.0351e-05
1.0351e-05
1.0351e-05
1.0351e-05
1.0351e-05
1.0351e-05
1.0351e-05
1.0351e-05
1.0351e-05
1.0351e-05
1.0351e-05
1.0351e-05
1.0351e-05
1.0351e-05
1.0351e-05
1.0351e-05
1.0351e-05
1.0351e-05
1.0351e-05
1.0351e-05
1.0351e-05
1.0351e-05
1.0351e-05
1.0351e-05
1.0351e-05
1.0351e-05
1.0351e-05
1.0351e-05
1.0351e-05
1.0351e-05
1.0351e-05
1.0351e-05
1.0351e-05
1.0351e-05
1.0351e-05
1.0351e-05
1.0351e-05
1.0351e-05
1.0351e-05
1.0351e-05
1.0351e-05
1.0351e-05
1.0351e-05
1.0351e-05
1.0351e-05
1.0351e-05
1.0351e-05
1.0351e-05
1.0351e-05
1.0351e-05
1.0351e-05
1.0351e-05
1.0351e-05
1.0351e-05
1.0351e-05
1.0351e-05
1.0351e-05
1.0351e-05
1.0351e-05
1.0351e-05
1.0351e-05
1.0351e-05
1.0351e-05
1.0351e-05
1.0351e-05
1.0351e-05
1.0351e-05
1.0351e-05
1.0351e-05
1.0351e-05
1.0351e-05
1.0351e-05
1.0351e-05
1.0351e-05
1.0351e-05
1.0351e-05
1.0351e-05
1.0351e-05
1.0351e-05
1.0351e-05
1.0351e-05
1.0351e-05
1.0351e-05
1.0351e-05
1.0351e-05
1.0351e-05
1.0351e-05
1.0351e-05
1.0351e-05
1.0351e-05
1.0351e-05
1.0351e-05
1.0351e-05
1.0351e-05
1.0351e-05
1.0351e-05
1.0351e-05
1.0351e-05
1.0351e-05
1.0351e-05
1.0351e-05
1.0351e-05
1.0351e-05
1.0351e-05
1.0351e-05
1.0351e-05
1.0351e-05
1.0351e-05
1.0351e-05
1.0351e-05
1.0351e-05
1.0351e-05
1.0351e-05
1.0351e-05
1.0351e-05
1.0351e-05
1.0351e-05
1.0351e-05
1.0351e-05
1.0351e-05
1.0351e-05
1.0351e-05
1.0351e-05
1.0351e-05
1.0351e-05
1.0351e-05
1.0351e-05
1.0351e-05
1.0351e-05
1.0351e-05
1.0351e-05
1.0351e-05
1.0351e-05
1.0351e-05
1.0351e-05
1.0351e-05
1.0351e-05
1.0351e-05
1.0351e-05
1.0351e-05
1.0351e-05
1.0351e-05
1.0351e-05
1.0351e-05
1.0351e-05
1.0351e-05
1.0351e-05
1.0351e-05
1.0351e-05
1.0351e-05
1.0351e-05
1.0351e-05
1.0351e-05
1.0351e-05
1.0351e-05
1.0351e-05
1.0351e-05
1.0351e-05
1.0351e-05
1.0351e-05
1.0351e-05
1.0351e-05
1.0351e-05
1.0351e-05
1.0351e-05
1.0351e-05
1.0351e-05
1.0351e-05
1.0351e-05
1.0351e-05
1.0351e-05
1.0351e-05
1.0351e-05
1.0351e-05
1.0351e-05
1.0351e-05
1.0351e-05
1.0351e-05
1.0351e-05
1.0351e-05
1.0351e-05
1.0351e-05
1.0351e-05
1.0351e-05
1.0351e-05
1.0351e-05
1.0351e-05
1.0351e-05
1.0351e-05
1.0351e-05
1.0351e-05
1.0351e-05
1.0351e-05
1.0351e-05
1.0351e-05
1.0351e-05
1.0351e-05
1.0351e-05
1.0351e-05
1.0351e-05
1.0351e-05
1.0351e-05
1.0351e-05
1.0351e-05
1.0351e-05
1.0351e-05
1.0351e-05
1.0351e-05
1.0351e-05
1.0351e-05
1.0351e-05
1.0351e-05
1.0351e-05
1.0351e-05
1.0351e-05
1.0351e-05
1.0351e-05
1.0351e-05
1.0351e-05
1.0351e-05
1.0351e-05
1.0351e-05
1.0351e-05
1.0351e-05
1.0351e-05
1.0351e-05
1.0351e-05
1.0351e-05
1.0351e-05
1.0351e-05
1.0351e-05
1.0351e-05
1.0351e-05
1.0351e-05
1.0351e-05
1.0351e-05
1.0351e-05
1.0351e-05
1.0351e-05
1.0351e-05
1.0351e-05
1.0351e-05
1.0351e-05
1.0351e-05
1.0351e-05
1.0351e-05
1.0351e-05
1.0351e-05
1.0351e-05
1.0351e-05
1.0351e-05
1.0351e-05
1.0351e-05
1.0351e-05
1.0351e-05
1.0351e-05
1.0351e-05
1.0351e-05
1.0351e-05
1.0351e-05
1.0351e-05
1.0351e-05
1.0351e-05
1.0351e-05
1.0351e-05
1.0351e-05
1.0351e-05
1.0351e-05
1.0351e-05
1.0351e-05
1.0351e-05
1.0351e-05
1.0351e-05
1.0351e-05
1.0351e-05
1.0351e-05
1.0351e-05
1.0351e-05
1.0351e-05
1.0351e-05
1.0351e-05
1.0351e-05
1.0351e-05
1.0351e-05
1.0351e-05
1.0351e-05
1.0351e-05
1.0351e-05
1.0351e-05
1.0351e-05
1.0351e-05
1.0351e-05
1.0351e-05
1.0351e-05
1.0351e-05
1.0351e-05
1.0351e-05
1.0351e-05
1.0351e-05
1.0351e-05
1.0351e-05
1.0351e-05
1.0351e-05
1.0351e-05
1.0351e-05
1.0351e-05
1.0351e-05
1.0351e-05
1.0351e-05
1.0351e-05
1.0351e-05
1.0351e-05
1.0351e-05
1.0351e-05
1.0351e-05
1.0351e-05
1.0351e-05
1.0351e-05
1.0351e-05
1.0351e-05
1.0351e-05
1.0351e-05
1.0351e-05
1.0351e-05
1.0351e-05
1.0351e-05
1.0351e-05
1.0351e-05
1.0351e-05
1.0351e-05
1.0351e-05
1.0351e-05
1.0351e-05
1.0351e-05
1.0351e-05
1.0351e-05
1.0351e-05
1.0351e-05
1.0351e-05
1.0351e-05
1.0351e-05
1.0351e-05
1.0351e-05
1.0351e-05
1.0351e-05
1.0351e-05
1.0351e-05
1.0351e-05
1.0351e-05
1.0351e-05
1.0351e-05
1.0351e-05
1.0351e-05
1.0351e-05
1.0351e-05
1.0351e-05
1.0351e-05
1.0351e-05
1.0351e-05
1.0351e-05
1.0351e-05
1.0351e-05
1.0351e-05
1.0351e-05
1.0351e-05
1.0351e-05
1.0351e-05
1.03511e-05
1.0351e-05
1.0351e-05
1.0351e-05
1.0351e-05
1.0351e-05
1.0351e-05
1.0351e-05
1.0351e-05
1.0351e-05
1.0351e-05
1.0351e-05
1.0351e-05
1.0351e-05
1.0351e-05
1.0351e-05
1.0351e-05
1.0351e-05
1.0351e-05
1.0351e-05
1.0351e-05
1.0351e-05
1.0351e-05
1.0351e-05
1.0351e-05
1.0351e-05
1.0351e-05
1.0351e-05
1.0351e-05
1.0351e-05
1.0351e-05
1.0351e-05
1.0351e-05
1.0351e-05
1.0351e-05
1.0351e-05
1.0351e-05
1.0351e-05
1.0351e-05
1.0351e-05
1.0351e-05
1.0351e-05
1.0351e-05
1.0351e-05
1.0351e-05
1.0351e-05
1.03511e-05
1.03511e-05
1.03511e-05
1.03512e-05
1.03513e-05
1.0351e-05
1.0351e-05
1.0351e-05
1.0351e-05
1.0351e-05
1.0351e-05
1.0351e-05
1.0351e-05
1.0351e-05
1.0351e-05
1.0351e-05
1.0351e-05
1.0351e-05
1.0351e-05
1.0351e-05
1.0351e-05
1.0351e-05
1.0351e-05
1.0351e-05
1.0351e-05
1.0351e-05
1.0351e-05
1.0351e-05
1.0351e-05
1.0351e-05
1.0351e-05
1.0351e-05
1.0351e-05
1.0351e-05
1.0351e-05
1.0351e-05
1.0351e-05
1.0351e-05
1.0351e-05
1.0351e-05
1.0351e-05
1.0351e-05
1.0351e-05
1.0351e-05
1.0351e-05
1.0351e-05
1.03511e-05
1.03511e-05
1.03511e-05
1.03512e-05
1.03514e-05
1.03516e-05
1.03519e-05
1.03524e-05
1.03533e-05
1.0351e-05
1.0351e-05
1.0351e-05
1.0351e-05
1.0351e-05
1.0351e-05
1.0351e-05
1.0351e-05
1.0351e-05
1.0351e-05
1.0351e-05
1.0351e-05
1.0351e-05
1.0351e-05
1.0351e-05
1.0351e-05
1.0351e-05
1.0351e-05
1.0351e-05
1.0351e-05
1.0351e-05
1.0351e-05
1.0351e-05
1.0351e-05
1.0351e-05
1.0351e-05
1.0351e-05
1.0351e-05
1.0351e-05
1.0351e-05
1.0351e-05
1.0351e-05
1.0351e-05
1.0351e-05
1.0351e-05
1.0351e-05
1.0351e-05
1.03511e-05
1.03511e-05
1.03512e-05
1.03513e-05
1.03514e-05
1.03516e-05
1.0352e-05
1.03525e-05
1.03533e-05
1.03546e-05
1.03567e-05
1.03599e-05
1.03656e-05
1.0351e-05
1.0351e-05
1.0351e-05
1.0351e-05
1.0351e-05
1.0351e-05
1.0351e-05
1.0351e-05
1.0351e-05
1.0351e-05
1.0351e-05
1.0351e-05
1.0351e-05
1.0351e-05
1.0351e-05
1.0351e-05
1.0351e-05
1.0351e-05
1.0351e-05
1.0351e-05
1.0351e-05
1.0351e-05
1.0351e-05
1.0351e-05
1.0351e-05
1.0351e-05
1.0351e-05
1.0351e-05
1.0351e-05
1.0351e-05
1.0351e-05
1.0351e-05
1.03511e-05
1.03511e-05
1.03511e-05
1.03512e-05
1.03513e-05
1.03514e-05
1.03517e-05
1.03521e-05
1.03527e-05
1.03536e-05
1.0355e-05
1.03572e-05
1.03606e-05
1.03659e-05
1.03742e-05
1.03871e-05
1.04075e-05
1.04425e-05
1.0351e-05
1.0351e-05
1.0351e-05
1.0351e-05
1.0351e-05
1.0351e-05
1.0351e-05
1.0351e-05
1.0351e-05
1.0351e-05
1.0351e-05
1.0351e-05
1.0351e-05
1.0351e-05
1.0351e-05
1.0351e-05
1.0351e-05
1.0351e-05
1.0351e-05
1.0351e-05
1.0351e-05
1.0351e-05
1.0351e-05
1.0351e-05
1.0351e-05
1.0351e-05
1.0351e-05
1.0351e-05
1.03511e-05
1.03511e-05
1.03511e-05
1.03512e-05
1.03513e-05
1.03515e-05
1.03518e-05
1.03522e-05
1.03528e-05
1.03538e-05
1.03554e-05
1.03578e-05
1.03615e-05
1.03672e-05
1.03761e-05
1.03898e-05
1.0411e-05
1.04438e-05
1.04944e-05
1.05724e-05
1.06934e-05
1.08915e-05
1.0351e-05
1.0351e-05
1.0351e-05
1.0351e-05
1.0351e-05
1.0351e-05
1.0351e-05
1.0351e-05
1.0351e-05
1.0351e-05
1.0351e-05
1.0351e-05
1.0351e-05
1.0351e-05
1.0351e-05
1.0351e-05
1.0351e-05
1.0351e-05
1.0351e-05
1.0351e-05
1.0351e-05
1.0351e-05
1.0351e-05
1.0351e-05
1.03511e-05
1.03511e-05
1.03511e-05
1.03512e-05
1.03514e-05
1.03515e-05
1.03518e-05
1.03523e-05
1.0353e-05
1.03541e-05
1.03558e-05
1.03583e-05
1.03623e-05
1.03685e-05
1.0378e-05
1.03927e-05
1.04154e-05
1.04502e-05
1.05036e-05
1.05852e-05
1.07093e-05
1.08969e-05
1.11778e-05
1.15919e-05
1.21944e-05
1.3075e-05
1.0351e-05
1.0351e-05
1.0351e-05
1.0351e-05
1.0351e-05
1.0351e-05
1.0351e-05
1.0351e-05
1.0351e-05
1.0351e-05
1.0351e-05
1.0351e-05
1.0351e-05
1.0351e-05
1.0351e-05
1.0351e-05
1.0351e-05
1.0351e-05
1.0351e-05
1.0351e-05
1.03511e-05
1.03511e-05
1.03512e-05
1.03513e-05
1.03514e-05
1.03516e-05
1.03519e-05
1.03524e-05
1.03532e-05
1.03543e-05
1.03561e-05
1.03589e-05
1.03631e-05
1.03697e-05
1.03798e-05
1.03954e-05
1.04193e-05
1.04561e-05
1.05124e-05
1.05982e-05
1.07284e-05
1.09243e-05
1.12154e-05
1.16403e-05
1.22471e-05
1.30916e-05
1.42297e-05
1.57071e-05
1.75595e-05
1.982e-05
1.0351e-05
1.0351e-05
1.0351e-05
1.0351e-05
1.0351e-05
1.0351e-05
1.0351e-05
1.0351e-05
1.0351e-05
1.0351e-05
1.0351e-05
1.0351e-05
1.0351e-05
1.0351e-05
1.0351e-05
1.03511e-05
1.03511e-05
1.03511e-05
1.03512e-05
1.03513e-05
1.03514e-05
1.03516e-05
1.0352e-05
1.03525e-05
1.03533e-05
1.03545e-05
1.03564e-05
1.03594e-05
1.03639e-05
1.03708e-05
1.03814e-05
1.03978e-05
1.04229e-05
1.04613e-05
1.05201e-05
1.06095e-05
1.07449e-05
1.0948e-05
1.12489e-05
1.16866e-05
1.23095e-05
1.31714e-05
1.43225e-05
1.58021e-05
1.76321e-05
1.98166e-05
2.23392e-05
2.51631e-05
2.82485e-05
3.15316e-05
1.0351e-05
1.0351e-05
1.0351e-05
1.0351e-05
1.0351e-05
1.0351e-05
1.0351e-05
1.0351e-05
1.0351e-05
1.0351e-05
1.0351e-05
1.03511e-05
1.03511e-05
1.03511e-05
1.03512e-05
1.03513e-05
1.03514e-05
1.03517e-05
1.0352e-05
1.03526e-05
1.03534e-05
1.03547e-05
1.03567e-05
1.03598e-05
1.03645e-05
1.03718e-05
1.03829e-05
1.03999e-05
1.04259e-05
1.04657e-05
1.05265e-05
1.06187e-05
1.07579e-05
1.09663e-05
1.12742e-05
1.17213e-05
1.23559e-05
1.32308e-05
1.43956e-05
1.58876e-05
1.77289e-05
1.99229e-05
2.24454e-05
2.52463e-05
2.82664e-05
3.14565e-05
3.4743e-05
3.80414e-05
4.13349e-05
4.46328e-05
1.0351e-05
1.0351e-05
1.0351e-05
1.0351e-05
1.0351e-05
1.0351e-05
1.0351e-05
1.03511e-05
1.03511e-05
1.03511e-05
1.03512e-05
1.03513e-05
1.03515e-05
1.03517e-05
1.03521e-05
1.03527e-05
1.03536e-05
1.03549e-05
1.0357e-05
1.03602e-05
1.03651e-05
1.03726e-05
1.03841e-05
1.04016e-05
1.04284e-05
1.04693e-05
1.05315e-05
1.06258e-05
1.07678e-05
1.09798e-05
1.12922e-05
1.17447e-05
1.23849e-05
1.32652e-05
1.44355e-05
1.5934e-05
1.77813e-05
1.99772e-05
2.24962e-05
2.52873e-05
2.82959e-05
3.14528e-05
3.4676e-05
3.79226e-05
4.11754e-05
4.44492e-05
4.77029e-05
5.08928e-05
5.39627e-05
5.68817e-05
1.0351e-05
1.0351e-05
1.0351e-05
1.03511e-05
1.03511e-05
1.03511e-05
1.03512e-05
1.03513e-05
1.03515e-05
1.03518e-05
1.03522e-05
1.03528e-05
1.03537e-05
1.03551e-05
1.03573e-05
1.03606e-05
1.03656e-05
1.03733e-05
1.0385e-05
1.04029e-05
1.04303e-05
1.04719e-05
1.05351e-05
1.06307e-05
1.07743e-05
1.09882e-05
1.13028e-05
1.17572e-05
1.23988e-05
1.32791e-05
1.44472e-05
1.59412e-05
1.77803e-05
1.99611e-05
2.24593e-05
2.52324e-05
2.82234e-05
3.13645e-05
3.45832e-05
3.7836e-05
4.11162e-05
4.44282e-05
4.77185e-05
5.08935e-05
5.39201e-05
5.67786e-05
5.94563e-05
6.19498e-05
6.4248e-05
6.6345e-05
1.03511e-05
1.03512e-05
1.03512e-05
1.03514e-05
1.03515e-05
1.03518e-05
1.03522e-05
1.03528e-05
1.03538e-05
1.03553e-05
1.03575e-05
1.03609e-05
1.0366e-05
1.03738e-05
1.03858e-05
1.0404e-05
1.04316e-05
1.04736e-05
1.05372e-05
1.06333e-05
1.07773e-05
1.09914e-05
1.13055e-05
1.17586e-05
1.23971e-05
1.3272e-05
1.44314e-05
1.59131e-05
1.77362e-05
1.98974e-05
2.23718e-05
2.51178e-05
2.80824e-05
3.1209e-05
3.4437e-05
3.77142e-05
4.10176e-05
4.43303e-05
4.76029e-05
5.07727e-05
5.3801e-05
5.6652e-05
5.93367e-05
6.1872e-05
6.42325e-05
6.63765e-05
6.82666e-05
6.98886e-05
7.12424e-05
7.23711e-05
1.03516e-05
1.03519e-05
1.03523e-05
1.03529e-05
1.03539e-05
1.03554e-05
1.03577e-05
1.03612e-05
1.03664e-05
1.03743e-05
1.03864e-05
1.04047e-05
1.04325e-05
1.04746e-05
1.05382e-05
1.0634e-05
1.07773e-05
1.09898e-05
1.13011e-05
1.17494e-05
1.23804e-05
1.32442e-05
1.43884e-05
1.58506e-05
1.76502e-05
1.9785e-05
2.22312e-05
2.4948e-05
2.78846e-05
3.09862e-05
3.41993e-05
3.74739e-05
4.07681e-05
4.40494e-05
4.72907e-05
5.04575e-05
5.35071e-05
5.64044e-05
5.91487e-05
6.17489e-05
6.41846e-05
6.64169e-05
6.8407e-05
7.01302e-05
7.15809e-05
7.27677e-05
7.37182e-05
7.44748e-05
7.50683e-05
7.55468e-05
1.03541e-05
1.03556e-05
1.03579e-05
1.03615e-05
1.03668e-05
1.03748e-05
1.0387e-05
1.04054e-05
1.04333e-05
1.04753e-05
1.05385e-05
1.06335e-05
1.07752e-05
1.09848e-05
1.12913e-05
1.17319e-05
1.23514e-05
1.31989e-05
1.43217e-05
1.57572e-05
1.75258e-05
1.96266e-05
2.20375e-05
2.47197e-05
2.76239e-05
3.06967e-05
3.38858e-05
3.71432e-05
4.04263e-05
4.36989e-05
4.69307e-05
5.00959e-05
5.31661e-05
5.61148e-05
5.8922e-05
6.15775e-05
6.40686e-05
6.63682e-05
6.84438e-05
7.02688e-05
7.18224e-05
7.31094e-05
7.41613e-05
7.50096e-05
7.56802e-05
7.61983e-05
7.65922e-05
7.68942e-05
7.71236e-05
7.73072e-05
1.03673e-05
1.03755e-05
1.03877e-05
1.04062e-05
1.04341e-05
1.04759e-05
1.05387e-05
1.06326e-05
1.07722e-05
1.09782e-05
1.12785e-05
1.17094e-05
1.23144e-05
1.31417e-05
1.42379e-05
1.56405e-05
1.7371e-05
1.94303e-05
2.17986e-05
2.44391e-05
2.73046e-05
3.03432e-05
3.35039e-05
3.67392e-05
4.00073e-05
4.32718e-05
4.65022e-05
4.96725e-05
5.27581e-05
5.57347e-05
5.85824e-05
6.12844e-05
6.38256e-05
6.61862e-05
6.83409e-05
7.02632e-05
7.19316e-05
7.33416e-05
7.45105e-05
7.54615e-05
7.62155e-05
7.6802e-05
7.7256e-05
7.76065e-05
7.78742e-05
7.80753e-05
7.8224e-05
7.8333e-05
7.84107e-05
7.84702e-05
1.04074e-05
1.04353e-05
1.04771e-05
1.05395e-05
1.06324e-05
1.07699e-05
1.0972e-05
1.12657e-05
1.1686e-05
1.22751e-05
1.30798e-05
1.41459e-05
1.55111e-05
1.7198e-05
1.92093e-05
2.15279e-05
2.41196e-05
2.69394e-05
2.99372e-05
3.30633e-05
3.62712e-05
3.95195e-05
4.2772e-05
4.5998e-05
4.91715e-05
5.22697e-05
5.52692e-05
5.81486e-05
6.08908e-05
6.34806e-05
6.59019e-05
6.81332e-05
7.01499e-05
7.19301e-05
7.34618e-05
7.47482e-05
7.58046e-05
7.66532e-05
7.73234e-05
7.78482e-05
7.82555e-05
7.85668e-05
7.88029e-05
7.89826e-05
7.91179e-05
7.92154e-05
7.9283e-05
7.93294e-05
7.93604e-05
7.93787e-05
7.93775e-05
1.06339e-05
1.07698e-05
1.09685e-05
1.12561e-05
1.16662e-05
1.22395e-05
1.30212e-05
1.40561e-05
1.53817e-05
1.70215e-05
1.89803e-05
2.12436e-05
2.378e-05
2.65473e-05
2.94973e-05
3.25817e-05
3.57553e-05
3.89772e-05
4.22119e-05
4.54285e-05
4.86007e-05
5.17059e-05
5.47234e-05
5.76312e-05
6.04105e-05
6.30457e-05
6.55227e-05
6.78244e-05
6.99289e-05
7.18135e-05
7.34612e-05
7.48664e-05
7.60369e-05
7.69911e-05
7.77546e-05
7.83573e-05
7.88277e-05
7.91911e-05
7.94709e-05
7.96865e-05
7.98511e-05
7.99728e-05
8.00602e-05
8.01233e-05
8.01693e-05
8.02016e-05
8.02128e-05
8.02031e-05
8.01716e-05
8.01256e-05
8.00658e-05
1.12532e-05
1.16548e-05
1.2214e-05
1.29744e-05
1.39794e-05
1.52659e-05
1.68579e-05
1.87621e-05
2.09665e-05
2.34428e-05
2.61515e-05
2.90469e-05
3.20825e-05
3.52143e-05
3.84024e-05
4.16118e-05
4.48118e-05
4.79762e-05
5.10823e-05
5.41103e-05
5.70402e-05
5.98518e-05
6.25285e-05
6.50561e-05
6.74207e-05
6.96042e-05
7.15853e-05
7.33437e-05
7.48675e-05
7.61565e-05
7.72227e-05
7.80876e-05
7.87776e-05
7.93213e-05
7.97459e-05
8.00753e-05
8.03301e-05
8.05268e-05
8.06771e-05
8.07889e-05
8.0872e-05
8.09338e-05
8.09793e-05
8.10093e-05
8.10187e-05
8.10066e-05
8.09746e-05
8.09272e-05
8.0865e-05
8.0792e-05
8.07095e-05
8.06195e-05
1.39269e-05
1.51775e-05
1.6724e-05
1.85744e-05
2.0719e-05
2.31324e-05
2.57782e-05
2.86133e-05
3.15934e-05
3.46758e-05
3.78219e-05
4.09976e-05
4.41729e-05
4.73215e-05
5.04207e-05
5.34508e-05
5.63939e-05
5.92306e-05
6.19425e-05
6.45147e-05
6.69343e-05
6.91868e-05
7.1254e-05
7.31154e-05
7.47541e-05
7.61629e-05
7.73463e-05
7.83197e-05
7.91059e-05
7.97319e-05
8.02251e-05
8.06111e-05
8.09118e-05
8.11459e-05
8.13282e-05
8.14681e-05
8.15724e-05
8.16514e-05
8.17129e-05
8.17592e-05
8.17891e-05
8.17951e-05
8.17809e-05
8.17514e-05
8.17061e-05
8.16468e-05
8.15768e-05
8.14966e-05
8.14089e-05
8.13137e-05
8.12109e-05
8.10994e-05
2.05238e-05
2.28743e-05
2.54548e-05
2.82256e-05
3.11443e-05
3.41705e-05
3.72667e-05
4.04e-05
4.35413e-05
4.6665e-05
4.97483e-05
5.27715e-05
5.57172e-05
5.85688e-05
6.13075e-05
6.39167e-05
6.6383e-05
6.86941e-05
7.08352e-05
7.2788e-05
7.45338e-05
7.60593e-05
7.73617e-05
7.84493e-05
7.93399e-05
8.0057e-05
8.06274e-05
8.10771e-05
8.143e-05
8.17062e-05
8.19231e-05
8.20932e-05
8.22238e-05
8.23231e-05
8.24014e-05
8.24639e-05
8.25103e-05
8.25382e-05
8.25439e-05
8.25283e-05
8.25016e-05
8.24595e-05
8.24038e-05
8.23379e-05
8.22631e-05
8.21804e-05
8.20897e-05
8.19896e-05
8.18807e-05
8.17629e-05
8.16371e-05
8.15018e-05
3.07668e-05
3.37307e-05
3.67697e-05
3.98522e-05
4.29501e-05
4.60388e-05
4.90962e-05
5.21025e-05
5.50406e-05
5.78948e-05
6.06489e-05
6.32854e-05
6.57893e-05
6.81483e-05
7.03506e-05
7.2381e-05
7.42215e-05
7.58559e-05
7.72745e-05
7.84783e-05
7.94788e-05
8.02951e-05
8.09511e-05
8.14728e-05
8.18849e-05
8.22091e-05
8.24646e-05
8.26667e-05
8.28258e-05
8.29484e-05
8.30442e-05
8.31224e-05
8.31862e-05
8.32324e-05
8.32595e-05
8.32649e-05
8.32525e-05
8.32277e-05
8.31883e-05
8.31369e-05
8.30756e-05
8.30066e-05
8.29293e-05
8.28432e-05
8.27478e-05
8.26436e-05
8.25306e-05
8.24082e-05
8.22762e-05
8.21344e-05
8.19837e-05
8.18226e-05
4.24342e-05
4.54779e-05
4.84987e-05
5.14774e-05
5.43968e-05
5.72418e-05
5.9998e-05
6.26494e-05
6.51797e-05
6.75757e-05
6.98262e-05
7.19191e-05
7.38392e-05
7.55697e-05
7.70967e-05
7.84142e-05
7.95265e-05
8.04473e-05
8.11965e-05
8.1798e-05
8.22764e-05
8.26552e-05
8.29545e-05
8.31918e-05
8.33809e-05
8.35303e-05
8.36462e-05
8.37396e-05
8.38182e-05
8.38818e-05
8.39278e-05
8.39537e-05
8.39595e-05
8.39513e-05
8.39301e-05
8.38942e-05
8.38472e-05
8.37912e-05
8.37276e-05
8.36555e-05
8.35742e-05
8.3484e-05
8.3385e-05
8.3277e-05
8.31596e-05
8.30324e-05
8.28955e-05
8.27487e-05
8.2592e-05
8.24248e-05
8.22481e-05
8.20602e-05
5.3821e-05
5.66448e-05
5.93894e-05
6.20415e-05
6.45852e-05
6.70059e-05
6.92917e-05
7.1432e-05
7.34149e-05
7.52251e-05
7.68474e-05
7.82706e-05
7.94921e-05
8.0519e-05
8.13664e-05
8.20544e-05
8.26065e-05
8.30462e-05
8.33951e-05
8.36718e-05
8.38928e-05
8.407e-05
8.421e-05
8.43206e-05
8.4412e-05
8.44914e-05
8.45535e-05
8.45987e-05
8.46252e-05
8.46305e-05
8.46264e-05
8.46089e-05
8.45769e-05
8.45351e-05
8.44853e-05
8.4427e-05
8.43599e-05
8.42835e-05
8.41987e-05
8.41052e-05
8.40025e-05
8.38901e-05
8.37682e-05
8.36367e-05
8.34952e-05
8.33436e-05
8.31817e-05
8.30095e-05
8.28269e-05
8.26333e-05
8.24296e-05
8.22142e-05
6.40397e-05
6.64711e-05
6.87786e-05
7.09517e-05
7.29803e-05
7.48523e-05
7.6553e-05
7.80687e-05
7.93914e-05
8.05214e-05
8.14678e-05
8.22467e-05
8.28782e-05
8.3385e-05
8.37892e-05
8.41107e-05
8.43669e-05
8.4573e-05
8.47385e-05
8.48695e-05
8.49754e-05
8.50651e-05
8.51436e-05
8.52048e-05
8.52471e-05
8.52751e-05
8.52837e-05
8.52806e-05
8.52661e-05
8.52382e-05
8.52016e-05
8.51576e-05
8.51048e-05
8.5043e-05
8.49723e-05
8.4893e-05
8.48049e-05
8.47074e-05
8.46005e-05
8.44842e-05
8.43581e-05
8.42221e-05
8.40761e-05
8.39198e-05
8.37532e-05
8.35762e-05
8.33884e-05
8.31898e-05
8.29807e-05
8.276e-05
8.25286e-05
8.2285e-05
7.4485e-05
7.6245e-05
7.78361e-05
7.92466e-05
8.04714e-05
8.15135e-05
8.23836e-05
8.3098e-05
8.36768e-05
8.41413e-05
8.45123e-05
8.48081e-05
8.50451e-05
8.52367e-05
8.53908e-05
8.55134e-05
8.56149e-05
8.57025e-05
8.57789e-05
8.58387e-05
8.58785e-05
8.5906e-05
8.59183e-05
8.59166e-05
8.59046e-05
8.58815e-05
8.58495e-05
8.58104e-05
8.57625e-05
8.57056e-05
8.56406e-05
8.55671e-05
8.54846e-05
8.53927e-05
8.52914e-05
8.51807e-05
8.50604e-05
8.49301e-05
8.47899e-05
8.46395e-05
8.44787e-05
8.43076e-05
8.41259e-05
8.39334e-05
8.37302e-05
8.35158e-05
8.32902e-05
8.30538e-05
8.28081e-05
8.25525e-05
8.22839e-05
8.03927e-05
8.15219e-05
8.24791e-05
8.3276e-05
8.39291e-05
8.44578e-05
8.48823e-05
8.52218e-05
8.54932e-05
8.57117e-05
8.5889e-05
8.60314e-05
8.61457e-05
8.62422e-05
8.63272e-05
8.64001e-05
8.64576e-05
8.64963e-05
8.65228e-05
8.65374e-05
8.65367e-05
8.65266e-05
8.65079e-05
8.64805e-05
8.64457e-05
8.64022e-05
8.63502e-05
8.62904e-05
8.62223e-05
8.61451e-05
8.6059e-05
8.59636e-05
8.58588e-05
8.57443e-05
8.56199e-05
8.54856e-05
8.53412e-05
8.51866e-05
8.50215e-05
8.4846e-05
8.46598e-05
8.44629e-05
8.42551e-05
8.4036e-05
8.3806e-05
8.35666e-05
8.3317e-05
8.30565e-05
8.27847e-05
8.25025e-05
8.22071e-05
8.41535e-05
8.47477e-05
8.52284e-05
8.56144e-05
8.59235e-05
8.61712e-05
8.63714e-05
8.65342e-05
8.66648e-05
8.67709e-05
8.68621e-05
8.69429e-05
8.7012e-05
8.70646e-05
8.71024e-05
8.71289e-05
8.7144e-05
8.71444e-05
8.71358e-05
8.71203e-05
8.70966e-05
8.70653e-05
8.7026e-05
8.69788e-05
8.69238e-05
8.68606e-05
8.67885e-05
8.67076e-05
8.66179e-05
8.65189e-05
8.64103e-05
8.6292e-05
8.61639e-05
8.60257e-05
8.58772e-05
8.57185e-05
8.55494e-05
8.53696e-05
8.51792e-05
8.49781e-05
8.47657e-05
8.45424e-05
8.43093e-05
8.40664e-05
8.38126e-05
8.35478e-05
8.32723e-05
8.29859e-05
8.26874e-05
8.23779e-05
8.2055e-05
8.66229e-05
8.68472e-05
8.7029e-05
8.71768e-05
8.72949e-05
8.73928e-05
8.74781e-05
8.75536e-05
8.76179e-05
8.7666e-05
8.77005e-05
8.77272e-05
8.77408e-05
8.77418e-05
8.7735e-05
8.77221e-05
8.77011e-05
8.76724e-05
8.76364e-05
8.75932e-05
8.75425e-05
8.74837e-05
8.74165e-05
8.73408e-05
8.72564e-05
8.71628e-05
8.70599e-05
8.69475e-05
8.68255e-05
8.66935e-05
8.65515e-05
8.63992e-05
8.62366e-05
8.60635e-05
8.58797e-05
8.56854e-05
8.54798e-05
8.52634e-05
8.50367e-05
8.48006e-05
8.45537e-05
8.4296e-05
8.40276e-05