/*--------------------------------*- C++ -*----------------------------------*\
| =========                 |                                                 |
| \\      /  F ield         | OpenFOAM: The Open Source CFD Toolbox           |
|  \\    /   O peration     | Version:  v1706                                 |
|   \\  /    A nd           | Web:      www.OpenFOAM.com                      |
|    \\/     M anipulation  |                                                 |
\*---------------------------------------------------------------------------*/
FoamFile
{
    version     2.0;
    format      ascii;
    class       volScalarField;
    location    "7e-06";
    object      p;
}
// * * * * * * * * * * * * * * * * * * * * * * * * * * * * * * * * * * * * * //

dimensions      [1 -1 -2 0 0 0 0];


internalField   nonuniform List<scalar> 
30038
(
21.9139
21.9139
21.9139
21.9139
21.9139
21.9139
21.9139
21.9139
21.9139
21.9139
21.9139
21.9139
21.9139
21.9139
21.9139
21.9139
21.9139
21.9139
21.9139
21.9139
21.9139
21.9139
21.9139
21.9139
21.9139
21.9139
21.9139
21.9139
21.9139
21.9139
21.9139
21.9139
21.9139
21.9139
21.9139
21.9139
21.9139
21.9139
21.9139
21.9139
21.9139
21.9139
21.9139
21.9139
21.9139
21.9139
21.9139
21.9139
21.9139
21.9139
21.9139
21.9139
21.9139
21.9139
21.9139
21.9139
21.9139
21.9139
21.9139
21.9139
21.9139
21.9139
21.9139
21.9139
21.9139
21.9139
21.9139
21.9139
21.9139
21.9139
21.9139
21.9139
21.9139
21.9139
21.9139
21.9139
21.9139
21.9139
21.9139
21.9139
21.9139
21.9139
21.9139
21.9139
21.9139
21.9139
21.9139
21.9139
21.9139
21.9139
21.9139
21.9139
21.9139
21.9139
21.9139
21.9139
21.9139
21.9139
21.9139
21.9139
21.9139
21.9139
21.9139
21.9139
21.9139
21.9139
21.9139
21.9139
21.9139
21.9139
21.9139
21.9139
21.9139
21.9139
21.9139
21.9139
21.9139
21.9139
21.9139
21.9139
21.9139
21.9139
21.9139
21.9139
21.9139
21.9139
21.9139
21.9139
21.9139
21.9139
21.9139
21.9139
21.9139
21.9139
21.9139
21.9139
21.9139
21.9139
21.9139
21.9139
21.9139
21.9139
21.9139
21.9139
21.9139
21.9139
21.9139
21.9139
21.9139
21.9139
21.9139
21.9139
21.9139
21.9139
21.9139
21.9139
21.9139
21.9139
21.9139
21.9139
21.9139
21.9139
21.9139
21.9139
21.9139
21.9139
21.9139
21.9139
21.9139
21.9139
21.9139
21.9139
21.9139
21.9139
21.9139
21.9139
21.9139
21.9139
21.9139
21.9139
21.9139
21.9139
21.9139
21.9139
21.9139
21.9139
21.9139
21.9139
21.9139
21.9139
21.9139
21.9139
21.9139
21.9139
21.9139
21.9139
21.9139
21.9139
21.9139
21.9139
21.9139
21.9139
21.9139
21.9139
21.9139
21.9139
21.9139
21.9139
21.9139
21.9139
21.9139
21.9139
21.9139
21.9139
21.9139
21.9139
21.9139
21.9139
21.9139
21.9139
21.9139
21.9139
21.9139
21.9139
21.9139
21.9139
21.9139
21.9139
21.9139
21.9139
21.9139
21.9139
21.9139
21.9139
21.9139
21.9139
21.9139
21.9139
21.9139
21.9139
21.9139
21.9139
21.9139
21.9139
21.9139
21.9139
21.9139
21.9139
21.9139
21.9139
21.9139
21.9139
21.9139
21.9139
21.9139
21.9139
21.9139
21.9139
21.9139
21.9139
21.9139
21.9139
21.9139
21.9139
21.9139
21.9139
21.9139
21.9139
21.9139
21.9139
21.9139
21.9139
21.9139
21.9139
21.9139
21.9139
21.9139
21.9139
21.9139
21.9139
21.9139
21.9139
21.9139
21.9139
21.9139
21.9139
21.9139
21.9139
21.9139
21.9139
21.9139
21.9139
21.9139
21.9139
21.9139
21.9139
21.9139
21.9139
21.9139
21.9139
21.9139
21.9139
21.9139
21.9139
21.9139
21.9139
21.9139
21.9139
21.9139
21.9139
21.9139
21.9139
21.9139
21.9139
21.9139
21.9139
21.9139
21.9139
21.9139
21.9139
21.9139
21.9139
21.9139
21.9139
21.9139
21.9139
21.9139
21.9139
21.9139
21.9139
21.9139
21.9139
21.9139
21.9139
21.9139
21.9139
21.9139
21.9139
21.9139
21.9139
21.9139
21.9139
21.9139
21.9139
21.9139
21.9139
21.9139
21.9139
21.9139
21.9139
21.9139
21.9139
21.9139
21.9139
21.9139
21.9139
21.9139
21.9139
21.9139
21.9139
21.9139
21.9139
21.9139
21.9139
21.9139
21.9139
21.9139
21.9139
21.9139
21.9139
21.9139
21.9139
21.9139
21.9139
21.9139
21.9139
21.9139
21.9139
21.9139
21.9139
21.9139
21.9139
21.9139
21.9139
21.9139
21.9139
21.9139
21.9139
21.9139
21.9139
21.9139
21.9139
21.9139
21.9139
21.9139
21.9139
21.9139
21.9139
21.9139
21.9139
21.9139
21.9139
21.9139
21.9139
21.9139
21.9139
21.9139
21.9139
21.9139
21.9139
21.9139
21.9139
21.9139
21.9139
21.9139
21.9139
21.9139
21.9139
21.9139
21.9139
21.9139
21.9139
21.9139
21.9139
21.9139
21.9139
21.9139
21.9139
21.9139
21.9139
21.9139
21.9139
21.9139
21.9139
21.9139
21.9139
21.9139
21.9139
21.9139
21.9139
21.9139
21.9139
21.9139
21.9139
21.9139
21.9139
21.9139
21.9139
21.9139
21.9139
21.9139
21.9139
21.9139
21.9139
21.9139
21.9139
21.9139
21.9139
21.9139
21.9139
21.9139
21.9139
21.9139
21.9139
21.9139
21.9139
21.9139
21.9139
21.9139
21.9139
21.9139
21.9139
21.9139
21.9139
21.9139
21.9139
21.9139
21.9139
21.9139
21.9139
21.9139
21.9139
21.9139
21.9139
21.9139
21.9139
21.9139
21.9139
21.9139
21.9139
21.9139
21.9139
21.9139
21.9139
21.9139
21.9139
21.9139
21.9139
21.9139
21.9139
21.9139
21.9139
21.9139
21.9139
21.9139
21.9139
21.9139
21.9139
21.9139
21.9139
21.9139
21.9139
21.9139
21.9139
21.9139
21.9139
21.9139
21.9139
21.9139
21.9139
21.9139
21.9139
21.9139
21.9139
21.9139
21.9139
21.9139
21.9139
21.9139
21.9139
21.9139
21.9139
21.9139
21.9139
21.9139
21.9139
21.9139
21.9139
21.9139
21.9139
21.9139
21.9139
21.9139
21.9139
21.9139
21.9139
21.9139
21.9139
21.9139
21.9139
21.9139
21.9139
21.9139
21.9139
21.9139
21.9139
21.9139
21.9139
21.9139
21.9139
21.9139
21.9139
21.9139
21.9139
21.9139
21.9139
21.9139
21.9139
21.9139
21.9139
21.9139
21.9139
21.9139
21.9139
21.9139
21.9139
21.9139
21.9139
21.9139
21.9139
21.9139
21.9139
21.9139
21.9139
21.9139
21.9139
21.9139
21.9139
21.9139
21.9139
21.9139
21.9139
21.9139
21.9139
21.9139
21.9139
21.9139
21.9139
21.9139
21.9139
21.9139
21.9139
21.9139
21.9139
21.9139
21.9139
21.9139
21.9139
21.9139
21.9139
21.9139
21.9139
21.9139
21.9139
21.9139
21.9139
21.9139
21.9139
21.9139
21.9139
21.9139
21.9139
21.9139
21.9139
21.9139
21.9139
21.9139
21.9139
21.9139
21.9139
21.9139
21.9139
21.9139
21.9139
21.9139
21.9139
21.9139
21.9139
21.9139
21.9139
21.9139
21.9139
21.9139
21.9139
21.9139
21.9139
21.9139
21.9139
21.9139
21.9139
21.9139
21.9139
21.9139
21.9139
21.9139
21.9139
21.9139
21.9139
21.9139
21.9139
21.9139
21.9139
21.9139
21.9139
21.9139
21.9139
21.9139
21.9139
21.9139
21.9139
21.9139
21.9139
21.9139
21.9139
21.9139
21.9139
21.9139
21.9139
21.9139
21.9139
21.9139
21.9139
21.9139
21.9139
21.9139
21.9139
21.9139
21.9139
21.9139
21.9139
21.9139
21.9139
21.9139
21.9139
21.9139
21.9139
21.9139
21.9139
21.9139
21.9139
21.9139
21.9139
21.9139
21.9139
21.9139
21.9139
21.9139
21.9139
21.9139
21.9139
21.9139
21.9139
21.9139
21.9139
21.9139
21.9139
21.9139
21.9139
21.9139
21.9139
21.9139
21.9139
21.9139
21.9139
21.9139
21.9139
21.9139
21.9139
21.9139
21.9139
21.9139
21.9139
21.9139
21.9139
21.9139
21.9139
21.9139
21.9139
21.9139
21.9139
21.9139
21.9139
21.9139
21.9139
21.9139
21.9139
21.9139
21.9139
21.9139
21.9139
21.9139
21.9139
21.9139
21.9139
21.9139
21.9139
21.9139
21.9139
21.9139
21.9139
21.9139
21.9139
21.9139
21.9139
21.9139
21.9139
21.9139
21.9139
21.9139
21.9139
21.9139
21.9139
21.9139
21.9139
21.9139
21.9139
21.9139
21.9139
21.9139
21.9139
21.9139
21.9139
21.9139
21.9139
21.9139
21.9139
21.9139
21.9139
21.9139
21.9139
21.9139
21.9139
21.9139
21.9139
21.9139
21.9139
21.9139
21.9139
21.9139
21.9139
21.9139
21.9139
21.9139
21.9139
21.9139
21.9139
21.9139
21.9139
21.9139
21.9139
21.9139
21.9139
21.9139
21.9139
21.9139
21.9139
21.9139
21.9139
21.9139
21.9139
21.9139
21.9139
21.9139
21.9139
21.9139
21.9139
21.9139
21.9139
21.9139
21.9139
21.9139
21.9139
21.9139
21.9139
21.9139
21.9139
21.9139
21.9139
21.9139
21.9139
21.9139
21.9139
21.9139
21.9139
21.9139
21.9139
21.9139
21.9139
21.9139
21.9139
21.9139
21.9139
21.9139
21.9139
21.9139
21.9139
21.9139
21.9139
21.9139
21.9139
21.9139
21.9139
21.9139
21.9139
21.9139
21.9139
21.9139
21.9139
21.9139
21.9139
21.9139
21.9139
21.9139
21.9139
21.9139
21.9139
21.9139
21.9139
21.9139
21.9139
21.9139
21.9139
21.9139
21.9139
21.9139
21.9139
21.9139
21.9139
21.9139
21.9139
21.9139
21.9139
21.9139
21.9139
21.9139
21.9139
21.9139
21.9139
21.9139
21.9139
21.9139
21.9139
21.9139
21.9139
21.9139
21.9139
21.9139
21.9139
21.9139
21.9139
21.9139
21.9139
21.9139
21.9139
21.9139
21.9139
21.9139
21.9139
21.9139
21.9139
21.9139
21.9139
21.9139
21.9139
21.9139
21.9139
21.9139
21.9139
21.9139
21.9139
21.9139
21.9139
21.9139
21.9139
21.9139
21.9139
21.9139
21.9139
21.9139
21.9139
21.9139
21.9139
21.9139
21.9139
21.9139
21.9139
21.9139
21.9139
21.9139
21.9139
21.9139
21.9139
21.9139
21.9139
21.9139
21.9139
21.9139
21.9139
21.9139
21.9139
21.9139
21.9139
21.9139
21.9139
21.9139
21.9139
21.9139
21.9139
21.9139
21.9139
21.9139
21.9139
21.9139
21.9139
21.9139
21.9139
21.9139
21.9139
21.9139
21.9139
21.9139
21.9139
21.9139
21.9139
21.9139
21.9139
21.9139
21.9139
21.9139
21.9139
21.9139
21.9139
21.9139
21.9139
21.9139
21.9139
21.9139
21.9139
21.9139
21.9139
21.9139
21.9139
21.9139
21.9139
21.9139
21.9139
21.9139
21.9139
21.9139
21.9139
21.9139
21.9139
21.9139
21.9139
21.9139
21.9139
21.9139
21.9139
21.9139
21.9139
21.9139
21.9139
21.9139
21.9139
21.9139
21.9139
21.9139
21.9139
21.9139
21.9139
21.9139
21.9139
21.9139
21.9139
21.9139
21.9139
21.9139
21.9139
21.9139
21.9139
21.9139
21.9139
21.9139
21.9139
21.9139
21.9139
21.9139
21.9139
21.9139
21.9139
21.9139
21.9139
21.9139
21.9139
21.9139
21.9139
21.9139
21.9139
21.9139
21.9139
21.9139
21.9139
21.9139
21.9139
21.9139
21.9139
21.9139
21.9139
21.9139
21.9139
21.9139
21.9139
21.9139
21.9139
21.9139
21.9139
21.9139
21.9139
21.9139
21.9139
21.9139
21.9139
21.9139
21.9139
21.9139
21.9139
21.9139
21.9139
21.9139
21.9139
21.9139
21.9139
21.9139
21.9139
21.9139
21.9139
21.9139
21.9139
21.9139
21.9139
21.9139
21.9139
21.9139
21.9139
21.9139
21.9139
21.9139
21.9139
21.9139
21.9139
21.9139
21.9139
21.9139
21.9139
21.9139
21.9139
21.9139
21.9139
21.9139
21.9139
21.9139
21.9139
21.9139
21.9139
21.9139
21.9139
21.9139
21.9139
21.9139
21.9139
21.9139
21.9139
21.9139
21.9139
21.9139
21.9139
21.9139
21.9139
21.9139
21.914
21.914
21.9141
21.9139
21.9139
21.9139
21.9139
21.9139
21.9139
21.9139
21.9139
21.9139
21.9139
21.9139
21.9139
21.9139
21.9139
21.9139
21.9139
21.9139
21.9139
21.9139
21.9139
21.9139
21.9139
21.9139
21.9139
21.9139
21.9139
21.9139
21.9139
21.9139
21.9139
21.9139
21.9139
21.9139
21.9139
21.9139
21.9139
21.9139
21.9139
21.9139
21.9139
21.9139
21.9139
21.9139
21.914
21.914
21.9141
21.9142
21.9143
21.9145
21.9149
21.9139
21.9139
21.9139
21.9139
21.9139
21.9139
21.9139
21.9139
21.9139
21.9139
21.9139
21.9139
21.9139
21.9139
21.9139
21.9139
21.9139
21.9139
21.9139
21.9139
21.9139
21.9139
21.9139
21.9139
21.9139
21.9139
21.9139
21.9139
21.9139
21.9139
21.9139
21.9139
21.9139
21.9139
21.9139
21.9139
21.9139
21.9139
21.9139
21.914
21.914
21.9141
21.9142
21.9143
21.9146
21.915
21.9156
21.9165
21.918
21.9207
21.9139
21.9139
21.9139
21.9139
21.9139
21.9139
21.9139
21.9139
21.9139
21.9139
21.9139
21.9139
21.9139
21.9139
21.9139
21.9139
21.9139
21.9139
21.9139
21.9139
21.9139
21.9139
21.9139
21.9139
21.9139
21.9139
21.9139
21.9139
21.9139
21.9139
21.9139
21.9139
21.9139
21.9139
21.914
21.914
21.914
21.9141
21.9142
21.9144
21.9147
21.9151
21.9158
21.9168
21.9184
21.9209
21.9249
21.931
21.9407
21.9578
21.9139
21.9139
21.9139
21.9139
21.9139
21.9139
21.9139
21.9139
21.9139
21.9139
21.9139
21.9139
21.9139
21.9139
21.9139
21.9139
21.9139
21.9139
21.9139
21.9139
21.9139
21.9139
21.9139
21.9139
21.9139
21.9139
21.9139
21.9139
21.9139
21.9139
21.914
21.914
21.9141
21.9141
21.9143
21.9145
21.9148
21.9152
21.916
21.9171
21.9189
21.9217
21.9259
21.9325
21.9428
21.9587
21.9834
22.022
22.0832
22.1884
21.9139
21.9139
21.9139
21.9139
21.9139
21.9139
21.9139
21.9139
21.9139
21.9139
21.9139
21.9139
21.9139
21.9139
21.9139
21.9139
21.9139
21.9139
21.9139
21.9139
21.9139
21.9139
21.9139
21.9139
21.9139
21.9139
21.914
21.914
21.9141
21.9142
21.9143
21.9145
21.9149
21.9154
21.9162
21.9175
21.9194
21.9224
21.927
21.9342
21.9453
21.9625
21.9891
22.0302
22.0939
22.1923
22.3444
22.579
22.9434
23.5449
21.9139
21.9139
21.9139
21.9139
21.9139
21.9139
21.9139
21.9139
21.9139
21.9139
21.9139
21.9139
21.9139
21.9139
21.9139
21.9139
21.9139
21.9139
21.9139
21.9139
21.9139
21.914
21.914
21.914
21.9141
21.9142
21.9143
21.9146
21.915
21.9155
21.9164
21.9178
21.9199
21.9231
21.9281
21.9359
21.9478
21.9663
21.9948
22.0388
22.1066
22.2111
22.3711
22.6161
22.9899
23.5581
24.4179
25.7065
27.6217
30.5099
21.9139
21.9139
21.9139
21.9139
21.9139
21.9139
21.9139
21.9139
21.9139
21.9139
21.9139
21.9139
21.9139
21.9139
21.9139
21.9139
21.9139
21.914
21.914
21.914
21.9141
21.9142
21.9144
21.9146
21.915
21.9157
21.9166
21.9181
21.9203
21.9238
21.9292
21.9374
21.9502
21.9698
22
22.0466
22.1182
22.2283
22.3969
22.6542
23.0459
23.6404
24.5345
25.8599
27.7926
30.5603
34.4273
39.6554
46.5264
55.5098
21.9139
21.9139
21.9139
21.9139
21.9139
21.9139
21.9139
21.9139
21.9139
21.9139
21.9139
21.9139
21.9139
21.914
21.914
21.914
21.9141
21.9142
21.9144
21.9147
21.9151
21.9158
21.9168
21.9184
21.9208
21.9245
21.9302
21.9389
21.9523
21.973
22.0047
22.0535
22.1284
22.2434
22.4194
22.6877
23.0956
23.7125
24.6368
26.0028
27.9891
30.8121
34.7027
39.9148
46.7088
55.3515
66.1715
79.518
95.7423
115.209
21.9139
21.9139
21.9139
21.9139
21.9139
21.9139
21.9139
21.9139
21.9139
21.914
21.914
21.9141
21.9141
21.9143
21.9145
21.9148
21.9152
21.9159
21.917
21.9187
21.9212
21.9251
21.931
21.9402
21.9542
21.9758
22.0089
22.0596
22.1373
22.2562
22.4379
22.7147
23.1345
23.7668
24.7113
26.1046
28.1245
30.9855
34.9244
40.1868
47.0462
55.8269
66.8232
80.2205
96.1376
114.799
135.675
157.539
180.706
208.062
21.9139
21.9139
21.9139
21.9139
21.9139
21.914
21.914
21.9141
21.9142
21.9143
21.9145
21.9148
21.9153
21.916
21.9172
21.9189
21.9216
21.9256
21.9318
21.9413
21.9559
21.9782
22.0123
22.0646
22.1445
22.2665
22.4525
22.7353
23.1631
23.8063
24.7641
26.1723
28.2078
31.0882
35.059
40.373
47.2936
56.1082
67.086
80.389
96.1766
113.976
132.935
153.505
176.538
203.837
236.382
274.816
317.91
367.748
21.914
21.914
21.914
21.9141
21.9142
21.9143
21.9145
21.9149
21.9154
21.9162
21.9174
21.9192
21.9219
21.9261
21.9325
21.9423
21.9573
21.9802
22.0151
22.0685
22.1499
22.274
22.4627
22.7491
23.1814
23.83
24.7938
26.2075
28.2461
31.124
35.0867
40.3924
47.2912
56.0076
66.7618
79.7422
95.0126
112.329
131.181
151.904
175.745
204.45
238.601
276.801
318.636
362.632
408.651
460.603
521.924
601.469
21.9142
21.9144
21.9146
21.9149
21.9155
21.9163
21.9175
21.9194
21.9222
21.9266
21.9332
21.9432
21.9585
21.9818
22.0173
22.0713
22.1536
22.2787
22.4686
22.7561
23.1892
23.8377
24.7995
26.2075
28.2343
31.0909
35.018
40.2701
47.0938
55.7071
66.2882
78.984
93.8972
111.103
130.484
151.966
176.298
204.631
237.417
274.423
313.83
352.566
393.809
443.339
504.75
578.192
661.374
752.816
848.434
954.281
21.9156
21.9164
21.9177
21.9197
21.9226
21.9271
21.9338
21.944
21.9596
21.9832
22.019
22.0735
22.1561
22.2814
22.4711
22.7574
23.188
23.8312
24.7832
26.1747
28.1746
30.9898
34.8564
40.0238
46.7342
55.202
65.6015
78.0647
92.6906
109.558
128.741
150.274
174.295
201.133
231.311
265.193
302.027
340.457
382.363
431.859
491.317
560.821
639.817
727.916
823.678
923.535
1022.6
1117.66
1202.97
1281.98
21.923
21.9276
21.9345
21.945
21.9608
21.9846
22.0208
22.0754
22.158
22.2829
22.4714
22.7551
23.1805
23.8143
24.7504
26.1159
28.0758
30.8316
34.6141
39.6677
46.2304
54.5138
64.6896
76.8871
91.2016
107.708
126.475
147.58
171.122
197.262
226.24
258.419
293.995
332.984
375.796
424.18
480.094
544.796
619.189
703.507
796.135
894.288
994.846
1093.82
1186.21
1267.65
1335.7
1391.09
1433.39
1465.58
21.9622
21.9864
22.0228
22.0777
22.1603
22.2846
22.4715
22.7517
23.1705
23.7925
24.7086
26.0419
27.9521
30.6348
34.3146
39.2302
45.6152
53.6787
63.5914
75.4817
89.4418
105.544
123.855
144.449
167.413
192.882
221.06
252.234
286.702
324.706
366.631
413.267
466.044
526.606
596.441
676.323
765.628
862.541
964.201
1065.98
1162.33
1249.38
1325.21
1388.56
1438.57
1475.59
1501.37
1518.6
1529.06
1534.39
22.081
22.1638
22.2878
22.4733
22.7503
23.1624
23.772
24.6669
25.9654
27.8213
30.4235
33.9892
38.7506
44.9365
52.753
62.37
73.9158
87.4826
103.139
120.949
140.982
163.326
188.09
215.443
245.637
279.017
315.835
356.392
401.226
451.379
508.397
573.913
649.11
734.194
828.099
928.378
1031.09
1131.43
1225.17
1309.03
1380.25
1437.44
1481.43
1513.79
1536.2
1550.19
1557.72
1561.51
1563.17
1564.33
1563.86
22.7542
23.161
23.76
24.6352
25.9004
27.703
30.2241
33.673
38.2743
44.2508
51.8049
61.1053
72.2809
85.4238
100.601
117.872
137.303
158.977
182.999
209.505
238.71
270.91
306.473
345.646
388.797
436.612
490.394
551.775
622.243
702.593
792.496
890.218
992.603
1095.42
1194.14
1284.69
1363.78
1429.61
1482.1
1521.77
1549.82
1568.22
1579.29
1585.25
1588.41
1589.55
1590.06
1589.23
1585.67
1579.78
1570.35
24.6239
25.8615
27.6172
30.0641
33.4028
37.8492
43.6189
50.9092
59.8866
70.6797
83.3815
98.0585
114.765
133.564
154.534
177.775
203.408
231.606
262.63
296.829
334.547
376.054
421.814
472.712
530.233
596.006
671.272
756.387
850.447
951.111
1054.77
1157.01
1253.34
1340.01
1414.47
1475.44
1523.12
1558.25
1582.63
1598.47
1607.36
1611.76
1613.94
1615.13
1615.36
1613.82
1608.99
1601.61
1592
1580.74
1568.17
1553.49
33.2156
37.5233
43.1016
50.1415
58.805
69.2198
81.4792
95.6495
111.783
129.936
150.181
172.614
197.355
224.542
254.391
287.205
323.383
363.227
407.049
455.429
509.477
570.784
640.88
720.677
810.051
907.546
1010.32
1114.4
1215.3
1308.76
1391.45
1461.36
1517.68
1560.84
1592.13
1613.33
1626.39
1633.43
1637.27
1639.14
1640.43
1639.82
1636.85
1631.36
1623.31
1613.06
1601.51
1588.42
1574.67
1560.51
1546.52
1531.34
57.9513
68.0088
79.8417
93.5167
109.085
126.596
146.116
167.735
191.567
217.747
246.44
277.905
312.487
350.616
392.549
438.66
489.675
546.914
611.99
686.236
770.192
863.251
963.446
1067.52
1171.27
1270.25
1360.53
1439.21
1504.68
1556.7
1595.82
1623.61
1642
1652.76
1658.46
1661.79
1663.53
1664.35
1663.52
1659.2
1652.9
1644.28
1633.72
1621.87
1608.84
1595.12
1581.19
1567.08
1552.95
1538.69
1524.79
1509.95
106.827
123.719
142.531
163.348
186.279
211.455
239.023
269.182
302.234
338.573
378.601
422.58
470.964
524.635
585.081
653.848
731.998
819.67
915.795
1017.96
1122.59
1225.38
1322
1408.89
1483.61
1544.89
1592.89
1628.43
1653.1
1668.95
1677.88
1682.59
1685.45
1687.34
1687.54
1685.79
1680.84
1673.78
1664.79
1654.32
1642.05
1628.94
1615.4
1601.71
1587.81
1573.79
1559.77
1545.8
1531.92
1517.97
1504.36
1489.9
181.716
205.909
232.384
261.299
292.895
327.52
365.602
407.497
453.482
504.119
560.478
624.111
696.428
778.169
869.073
967.64
1071.09
1175.61
1276.89
1370.84
1454.24
1525.07
1582.46
1626.74
1659.05
1681.02
1694.55
1701.97
1706.14
1708.61
1710.38
1709.99
1707.08
1701.81
1694.33
1684.94
1674.2
1661.96
1649
1635.7
1622.09
1608.32
1594.49
1580.69
1566.91
1553.14
1539.42
1525.74
1512.14
1498.45
1485.08
1470.93
284.746
317.766
353.962
393.777
437.503
485.463
538.353
597.417
664.193
739.873
824.855
918.482
1018.87
1122.95
1226.78
1326.09
1417.12
1497.03
1564.08
1617.87
1658.74
1688.09
1707.68
1719.22
1725.38
1729.24
1731.57
1732.69
1731.93
1727.73
1722.17
1714.49
1704.97
1693.87
1681.69
1668.85
1655.75
1642.34
1628.76
1615.12
1601.48
1587.86
1574.27
1560.71
1547.18
1533.68
1520.21
1506.75
1493.37
1479.89
1466.71
1452.82
423.331
468.853
518.77
573.936
635.728
705.583
784.411
872.257
968.095
1069.71
1173.81
1276.39
1373.38
1461.29
1537.69
1601.12
1651.48
1689.3
1716
1733.41
1743.21
1748.47
1751.89
1754.21
1754.56
1753.16
1748.54
1742.29
1734.4
1724.78
1713.48
1701.34
1688.69
1675.71
1662.46
1649.04
1635.61
1622.16
1608.72
1595.29
1581.88
1568.49
1555.14
1541.8
1528.48
1515.18
1501.9
1488.63
1475.43
1462.14
1449.15
1435.49
675.773
748.614
830.341
920.654
1018.19
1120.46
1224.02
1324.88
1419.21
1503.85
1576.71
1636.68
1683.76
1718.75
1743.05
1758.43
1766.8
1771.45
1774.46
1776.52
1776.25
1773.92
1769.16
1762.54
1754.34
1744.5
1733.14
1721.07
1708.6
1695.69
1682.57
1669.33
1656.06
1642.77
1629.48
1616.21
1602.96
1589.73
1576.51
1563.29
1550.1
1536.93
1523.76
1510.62
1497.48
1484.38
1471.29
1458.27
1445.18
1432.36
1418.89
970.416
1069.15
1171.51
1273.98
1372.67
1464.05
1545.31
1614.59
1671.21
1715.18
1747.52
1769.6
1783.1
1790.26
1794.4
1797.27
1798.66
1797.9
1794.64
1789.71
1782.9
1774.48
1764.37
1753.03
1741.03
1728.64
1715.83
1702.8
1689.7
1676.57
1663.42
1650.27
1637.13
1624
1610.9
1597.81
1584.74
1571.67
1558.61
1545.56
1532.52
1519.5
1506.5
1493.51
1480.54
1467.62
1454.69
1441.8
1428.82
1416.1
1402.78
1324.14
1420.25
1508.39
1586.11
1651.81
1705.16
1746.13
1775.93
1795.97
1807.66
1813.93
1817.49
1820.16
1820.9
1819.48
1815.82
1810.5
1803.49
1794.9
1784.57
1773.21
1761.29
1748.94
1736.22
1723.3
1710.31
1697.27
1684.22
1671.17
1658.14
1645.13
1632.13
1619.15
1606.18
1593.22
1580.27
1567.34
1554.4
1541.48
1528.57
1515.68
1502.8
1489.95
1477.11
1464.27
1451.44
1438.61
1425.82
1412.96
1400.38
1387.27
1688.8
1738.82
1776.93
1804.28
1822.41
1832.39
1837.91
1841.01
1843.24
1843.51
1841.15
1837.35
1831.74
1824.48
1815.55
1805.14
1793.84
1782.03
1769.67
1756.98
1744.14
1731.24
1718.28
1705.31
1692.34
1679.38
1666.44
1653.53
1640.63
1627.74
1614.86
1602
1589.15
1576.3
1563.47
1550.66
1537.85
1525.05
1512.28
1499.52
1486.76
1474
1461.24
1448.49
1435.76
1423.05
1410.42
1397.72
1385.29
1372.36
1832.88
1849.04
1857.6
1862.35
1865.02
1866.68
1866.48
1863.33
1859.32
1853.5
1845.99
1836.74
1826.27
1815.02
1803.21
1790.9
1778.26
1765.48
1752.61
1739.69
1726.77
1713.86
1700.96
1688.08
1675.21
1662.36
1649.53
1636.71
1623.91
1611.12
1598.34
1585.57
1572.82
1560.08
1547.36
1534.65
1521.97
1509.28
1496.58
1483.9
1471.21
1458.53
1445.88
1433.26
1420.68
1408.1
1395.6
1383.04
1370.74
1357.99
1887.46
1889.8
1890.8
1889.89
1886.05
1881.89
1875.86
1868.13
1858.64
1848.12
1836.88
1825
1812.68
1800.1
1787.38
1774.55
1761.66
1748.76
1735.87
1722.99
1710.13
1697.3
1684.48
1671.67
1658.88
1646.11
1633.36
1620.62
1607.89
1595.18
1582.49
1569.81
1557.16
1544.52
1531.89
1519.25
1506.62
1493.99
1481.36
1468.76
1456.19
1443.63
1431.11
1418.6
1406.14
1393.68
1381.31
1368.88
1356.71
1344.13
1913.96
1909.82
1905.31
1898.93
1890.95
1881.27
1870.72
1859.53
1847.58
1835.23
1822.66
1809.93
1797.12
1784.25
1771.37
1758.48
1745.6
1732.74
1719.9
1707.08
1694.28
1681.5
1668.74
1655.99
1643.25
1630.54
1617.85
1605.17
1592.52
1579.89
1567.28
1554.68
1542.08
1529.49
1516.9
1504.32
1491.75
1479.22
1466.7
1454.2
1441.73
1429.28
1416.86
1404.46
1392.11
1379.76
1367.52
1355.21
1343.17
1330.79
1922.9
1914.58
1904.77
1894.18
1882.97
1870.97
1858.62
1846.06
1833.32
1820.47
1807.59
1794.68
1781.78
1768.89
1756.01
1743.15
1730.3
1717.48
1704.67
1691.89
1679.12
1666.38
1653.65
1640.94
1628.26
1615.6
1602.96
1590.35
1577.76
1565.18
1552.6
1540.03
1527.47
1514.92
1502.41
1489.92
1477.44
1464.99
1452.57
1440.16
1427.77
1415.42
1403.09
1390.79
1378.55
1366.32
1354.21
1342.03
1330.15
1318.02
1918.64
1907.33
1895.27
1882.9
1870.34
1857.58
1844.71
1831.8
1818.85
1805.9
1792.97
1780.04
1767.14
1754.25
1741.38
1728.53
1715.7
1702.89
1690.1
1677.33
1664.59
1651.87
1639.17
1626.51
1613.87
1601.26
1588.66
1576.07
1563.5
1550.93
1538.38
1525.86
1513.37
1500.9
1488.46
1476.04
1463.64
1451.26
1438.91
1426.58
1414.29
1402.02
1389.79
1377.6
1365.47
1353.38
1341.42
1329.36
1317.66
1305.73
1908.22
1895.62
1882.81
1869.9
1856.95
1843.96
1830.95
1817.96
1804.97
1791.99
1779.03
1766.1
1753.18
1740.28
1727.41
1714.55
1701.72
1688.91
1676.12
1663.37
1650.64
1637.95
1625.28
1612.64
1600.02
1587.41
1574.81
1562.23
1549.68
1537.17
1524.68
1512.22
1499.79
1487.38
1474.99
1462.64
1450.3
1437.99
1425.71
1413.46
1401.26
1389.08
1376.97
1364.91
1352.9
1340.94
1329.16
1317.1
1305.42
1293.6
1883.14
1870.08
1857.01
1843.94
1830.87
1817.82
1804.77
1791.75
1778.74
1765.75
1752.78
1739.84
1726.92
1714.02
1701.15
1688.3
1675.49
1662.71
1649.97
1637.25
1624.56
1611.89
1599.24
1586.6
1574
1561.43
1548.89
1536.39
1523.92
1511.47
1499.06
1486.67
1474.31
1461.98
1449.67
1437.4
1425.17
1412.96
1400.8
1388.72
1376.64
1364.65
1352.72
1340.78
1328.8
1317.03
1304.98
1293.4
1281.73
1871.01
1857.85
1844.7
1831.56
1818.43
1805.31
1792.22
1779.14
1766.08
1753.05
1740.04
1727.05
1714.1
1701.17
1688.28
1675.43
1662.62
1649.83
1637.07
1624.33
1611.61
1598.92
1586.27
1573.66
1561.08
1548.54
1536.03
1523.56
1511.12
1498.71
1486.33
1473.98
1461.66
1449.4
1437.15
1424.95
1412.82
1400.7
1388.64
1376.68
1364.68
1352.67
1340.71
1328.76
1316.85
1305.09
1293.13
1281.88
1270.43
1859.47
1846.23
1832.99
1819.77
1806.57
1793.38
1780.22
1767.08
1753.96
1740.87
1727.81
1714.79
1701.8
1688.86
1675.95
1663.06
1650.21
1637.38
1624.58
1611.82
1599.1
1586.42
1573.78
1561.18
1548.63
1536.1
1523.61
1511.16
1498.74
1486.36
1474.03
1461.72
1449.46
1437.28
1425.11
1412.99
1400.96
1388.94
1376.85
1364.85
1352.8
1340.83
1328.86
1316.97
1305.29
1293.71
1281.85
1270.84
1259.5
1835.16
1821.84
1808.53
1795.24
1781.97
1768.73
1755.52
1742.34
1729.2
1716.1
1703.04
1690.01
1677.01
1664.04
1651.1
1638.2
1625.34
1612.54
1599.77
1587.05
1574.37
1561.74
1549.14
1536.59
1524.07
1511.6
1499.17
1486.79
1474.44
1462.18
1449.94
1437.75
1425.65
1413.57
1401.44
1389.35
1377.26
1365.18
1353.17
1341.09
1329.32
1317.5
1305.73
1294.22
1282.73
1270.98
1260.14
1248.84
1824.6
1811.18
1797.77
1784.39
1771.04
1757.72
1744.44
1731.21
1718.01
1704.85
1691.71
1678.62
1665.55
1652.53
1639.56
1626.64
1613.76
1600.94
1588.16
1575.42
1562.74
1550.09
1537.49
1524.95
1512.45
1500
1487.63
1475.3
1463.02
1450.81
1438.65
1426.47
1414.29
1402.12
1389.98
1377.86
1365.71
1353.77
1341.92
1329.92
1318.32
1306.59
1294.89
1283.5
1272.05
1260.44
1249.72
1238.42
1800.97
1787.47
1774
1760.57
1747.19
1733.83
1720.51
1707.23
1693.98
1680.77
1667.61
1654.5
1641.45
1628.44
1615.49
1602.59
1589.74
1576.93
1564.18
1551.49
1538.85
1526.26
1513.75
1501.3
1488.89
1476.56
1464.3
1452.03
1439.74
1427.49
1415.26
1403.04
1390.79
1378.74
1366.75
1354.7
1342.87
1331.12
1319.17
1307.66
1295.96
1284.36
1273.04
1261.63
1250.2
1239.55
1228.3
1791.21
1777.61
1764.06
1750.54
1737.05
1723.6
1710.18
1696.81
1683.49
1670.23
1657.02
1643.86
1630.77
1617.72
1604.73
1591.79
1578.92
1566.1
1553.34
1540.67
1528.06
1515.5
1503.02
1490.62
1478.23
1465.81
1453.44
1441.11
1428.76
1416.43
1404.21
1392.13
1379.95
1368.02
1356.1
1344.11
1332.34
1320.63
1308.72
1297.28
1285.59
1274.11
1262.83
1251.5
1240.22
1229.65
1218.5
1768.16
1754.49
1740.86
1727.26
1713.71
1700.22
1686.79
1673.4
1660.08
1646.82
1633.6
1620.45
1607.37
1594.34
1581.38
1568.52
1555.72
1542.97
1530.32
1517.75
1505.2
1492.62
1480.1
1467.62
1455.14
1442.66
1430.32
1418.06
1405.82
1393.68
1381.67
1369.55
1357.67
1345.76
1333.81
1322.06
1310.39
1298.52
1287.14
1275.47
1264.11
1252.87
1241.65
1230.51
1220
1208.99
1759.04
1745.25
1731.52
1717.83
1704.21
1690.64
1677.13
1663.67
1650.29
1636.97
1623.71
1610.52
1597.43
1584.41
1571.45
1558.59
1545.81
1533.06
1520.29
1507.59
1494.95
1482.27
1469.66
1457.12
1444.72
1432.31
1420.05
1407.82
1395.66
1383.54
1371.55
1359.44
1347.58
1335.67
1323.78
1312.03
1300.39
1288.59
1277.25
1265.63
1254.37
1243.16
1232.07
1221.05
1210.6
1199.76
1750.24
1736.36
1722.54
1708.76
1695.05
1681.41
1667.83
1654.31
1640.88
1627.54
1614.26
1601.06
1587.96
1574.96
1561.96
1548.97
1536.06
1523.19
1510.32
1497.49
1484.78
1472.16
1459.61
1447.12
1434.76
1422.4
1410.17
1397.94
1385.8
1373.67
1361.69
1349.58
1337.74
1325.82
1313.99
1302.25
1290.64
1278.9
1267.59
1256.03
1244.87
1233.69
1222.73
1211.82
1201.44
1190.79
1741.78
1727.81
1713.9
1700.04
1686.25
1672.56
1658.95
1645.38
1631.93
1618.57
1605.3
1592.03
1578.78
1565.63
1552.51
1539.39
1526.34
1513.39
1500.56
1487.78
1475.1
1462.51
1449.99
1437.52
1425.16
1412.79
1400.56
1388.31
1376.17
1364.03
1352.06
1339.96
1328.13
1316.22
1304.44
1292.7
1281.13
1269.45
1258.17
1246.68
1235.59
1224.46
1213.62
1202.81
1192.53
1182.06
1733.66
1719.62
1705.65
1691.73
1677.9
1664.17
1650.53
1636.96
1623.37
1609.85
1596.43
1583.02
1569.63
1556.32
1543.12
1530.03
1517
1504.07
1491.26
1478.49
1465.83
1453.21
1440.69
1428.2
1415.82
1403.43
1391.18
1378.92
1366.78
1354.63
1342.66
1330.58
1318.76
1306.85
1295.12
1283.38
1271.85
1260.22
1248.96
1237.55
1226.52
1215.46
1204.74
1194.04
1183.85
1173.56
1725.97
1711.86
1697.85
1683.92
1670
1656.1
1642.29
1628.57
1614.83
1601.15
1587.55
1574.08
1560.7
1547.39
1534.2
1521.11
1508.09
1495.15
1482.31
1469.52
1456.83
1444.18
1431.63
1419.11
1406.7
1394.3
1382.03
1369.76
1357.62
1345.46
1333.49
1321.43
1309.61
1297.7
1286
1274.28
1262.78
1251.2
1239.97
1228.62
1217.66
1206.68
1196.06
1185.47
1175.39
1165.28
1718.76
1704.49
1690.28
1676.19
1662.11
1648.04
1634.05
1620.15
1606.38
1592.69
1579.08
1565.59
1552.2
1538.88
1525.67
1512.54
1499.48
1486.51
1473.62
1460.79
1448.06
1435.38
1422.79
1410.25
1397.82
1385.4
1373.11
1360.83
1348.69
1336.52
1324.54
1312.49
1300.67
1288.77
1277.09
1265.38
1253.91
1242.38
1231.17
1219.9
1209
1198.1
1187.58
1177.11
1167.14
1157.2
1697.11
1682.72
1668.42
1654.22
1640.12
1626.1
1612.17
1598.37
1584.65
1571.01
1557.49
1544.05
1530.68
1517.42
1504.23
1491.12
1478.1
1465.16
1452.29
1439.52
1426.8
1414.18
1401.61
1389.16
1376.72
1364.42
1352.12
1339.96
1327.79
1315.8
1303.76
1291.92
1280.05
1268.37
1256.69
1245.23
1233.75
1222.57
1211.38
1200.53
1189.72
1179.3
1168.95
1159.1
1149.33
1689.79
1675.35
1660.99
1646.75
1632.61
1618.55
1604.58
1590.72
1576.94
1563.25
1549.66
1536.15
1522.72
1509.39
1496.14
1482.98
1469.91
1456.92
1444.01
1431.2
1418.45
1405.8
1393.2
1380.71
1368.26
1355.93
1343.61
1331.44
1319.27
1307.25
1295.22
1283.37
1271.51
1259.84
1248.18
1236.74
1225.31
1214.16
1203.03
1192.24
1181.53
1171.2
1160.98
1151.26
1141.65
1682.86
1668.38
1653.96
1639.66
1625.45
1611.32
1597.28
1583.34
1569.48
1555.72
1542.05
1528.47
1514.98
1501.58
1488.28
1475.07
1461.94
1448.91
1435.95
1423.09
1410.31
1397.62
1384.99
1372.47
1360
1347.64
1335.31
1323.11
1310.93
1298.89
1286.86
1275
1263.15
1251.48
1239.85
1228.42
1217.04
1205.92
1194.87
1184.14
1173.52
1163.29
1153.2
1143.61
1134.17
1661.72
1647.23
1632.84
1618.54
1604.33
1590.2
1576.18
1562.24
1548.4
1534.66
1521.01
1507.45
1494
1480.63
1467.36
1454.18
1441.1
1428.1
1415.2
1402.37
1389.65
1376.99
1364.43
1351.93
1339.54
1327.19