/*--------------------------------*- C++ -*----------------------------------*\
| =========                 |                                                 |
| \\      /  F ield         | OpenFOAM: The Open Source CFD Toolbox           |
|  \\    /   O peration     | Version:  v1706                                 |
|   \\  /    A nd           | Web:      www.OpenFOAM.com                      |
|    \\/     M anipulation  |                                                 |
\*---------------------------------------------------------------------------*/
FoamFile
{
    version     2.0;
    format      ascii;
    class       volScalarField;
    location    "7e-06";
    object      rho;
}
// * * * * * * * * * * * * * * * * * * * * * * * * * * * * * * * * * * * * * //

dimensions      [1 -3 0 0 0 0 0];


internalField   nonuniform List<scalar> 
30038
(
0.000511309
0.000511309
0.000511309
0.000511309
0.000511309
0.000511309
0.000511309
0.000511309
0.000511309
0.000511309
0.000511309
0.000511309
0.000511309
0.000511309
0.000511309
0.000511309
0.000511309
0.000511309
0.000511309
0.000511309
0.000511309
0.000511309
0.000511309
0.000511309
0.000511309
0.000511309
0.000511309
0.000511309
0.000511309
0.000511309
0.000511309
0.000511309
0.000511309
0.000511309
0.000511309
0.000511309
0.000511309
0.000511309
0.000511309
0.000511309
0.000511309
0.000511309
0.000511309
0.000511309
0.000511309
0.000511309
0.000511309
0.000511309
0.000511309
0.000511309
0.000511309
0.000511309
0.000511309
0.000511309
0.000511309
0.000511309
0.000511309
0.000511309
0.000511309
0.000511309
0.000511309
0.000511309
0.000511309
0.000511309
0.000511309
0.000511309
0.000511309
0.000511309
0.000511309
0.000511309
0.000511309
0.000511309
0.000511309
0.000511309
0.000511309
0.000511309
0.000511309
0.000511309
0.000511309
0.000511309
0.000511309
0.000511309
0.000511309
0.000511309
0.000511309
0.000511309
0.000511309
0.000511309
0.000511309
0.000511309
0.000511309
0.000511309
0.000511309
0.000511309
0.000511309
0.000511309
0.000511309
0.000511309
0.000511309
0.000511309
0.000511309
0.000511309
0.000511309
0.000511309
0.000511309
0.000511309
0.000511309
0.000511309
0.000511309
0.000511309
0.000511309
0.000511309
0.000511309
0.000511309
0.000511309
0.000511309
0.000511309
0.000511309
0.000511309
0.000511309
0.000511309
0.000511309
0.000511309
0.000511309
0.000511309
0.000511309
0.000511309
0.000511309
0.000511309
0.000511309
0.000511309
0.000511309
0.000511309
0.000511309
0.000511309
0.000511309
0.000511309
0.000511309
0.000511309
0.000511309
0.000511309
0.000511309
0.000511309
0.000511309
0.000511309
0.000511309
0.000511309
0.000511309
0.000511309
0.000511309
0.000511309
0.000511309
0.000511309
0.000511309
0.000511309
0.000511309
0.000511309
0.000511309
0.000511309
0.000511309
0.000511309
0.000511309
0.000511309
0.000511309
0.000511309
0.000511309
0.000511309
0.000511309
0.000511309
0.000511309
0.000511309
0.000511309
0.000511309
0.000511309
0.000511309
0.000511309
0.000511309
0.000511309
0.000511309
0.000511309
0.000511309
0.000511309
0.000511309
0.000511309
0.000511309
0.000511309
0.000511309
0.000511309
0.000511309
0.000511309
0.000511309
0.000511309
0.000511309
0.000511309
0.000511309
0.000511309
0.000511309
0.000511309
0.000511309
0.000511309
0.000511309
0.000511309
0.000511309
0.000511309
0.000511309
0.000511309
0.000511309
0.000511309
0.000511309
0.000511309
0.000511309
0.000511309
0.000511309
0.000511309
0.000511309
0.000511309
0.000511309
0.000511309
0.000511309
0.000511309
0.000511309
0.000511309
0.000511309
0.000511309
0.000511309
0.000511309
0.000511309
0.000511309
0.000511309
0.000511309
0.000511309
0.000511309
0.000511309
0.000511309
0.000511309
0.000511309
0.000511309
0.000511309
0.000511309
0.000511309
0.000511309
0.000511309
0.000511309
0.000511309
0.000511309
0.000511309
0.000511309
0.000511309
0.000511309
0.000511309
0.000511309
0.000511309
0.000511309
0.000511309
0.000511309
0.000511309
0.000511309
0.000511309
0.000511309
0.000511309
0.000511309
0.000511309
0.000511309
0.000511309
0.000511309
0.000511309
0.000511309
0.000511309
0.000511309
0.000511309
0.000511309
0.000511309
0.000511309
0.000511309
0.000511309
0.000511309
0.000511309
0.000511309
0.000511309
0.000511309
0.000511309
0.000511309
0.000511309
0.000511309
0.000511309
0.000511309
0.000511309
0.000511309
0.000511309
0.000511309
0.000511309
0.000511309
0.000511309
0.000511309
0.000511309
0.000511309
0.000511309
0.000511309
0.000511309
0.000511309
0.000511309
0.000511309
0.000511309
0.000511309
0.000511309
0.000511309
0.000511309
0.000511309
0.000511309
0.000511309
0.000511309
0.000511309
0.000511309
0.000511309
0.000511309
0.000511309
0.000511309
0.000511309
0.000511309
0.000511309
0.000511309
0.000511309
0.000511309
0.000511309
0.000511309
0.000511309
0.000511309
0.000511309
0.000511309
0.000511309
0.000511309
0.000511309
0.000511309
0.000511309
0.000511309
0.000511309
0.000511309
0.000511309
0.000511309
0.000511309
0.000511309
0.000511309
0.000511309
0.000511309
0.000511309
0.000511309
0.000511309
0.000511309
0.000511309
0.000511309
0.000511309
0.000511309
0.000511309
0.000511309
0.000511309
0.000511309
0.000511309
0.000511309
0.000511309
0.000511309
0.000511309
0.000511309
0.000511309
0.000511309
0.000511309
0.000511309
0.000511309
0.000511309
0.000511309
0.000511309
0.000511309
0.000511309
0.000511309
0.000511309
0.000511309
0.000511309
0.000511309
0.000511309
0.000511309
0.000511309
0.000511309
0.000511309
0.000511309
0.000511309
0.000511309
0.000511309
0.000511309
0.000511309
0.000511309
0.000511309
0.000511309
0.000511309
0.000511309
0.000511309
0.000511309
0.000511309
0.000511309
0.000511309
0.000511309
0.000511309
0.000511309
0.000511309
0.000511309
0.000511309
0.000511309
0.000511309
0.000511309
0.000511309
0.000511309
0.000511309
0.000511309
0.000511309
0.000511309
0.000511309
0.000511309
0.000511309
0.000511309
0.000511309
0.000511309
0.000511309
0.000511309
0.000511309
0.000511309
0.000511309
0.000511309
0.000511309
0.000511309
0.000511309
0.000511309
0.000511309
0.000511309
0.000511309
0.000511309
0.000511309
0.000511309
0.000511309
0.000511309
0.000511309
0.000511309
0.000511309
0.000511309
0.000511309
0.000511309
0.000511309
0.000511309
0.000511309
0.000511309
0.000511309
0.000511309
0.000511309
0.000511309
0.000511309
0.000511309
0.000511309
0.000511309
0.000511309
0.000511309
0.000511309
0.000511309
0.000511309
0.000511309
0.000511309
0.000511309
0.000511309
0.000511309
0.000511309
0.000511309
0.000511309
0.000511309
0.000511309
0.000511309
0.000511309
0.000511309
0.000511309
0.000511309
0.000511309
0.000511309
0.000511309
0.000511309
0.000511309
0.000511309
0.000511309
0.000511309
0.000511309
0.000511309
0.000511309
0.000511309
0.000511309
0.000511309
0.000511309
0.000511309
0.000511309
0.000511309
0.000511309
0.000511309
0.000511309
0.000511309
0.000511309
0.000511309
0.000511309
0.000511309
0.000511309
0.000511309
0.000511309
0.000511309
0.000511309
0.000511309
0.000511309
0.000511309
0.000511309
0.000511309
0.000511309
0.000511309
0.000511309
0.000511309
0.000511309
0.000511309
0.000511309
0.000511309
0.000511309
0.000511309
0.000511309
0.000511309
0.000511309
0.000511309
0.000511309
0.000511309
0.000511309
0.000511309
0.000511309
0.000511309
0.000511309
0.000511309
0.000511309
0.000511309
0.000511309
0.000511309
0.000511309
0.000511309
0.000511309
0.000511309
0.000511309
0.000511309
0.000511309
0.000511309
0.000511309
0.000511309
0.000511309
0.000511309
0.000511309
0.000511309
0.000511309
0.000511309
0.000511309
0.000511309
0.000511309
0.000511309
0.000511309
0.000511309
0.000511309
0.000511309
0.000511309
0.000511309
0.000511309
0.000511309
0.000511309
0.000511309
0.000511309
0.000511309
0.000511309
0.000511309
0.000511309
0.000511309
0.000511309
0.000511309
0.000511309
0.000511309
0.000511309
0.000511309
0.000511309
0.000511309
0.000511309
0.000511309
0.000511309
0.000511309
0.000511309
0.000511309
0.000511309
0.000511309
0.000511309
0.000511309
0.000511309
0.000511309
0.000511309
0.000511309
0.000511309
0.000511309
0.000511309
0.000511309
0.000511309
0.000511309
0.000511309
0.000511309
0.000511309
0.000511309
0.000511309
0.000511309
0.000511309
0.000511309
0.000511309
0.000511309
0.000511309
0.000511309
0.000511309
0.000511309
0.000511309
0.000511309
0.000511309
0.000511309
0.000511309
0.000511309
0.000511309
0.000511309
0.000511309
0.000511309
0.000511309
0.000511309
0.000511309
0.000511309
0.000511309
0.000511309
0.000511309
0.000511309
0.000511309
0.000511309
0.000511309
0.000511309
0.000511309
0.000511309
0.000511309
0.000511309
0.000511309
0.000511309
0.000511309
0.000511309
0.000511309
0.000511309
0.000511309
0.000511309
0.000511309
0.000511309
0.000511309
0.000511309
0.000511309
0.000511309
0.000511309
0.000511309
0.000511309
0.000511309
0.000511309
0.000511309
0.000511309
0.000511309
0.000511309
0.000511309
0.000511309
0.000511309
0.000511309
0.000511309
0.000511309
0.000511309
0.000511309
0.000511309
0.000511309
0.000511309
0.000511309
0.000511309
0.000511309
0.000511309
0.000511309
0.000511309
0.000511309
0.000511309
0.000511309
0.000511309
0.000511309
0.000511309
0.000511309
0.000511309
0.000511309
0.000511309
0.000511309
0.000511309
0.000511309
0.000511309
0.000511309
0.000511309
0.000511309
0.000511309
0.000511309
0.000511309
0.000511309
0.000511309
0.000511309
0.000511309
0.000511309
0.000511309
0.000511309
0.000511309
0.000511309
0.000511309
0.000511309
0.000511309
0.000511309
0.000511309
0.000511309
0.000511309
0.000511309
0.000511309
0.000511309
0.000511309
0.000511309
0.000511309
0.000511309
0.000511309
0.000511309
0.000511309
0.000511309
0.000511309
0.000511309
0.000511309
0.000511309
0.000511309
0.000511309
0.000511309
0.000511309
0.000511309
0.000511309
0.000511309
0.000511309
0.000511309
0.000511309
0.000511309
0.000511309
0.000511309
0.000511309
0.000511309
0.000511309
0.000511309
0.000511309
0.000511309
0.000511309
0.000511309
0.000511309
0.000511309
0.000511309
0.000511309
0.000511309
0.000511309
0.000511309
0.000511309
0.000511309
0.000511309
0.000511309
0.000511309
0.000511309
0.000511309
0.000511309
0.000511309
0.000511309
0.000511309
0.000511309
0.000511309
0.000511309
0.000511309
0.000511309
0.000511309
0.000511309
0.000511309
0.000511309
0.000511309
0.000511309
0.000511309
0.000511309
0.000511309
0.000511309
0.000511309
0.000511309
0.000511309
0.000511309
0.000511309
0.000511309
0.000511309
0.000511309
0.000511309
0.000511309
0.000511309
0.000511309
0.000511309
0.000511309
0.000511309
0.000511309
0.000511309
0.000511309
0.000511309
0.000511309
0.000511309
0.000511309
0.000511309
0.000511309
0.000511309
0.000511309
0.000511309
0.000511309
0.000511309
0.000511309
0.000511309
0.000511309
0.000511309
0.000511309
0.000511309
0.000511309
0.000511309
0.000511309
0.000511309
0.000511309
0.000511309
0.000511309
0.000511309
0.000511309
0.000511309
0.000511309
0.000511309
0.000511309
0.000511309
0.000511309
0.000511309
0.000511309
0.000511309
0.000511309
0.000511309
0.000511309
0.000511309
0.000511309
0.000511309
0.000511309
0.000511309
0.000511309
0.000511309
0.000511309
0.000511309
0.000511309
0.000511309
0.000511309
0.000511309
0.000511309
0.000511309
0.000511309
0.000511309
0.000511309
0.000511309
0.000511309
0.000511309
0.000511309
0.000511309
0.000511309
0.000511309
0.000511309
0.000511309
0.000511309
0.000511309
0.000511309
0.000511309
0.000511309
0.000511309
0.000511309
0.000511309
0.000511309
0.000511309
0.000511309
0.000511309
0.000511309
0.000511309
0.000511309
0.000511309
0.000511309
0.000511309
0.000511309
0.000511309
0.000511309
0.000511309
0.000511309
0.000511309
0.000511309
0.000511309
0.000511309
0.000511309
0.000511309
0.000511309
0.000511309
0.000511309
0.000511309
0.000511309
0.000511309
0.000511309
0.000511309
0.000511309
0.000511309
0.000511309
0.000511309
0.000511309
0.000511309
0.000511309
0.000511309
0.000511309
0.000511309
0.000511309
0.000511309
0.000511309
0.000511309
0.000511309
0.000511309
0.000511309
0.000511309
0.000511309
0.000511309
0.000511309
0.000511309
0.000511309
0.000511309
0.000511309
0.000511309
0.000511309
0.000511309
0.000511309
0.000511309
0.000511309
0.000511309
0.000511309
0.000511309
0.000511309
0.000511309
0.000511309
0.000511309
0.000511309
0.000511309
0.000511309
0.000511309
0.000511309
0.000511309
0.000511309
0.000511309
0.000511309
0.000511309
0.000511309
0.000511309
0.000511309
0.000511309
0.000511309
0.000511309
0.000511309
0.000511309
0.000511309
0.000511309
0.000511309
0.000511309
0.000511309
0.000511309
0.000511309
0.000511309
0.000511309
0.000511309
0.000511309
0.000511309
0.000511309
0.000511309
0.000511309
0.000511309
0.000511309
0.000511309
0.000511309
0.000511309
0.000511309
0.000511309
0.000511309
0.000511309
0.000511309
0.000511309
0.000511309
0.000511309
0.000511309
0.000511309
0.000511309
0.000511309
0.000511309
0.000511309
0.000511309
0.000511309
0.000511309
0.000511309
0.000511309
0.000511309
0.000511309
0.000511309
0.000511309
0.000511309
0.000511309
0.000511309
0.000511309
0.000511309
0.000511309
0.000511309
0.000511309
0.000511309
0.000511309
0.000511309
0.000511309
0.000511309
0.000511309
0.000511309
0.000511309
0.000511309
0.000511309
0.000511309
0.000511309
0.000511309
0.000511309
0.000511309
0.000511309
0.000511309
0.000511309
0.000511309
0.000511309
0.000511309
0.000511309
0.000511309
0.000511309
0.000511309
0.000511309
0.000511309
0.000511309
0.000511309
0.000511309
0.000511309
0.000511309
0.000511309
0.000511309
0.000511309
0.000511309
0.000511309
0.000511309
0.000511309
0.000511309
0.000511309
0.000511309
0.000511309
0.000511309
0.000511309
0.000511309
0.000511309
0.000511309
0.000511309
0.000511309
0.000511309
0.000511309
0.000511309
0.000511309
0.000511309
0.000511309
0.000511309
0.000511309
0.000511309
0.000511309
0.000511309
0.000511309
0.000511309
0.000511309
0.000511309
0.000511309
0.000511309
0.000511309
0.000511309
0.000511309
0.000511309
0.000511309
0.000511309
0.000511309
0.000511309
0.000511309
0.000511309
0.000511309
0.000511309
0.000511309
0.000511309
0.000511309
0.000511309
0.000511309
0.000511309
0.000511309
0.000511309
0.000511309
0.000511309
0.000511309
0.000511309
0.000511309
0.000511309
0.000511309
0.000511309
0.000511309
0.000511309
0.000511309
0.000511309
0.000511309
0.000511309
0.000511309
0.000511309
0.000511309
0.000511309
0.000511309
0.000511309
0.000511309
0.000511309
0.000511309
0.000511309
0.000511309
0.000511309
0.000511309
0.000511309
0.000511309
0.000511309
0.000511309
0.000511309
0.000511309
0.000511309
0.000511309
0.000511309
0.000511309
0.000511309
0.000511309
0.000511309
0.000511309
0.00051131
0.000511309
0.000511309
0.000511309
0.000511309
0.000511309
0.000511309
0.000511309
0.000511309
0.000511309
0.000511309
0.000511309
0.000511309
0.000511309
0.000511309
0.000511309
0.000511309
0.000511309
0.000511309
0.000511309
0.000511309
0.000511309
0.000511309
0.000511309
0.000511309
0.000511309
0.000511309
0.000511309
0.000511309
0.000511309
0.000511309
0.000511309
0.000511309
0.000511309
0.000511309
0.000511309
0.000511309
0.000511309
0.000511309
0.000511309
0.000511309
0.000511309
0.000511309
0.000511309
0.000511309
0.000511309
0.00051131
0.00051131
0.00051131
0.00051131
0.00051131
0.000511309
0.000511309
0.000511309
0.000511309
0.000511309
0.000511309
0.000511309
0.000511309
0.000511309
0.000511309
0.000511309
0.000511309
0.000511309
0.000511309
0.000511309
0.000511309
0.000511309
0.000511309
0.000511309
0.000511309
0.000511309
0.000511309
0.000511309
0.000511309
0.000511309
0.000511309
0.000511309
0.000511309
0.000511309
0.000511309
0.000511309
0.000511309
0.000511309
0.000511309
0.000511309
0.000511309
0.000511309
0.000511309
0.000511309
0.000511309
0.000511309
0.00051131
0.00051131
0.00051131
0.00051131
0.00051131
0.000511311
0.000511312
0.000511313
0.000511316
0.000511309
0.000511309
0.000511309
0.000511309
0.000511309
0.000511309
0.000511309
0.000511309
0.000511309
0.000511309
0.000511309
0.000511309
0.000511309
0.000511309
0.000511309
0.000511309
0.000511309
0.000511309
0.000511309
0.000511309
0.000511309
0.000511309
0.000511309
0.000511309
0.000511309
0.000511309
0.000511309
0.000511309
0.000511309
0.000511309
0.000511309
0.000511309
0.000511309
0.000511309
0.000511309
0.000511309
0.000511309
0.00051131
0.00051131
0.00051131
0.00051131
0.000511311
0.000511311
0.000511312
0.000511314
0.000511316
0.00051132
0.000511326
0.000511334
0.000511349
0.000511309
0.000511309
0.000511309
0.000511309
0.000511309
0.000511309
0.000511309
0.000511309
0.000511309
0.000511309
0.000511309
0.000511309
0.000511309
0.000511309
0.000511309
0.000511309
0.000511309
0.000511309
0.000511309
0.000511309
0.000511309
0.000511309
0.000511309
0.000511309
0.000511309
0.000511309
0.000511309
0.000511309
0.000511309
0.000511309
0.000511309
0.000511309
0.000511309
0.00051131
0.00051131
0.00051131
0.00051131
0.000511311
0.000511311
0.000511312
0.000511314
0.000511317
0.000511321
0.000511327
0.000511335
0.000511349
0.00051137
0.000511403
0.000511457
0.00051155
0.000511309
0.000511309
0.000511309
0.000511309
0.000511309
0.000511309
0.000511309
0.000511309
0.000511309
0.000511309
0.000511309
0.000511309
0.000511309
0.000511309
0.000511309
0.000511309
0.000511309
0.000511309
0.000511309
0.000511309
0.000511309
0.000511309
0.000511309
0.000511309
0.000511309
0.000511309
0.000511309
0.000511309
0.00051131
0.00051131
0.00051131
0.00051131
0.00051131
0.000511311
0.000511312
0.000511313
0.000511315
0.000511317
0.000511322
0.000511328
0.000511337
0.000511352
0.000511375
0.000511412
0.000511467
0.000511554
0.000511684
0.000511872
0.000512142
0.000512605
0.000511309
0.000511309
0.000511309
0.000511309
0.000511309
0.000511309
0.000511309
0.000511309
0.000511309
0.000511309
0.000511309
0.000511309
0.000511309
0.000511309
0.000511309
0.000511309
0.000511309
0.000511309
0.000511309
0.000511309
0.000511309
0.000511309
0.000511309
0.000511309
0.00051131
0.00051131
0.00051131
0.00051131
0.00051131
0.000511311
0.000511312
0.000511313
0.000511315
0.000511318
0.000511322
0.000511329
0.000511339
0.000511355
0.00051138
0.000511419
0.000511478
0.000511566
0.000511693
0.000511877
0.000512152
0.000512562
0.000513206
0.000514224
0.000515788
0.000518277
0.000511309
0.000511309
0.000511309
0.000511309
0.000511309
0.000511309
0.000511309
0.000511309
0.000511309
0.000511309
0.000511309
0.000511309
0.000511309
0.000511309
0.000511309
0.000511309
0.000511309
0.000511309
0.000511309
0.000511309
0.00051131
0.00051131
0.00051131
0.00051131
0.00051131
0.000511311
0.000511312
0.000511313
0.000511315
0.000511318
0.000511323
0.00051133
0.000511341
0.000511358
0.000511384
0.000511423
0.000511483
0.000511573
0.000511704
0.000511894
0.000512178
0.000512628
0.00051334
0.000514417
0.000516003
0.000518312
0.000521494
0.000525446
0.000530133
0.000536932
0.000511309
0.000511309
0.000511309
0.000511309
0.000511309
0.000511309
0.000511309
0.000511309
0.000511309
0.000511309
0.000511309
0.000511309
0.000511309
0.000511309
0.000511309
0.000511309
0.00051131
0.00051131
0.00051131
0.00051131
0.000511311
0.000511311
0.000511312
0.000511313
0.000511316
0.000511319
0.000511324
0.000511331
0.000511343
0.00051136
0.000511387
0.000511427
0.000511488
0.000511581
0.00051172
0.000511925
0.000512231
0.000512702
0.000513429
0.000514526
0.000516146
0.000518373
0.000521146
0.000524688
0.000529363
0.00053565
0.000544607
0.000557229
0.000573882
0.000595279
0.000511309
0.000511309
0.000511309
0.000511309
0.000511309
0.000511309
0.000511309
0.000511309
0.000511309
0.000511309
0.000511309
0.000511309
0.00051131
0.00051131
0.00051131
0.00051131
0.000511311
0.000511311
0.000511312
0.000511314
0.000511316
0.000511319
0.000511325
0.000511332
0.000511344
0.000511362
0.00051139
0.000511431
0.000511494
0.000511588
0.00051173
0.000511944
0.000512264
0.000512739
0.000513451
0.000514519
0.000516074
0.000518207
0.000520975
0.000524534
0.000529387
0.000536499
0.000546594
0.000559766
0.000575863
0.000595176
0.000615065
0.000631857
0.000647939
0.000672629
0.000511309
0.000511309
0.000511309
0.000511309
0.000511309
0.000511309
0.000511309
0.00051131
0.00051131
0.00051131
0.00051131
0.00051131
0.000511311
0.000511311
0.000511312
0.000511314
0.000511316
0.00051132
0.000511325
0.000511333
0.000511345
0.000511364
0.000511392
0.000511434
0.000511498
0.000511594
0.000511738
0.000511955
0.000512278
0.00051276
0.000513472
0.000514517
0.00051603
0.000518185
0.000521138
0.000525017
0.000530183
0.000537354
0.000547201
0.000559847
0.000575421
0.000591114
0.00060433
0.000618414
0.000636434
0.000662768
0.000698715
0.000744377
0.000795638
0.000857192
0.000511309
0.000511309
0.000511309
0.00051131
0.00051131
0.00051131
0.00051131
0.00051131
0.000511311
0.000511311
0.000511312
0.000511314
0.000511316
0.00051132
0.000511326
0.000511334
0.000511346
0.000511365
0.000511393
0.000511436
0.000511501
0.000511597
0.000511742
0.00051196
0.000512284
0.000512766
0.000513477
0.000514516
0.000516012
0.000518135
0.000521084
0.000525073
0.000530331
0.000537114
0.000545905
0.000557119
0.000570569
0.00058493
0.000598657
0.000613993
0.000634953
0.000665334
0.000705078
0.00074981
0.000798366
0.000847389
0.00089733
0.000956865
0.00103228
0.00113919
0.00051131
0.00051131
0.00051131
0.00051131
0.000511311
0.000511311
0.000511313
0.000511314
0.000511317
0.00051132
0.000511326
0.000511334
0.000511347
0.000511366
0.000511394
0.000511437
0.000511502
0.000511599
0.000511743
0.00051196
0.000512282
0.00051276
0.000513464
0.00051449
0.000515966
0.000518052
0.000520944
0.00052486
0.000530032
0.000536686
0.000545042
0.000555369
0.000567839
0.000582588
0.000599034
0.00061705
0.000639128
0.000667995
0.000703956
0.000745837
0.00078874
0.0008264
0.000867143
0.00092262
0.000998684
0.00109444
0.00120539
0.0013293
0.00145991
0.00160764
0.000511311
0.000511312
0.000511313
0.000511314
0.000511317
0.000511321
0.000511326
0.000511335
0.000511347
0.000511367
0.000511395
0.000511438
0.000511502
0.000511598
0.000511742
0.000511956
0.000512274
0.000512744
0.000513436
0.000514442
0.000515886
0.000517924
0.000520744
0.000524557
0.000529586
0.000536051
0.000544159
0.000554102
0.000566061
0.000580211
0.000596722
0.000615597
0.000637198
0.000662319
0.000692051
0.000726923
0.0007648
0.000802845
0.000845642
0.000901226
0.000973155
0.00106075
0.00116292
0.00127939
0.00140829
0.00154441
0.00168042
0.00181155
0.0019291
0.00203829
0.000511317
0.000511321
0.000511327
0.000511335
0.000511348
0.000511367
0.000511396
0.000511438
0.000511502
0.000511597
0.000511739
0.000511949
0.000512261
0.000512721
0.000513396
0.000514375
0.000515779
0.000517758
0.000520491
0.000524181
0.000529044
0.000535292
0.00054312
0.000552707
0.000564222
0.000577828
0.000593686
0.000611967
0.000632866
0.000656724
0.000683998
0.000715359
0.000751017
0.000790807
0.000835544
0.000888622
0.000953328
0.00103152
0.00112466
0.00123324
0.00135504
0.00148608
0.00162166
0.00175589
0.00188149
0.00199227
0.00208469
0.00215966
0.00221642
0.00225895
0.000511349
0.000511368
0.000511397
0.000511439
0.000511502
0.000511596
0.000511735
0.000511941
0.000512246
0.000512694
0.000513349
0.000514298
0.000515656
0.000517566
0.0005202
0.000523753
0.000528431
0.000534439
0.000541966
0.00055118
0.000562233
0.000575282
0.000590488
0.000608019
0.000628044
0.00065083
0.000676773
0.000706388
0.000740142
0.000778352
0.000821647
0.000871441
0.000930263
0.00100085
0.00108559
0.00118575
0.00130048
0.00142723
0.0015618
0.00169739
0.00182617
0.00194276
0.00204437
0.00212907
0.00219554
0.00224421
0.00227758
0.0022994
0.00231214
0.00231783
0.00051144
0.000511503
0.000511596
0.000511733
0.000511935
0.000512232
0.000512668
0.000513303
0.00051422
0.000515528
0.000517366
0.000519895
0.000523302
0.000527783
0.000533536
0.000540744
0.000549567
0.000560149
0.00057263
0.000587164
0.000603914
0.000623065
0.000644808
0.000669466
0.000697496
0.000729503
0.000765804
0.000806843
0.000853528
0.000907686
0.000971944
0.00104896
0.00114058
0.00124718
0.00136726
0.00149734
0.00163182
0.00176393
0.0018878
0.00199871
0.00209268
0.00216774
0.00222506
0.0022667
0.00229496
0.00231201
0.00232056
0.00232436
0.00232561
0.0023266
0.00232595
0.000511932
0.000512223
0.000512648
0.000513264
0.00051415
0.00051541
0.000517174
0.000519598
0.000522858
0.00052714
0.000532632
0.000539512
0.000547936
0.00055804
0.00056995
0.000583805
0.000599768
0.000618014
0.000638734
0.000662166
0.000688703
0.000718855
0.000753222
0.000792106
0.000836064
0.00088626
0.000944937
0.00101477
0.0010981
0.00119616
0.00130853
0.00143277
0.00156446
0.00169772
0.00182624
0.00194436
0.00204747
0.00213303
0.00220085
0.00225152
0.00228664
0.00230904
0.00232191
0.00232819
0.00233102
0.00233143
0.00233173
0.00233089
0.00232692
0.00232006
0.00230854
0.000513238
0.000514097
0.000515313
0.00051701
0.000519335
0.000522454
0.000526543
0.000531781
0.000538336
0.000546362
0.000555989
0.000567334
0.000580517
0.000595691
0.000613031
0.000632728
0.000654978
0.000680081
0.000708493
0.0007408
0.000777508
0.000818958
0.000865882
0.000919774
0.000983114
0.00105849
0.00114782
0.00125166
0.00136878
0.00149592
0.00162811
0.0017593
0.00188329
0.00199492
0.00209065
0.00216868
0.00222918
0.00227308
0.00230284
0.00232154
0.00233122
0.00233518
0.00233656
0.00233711
0.00233707
0.00233532
0.00232956
0.00232072
0.00230918
0.00229564
0.00228054
0.00226259
0.00051913
0.000522121
0.000526033
0.000531031
0.000537275
0.000544915
0.000554077
0.000564871
0.000577406
0.00059181
0.000608254
0.000626926
0.000648035
0.000671787
0.00069855
0.000728843
0.000763307
0.000802335
0.000846347
0.000896281
0.000953986
0.00102204
0.0011028
0.00119766
0.00130648
0.00142728
0.00155617
0.00168775
0.00181591
0.00193488
0.00204008
0.00212874
0.00219969
0.00225344
0.00229166
0.0023168
0.00233151
0.00233854
0.00234165
0.00234252
0.00234322
0.00234211
0.00233842
0.00233171
0.00232193
0.00230953
0.00229565
0.0022799
0.00226345
0.00224665
0.00223031
0.00221251
0.000536389
0.000543666
0.000552386
0.000562657
0.000574575
0.00058825
0.00060383
0.000621507
0.000641479
0.000663959
0.000689193
0.000717617
0.000749796
0.0007864
0.000827716
0.000874282
0.000927278
0.000988864
0.00106157
0.00114741
0.00124721
0.00136016
0.00148362
0.00161317
0.00174319
0.00186766
0.00198133
0.00208023
0.00216214
0.00222669
0.00227449
0.00230762
0.00232876
0.00234019
0.00234524
0.00234754
0.00234822
0.0023483
0.0023469
0.00234141
0.00233353
0.00232296
0.00231015
0.00229586
0.0022802
0.00226382
0.00224741
0.00223102
0.00221488
0.0021988
0.00218347
0.00216707
0.000572125
0.00058512
0.000599889
0.00061661
0.000635488
0.000656733
0.000680554
0.000707256
0.000737342
0.000771432
0.000810113
0.000853676
0.000902805
0.000958926
0.00102441
0.00110163
0.00119215
0.00129623
0.00141243
0.00153756
0.00166682
0.00179452
0.00191485
0.00202308
0.00211591
0.00219157
0.00225022
0.00229283
0.00232153
0.00233911
0.00234795
0.00235155
0.00235309
0.00235397
0.0023532
0.00235056
0.00234412
0.00233521
0.00232415
0.00231146
0.00229659
0.00228081
0.00226469
0.00224865
0.00223261
0.00221665
0.00220097
0.00218562
0.0021707
0.00215594
0.00214192
0.00212697
0.000630204
0.000650266
0.000672762
0.000697908
0.000726081
0.000757845
0.000793856
0.000834584
0.000880361
0.000932053
0.000991368
0.00106072
0.00114222
0.00123695
0.0013446
0.00146321
0.0015891
0.00171726
0.00184198
0.0019579
0.00206071
0.00214772
0.0022177
0.00227096
0.00230897
0.0023339
0.00234828
0.002355
0.00235777
0.00235876
0.00235945
0.00235793
0.00235369
0.00234673
0.0023372
0.00232559
0.00231251
0.00229767
0.00228208
0.00226632
0.0022504
0.00223455
0.00221889
0.00220353
0.00218849
0.00217374
0.00215934
0.00214527
0.0021316
0.00211809
0.00210528
0.00209167
0.000716167
0.000745831
0.000779305
0.000817241
0.000859981
0.000907948
0.000962229
0.00102478
0.00109792
0.00118341
0.00128183
0.00139236
0.00151256
0.00163839
0.00176473
0.00188602
0.00199731
0.00209485
0.00217632
0.00224111
0.00228954
0.00232343
0.00234511
0.00235677
0.00236175
0.00236402
0.00236485
0.00236467
0.00236263
0.0023567
0.00234926
0.00233943
0.00232762
0.00231401
0.00229919
0.00228375
0.00226827
0.00225263
0.00223704
0.00222164
0.00220651
0.0021917
0.0021772
0.00216304
0.0021492
0.00213567
0.00212248
0.00210959
0.00209707
0.00208472
0.00207306
0.00206068
0.000841772
0.000886484
0.000936639
0.000993566
0.00105938
0.00113621
0.00122536
0.00132695
0.00143968
0.00156069
0.00168573
0.00180963
0.00192712
0.00203365
0.00212603
0.00220231
0.00226226
0.00230644
0.00233671
0.00235549
0.00236483
0.00236857
0.00237025
0.00237108
0.00236996
0.00236701
0.00236044
0.00235212
0.002342
0.00233003
0.00231611
0.00230129
0.00228608
0.00227074
0.0022553
0.00223993
0.00222479
0.00220993
0.00219535
0.00218107
0.00216709
0.00215344
0.00214011
0.00212709
0.00211438
0.00210197
0.00208989
0.00207811
0.00206669
0.00205546
0.00204492
0.00203374
0.00109551
0.00117588
0.00126833
0.00137255
0.00148681
0.00160794
0.00173151
0.00185244
0.0019658
0.00206752
0.00215483
0.00222625
0.00228167
0.00232201
0.00234909
0.00236524
0.00237268
0.00237563
0.00237679
0.00237731
0.00237547
0.00237131
0.00236449
0.0023557
0.00234517
0.00233286
0.00231883
0.0023041
0.00228912
0.00227385
0.00225856
0.00224338
0.00222845
0.00221377
0.00219938
0.0021853
0.00217153
0.00215806
0.00214488
0.00213201
0.00211945
0.0021072
0.00209525
0.0020836
0.00207226
0.00206126
0.00205055
0.00204022
0.00203001
0.00202043
0.00201025
0.00141896
0.00153412
0.00165467
0.00177616
0.00189365
0.00200264
0.00209951
0.00218183
0.00224866
0.00229987
0.00233669
0.00236092
0.00237466
0.00238059
0.00238291
0.002384
0.0023837
0.00238124
0.00237594
0.00236886
0.00235987
0.00234909
0.00233639
0.00232235
0.00230771
0.00229284
0.00227769
0.00226251
0.00224749
0.00223271
0.00221819
0.00220395
0.00219
0.00217636
0.00216303
0.00215001
0.00213729
0.00212486
0.00211272
0.00210089
0.00208936
0.00207813
0.00206721
0.0020566
0.00204631
0.0020363
0.00202652
0.00201708
0.00200779
0.00199912
0.00198994
0.00182015
0.00193377
0.00203812
0.00213009
0.00220753
0.00226998
0.00231724
0.00235079
0.00237248
0.00238397
0.00238885
0.00239052
0.00239146
0.00239048
0.0023872
0.00238141
0.00237388
0.00236466
0.00235371
0.00234072
0.00232667