/*--------------------------------*- C++ -*----------------------------------*\
| =========                 |                                                 |
| \\      /  F ield         | OpenFOAM: The Open Source CFD Toolbox           |
|  \\    /   O peration     | Version:  v1706                                 |
|   \\  /    A nd           | Web:      www.OpenFOAM.com                      |
|    \\/     M anipulation  |                                                 |
\*---------------------------------------------------------------------------*/
FoamFile
{
    version     2.0;
    format      ascii;
    class       volScalarField;
    location    "7e-06";
    object      Tov;
}
// * * * * * * * * * * * * * * * * * * * * * * * * * * * * * * * * * * * * * //

dimensions      [0 0 0 1 0 0 0];


internalField   nonuniform List<scalar> 
30038
(
144.4
144.4
144.4
144.4
144.4
144.4
144.4
144.4
144.4
144.4
144.4
144.4
144.4
144.4
144.4
144.4
144.4
144.4
144.4
144.4
144.4
144.4
144.4
144.4
144.4
144.4
144.4
144.4
144.4
144.4
144.4
144.4
144.4
144.4
144.4
144.4
144.4
144.4
144.4
144.4
144.4
144.4
144.4
144.4
144.4
144.4
144.4
144.4
144.4
144.4
144.4
144.4
144.4
144.4
144.4
144.4
144.4
144.4
144.4
144.4
144.4
144.4
144.4
144.4
144.4
144.4
144.4
144.4
144.4
144.4
144.4
144.4
144.4
144.4
144.4
144.4
144.4
144.4
144.4
144.4
144.4
144.4
144.4
144.4
144.4
144.4
144.4
144.4
144.4
144.4
144.4
144.4
144.4
144.4
144.4
144.4
144.4
144.4
144.4
144.4
144.4
144.4
144.4
144.4
144.4
144.4
144.4
144.4
144.4
144.4
144.4
144.4
144.4
144.4
144.4
144.4
144.4
144.4
144.4
144.4
144.4
144.4
144.4
144.4
144.4
144.4
144.4
144.4
144.4
144.4
144.4
144.4
144.4
144.4
144.4
144.4
144.4
144.4
144.4
144.4
144.4
144.4
144.4
144.4
144.4
144.4
144.4
144.4
144.4
144.4
144.4
144.4
144.4
144.4
144.4
144.4
144.4
144.4
144.4
144.4
144.4
144.4
144.4
144.4
144.4
144.4
144.4
144.4
144.4
144.4
144.4
144.4
144.4
144.4
144.4
144.4
144.4
144.4
144.4
144.4
144.4
144.4
144.4
144.4
144.4
144.4
144.4
144.4
144.4
144.4
144.4
144.4
144.4
144.4
144.4
144.4
144.4
144.4
144.4
144.4
144.4
144.4
144.4
144.4
144.4
144.4
144.4
144.4
144.4
144.4
144.4
144.4
144.4
144.4
144.4
144.4
144.4
144.4
144.4
144.4
144.4
144.4
144.4
144.4
144.4
144.4
144.4
144.4
144.4
144.4
144.4
144.4
144.4
144.4
144.4
144.4
144.4
144.4
144.4
144.4
144.4
144.4
144.4
144.4
144.4
144.4
144.4
144.4
144.4
144.4
144.4
144.4
144.4
144.4
144.4
144.4
144.4
144.4
144.4
144.4
144.4
144.4
144.4
144.4
144.4
144.4
144.4
144.4
144.4
144.4
144.4
144.4
144.4
144.4
144.4
144.4
144.4
144.4
144.4
144.4
144.4
144.4
144.4
144.4
144.4
144.4
144.4
144.4
144.4
144.4
144.4
144.4
144.4
144.4
144.4
144.4
144.4
144.4
144.4
144.4
144.4
144.4
144.4
144.4
144.4
144.4
144.4
144.4
144.4
144.4
144.4
144.4
144.4
144.4
144.4
144.4
144.4
144.4
144.4
144.4
144.4
144.4
144.4
144.4
144.4
144.4
144.4
144.4
144.4
144.4
144.4
144.4
144.4
144.4
144.4
144.4
144.4
144.4
144.4
144.4
144.4
144.4
144.4
144.4
144.4
144.4
144.4
144.4
144.4
144.4
144.4
144.4
144.4
144.4
144.4
144.4
144.4
144.4
144.4
144.4
144.4
144.4
144.4
144.4
144.4
144.4
144.4
144.4
144.4
144.4
144.4
144.4
144.4
144.4
144.4
144.4
144.4
144.4
144.4
144.4
144.4
144.4
144.4
144.4
144.4
144.4
144.4
144.4
144.4
144.4
144.4
144.4
144.4
144.4
144.4
144.4
144.4
144.4
144.4
144.4
144.4
144.4
144.4
144.4
144.4
144.4
144.4
144.4
144.4
144.4
144.4
144.4
144.4
144.4
144.4
144.4
144.4
144.4
144.4
144.4
144.4
144.4
144.4
144.4
144.4
144.4
144.4
144.4
144.4
144.4
144.4
144.4
144.4
144.4
144.4
144.4
144.4
144.4
144.4
144.4
144.4
144.4
144.4
144.4
144.4
144.4
144.4
144.4
144.4
144.4
144.4
144.4
144.4
144.4
144.4
144.4
144.4
144.4
144.4
144.4
144.4
144.4
144.4
144.4
144.4
144.4
144.4
144.4
144.4
144.4
144.4
144.4
144.4
144.4
144.4
144.4
144.4
144.4
144.4
144.4
144.4
144.4
144.4
144.4
144.4
144.4
144.4
144.4
144.4
144.4
144.4
144.4
144.4
144.4
144.4
144.4
144.4
144.4
144.4
144.4
144.4
144.4
144.4
144.4
144.4
144.4
144.4
144.4
144.4
144.4
144.4
144.4
144.4
144.4
144.4
144.4
144.4
144.4
144.4
144.4
144.4
144.4
144.4
144.4
144.4
144.4
144.4
144.4
144.4
144.4
144.4
144.4
144.4
144.4
144.4
144.4
144.4
144.4
144.4
144.4
144.4
144.4
144.4
144.4
144.4
144.4
144.4
144.4
144.4
144.4
144.4
144.4
144.4
144.4
144.4
144.4
144.4
144.4
144.4
144.4
144.4
144.4
144.4
144.4
144.4
144.4
144.4
144.4
144.4
144.4
144.4
144.4
144.4
144.4
144.4
144.4
144.4
144.4
144.4
144.4
144.4
144.4
144.4
144.4
144.4
144.4
144.4
144.4
144.4
144.4
144.4
144.4
144.4
144.4
144.4
144.4
144.4
144.4
144.4
144.4
144.4
144.4
144.4
144.4
144.4
144.4
144.4
144.4
144.4
144.4
144.4
144.4
144.4
144.4
144.4
144.4
144.4
144.4
144.4
144.4
144.4
144.4
144.4
144.4
144.4
144.4
144.4
144.4
144.4
144.4
144.4
144.4
144.4
144.4
144.4
144.4
144.4
144.4
144.4
144.4
144.4
144.4
144.4
144.4
144.4
144.4
144.4
144.4
144.4
144.4
144.4
144.4
144.4
144.4
144.4
144.4
144.4
144.4
144.4
144.4
144.4
144.4
144.4
144.4
144.4
144.4
144.4
144.4
144.4
144.4
144.4
144.4
144.4
144.4
144.4
144.4
144.4
144.4
144.4
144.4
144.4
144.4
144.4
144.4
144.4
144.4
144.4
144.4
144.4
144.4
144.4
144.4
144.4
144.4
144.4
144.4
144.4
144.4
144.4
144.4
144.4
144.4
144.4
144.4
144.4
144.4
144.4
144.4
144.4
144.4
144.4
144.4
144.4
144.4
144.4
144.4
144.4
144.4
144.4
144.4
144.4
144.4
144.4
144.4
144.4
144.4
144.4
144.4
144.4
144.4
144.4
144.4
144.4
144.4
144.4
144.4
144.4
144.4
144.4
144.4
144.4
144.4
144.4
144.4
144.4
144.4
144.4
144.4
144.4
144.4
144.4
144.4
144.4
144.4
144.4
144.4
144.4
144.4
144.4
144.4
144.4
144.4
144.4
144.4
144.4
144.4
144.4
144.4
144.4
144.4
144.4
144.4
144.4
144.4
144.4
144.4
144.4
144.4
144.4
144.4
144.4
144.4
144.4
144.4
144.4
144.4
144.4
144.4
144.4
144.4
144.4
144.4
144.4
144.4
144.4
144.4
144.4
144.4
144.4
144.4
144.4
144.4
144.4
144.4
144.4
144.4
144.4
144.4
144.4
144.4
144.4
144.4
144.4
144.4
144.4
144.4
144.4
144.4
144.4
144.4
144.4
144.4
144.4
144.4
144.4
144.4
144.4
144.4
144.4
144.4
144.4
144.4
144.4
144.4
144.4
144.4
144.4
144.4
144.4
144.4
144.4
144.4
144.4
144.4
144.4
144.4
144.4
144.4
144.4
144.4
144.4
144.4
144.4
144.4
144.4
144.4
144.4
144.4
144.4
144.4
144.4
144.4
144.4
144.4
144.4
144.4
144.4
144.4
144.4
144.4
144.4
144.4
144.4
144.4
144.4
144.4
144.4
144.4
144.4
144.4
144.4
144.4
144.4
144.4
144.4
144.4
144.4
144.4
144.4
144.4
144.4
144.4
144.4
144.4
144.4
144.4
144.4
144.4
144.4
144.4
144.4
144.4
144.4
144.4
144.4
144.4
144.4
144.4
144.4
144.4
144.4
144.4
144.4
144.4
144.4
144.4
144.4
144.4
144.4
144.4
144.4
144.4
144.4
144.4
144.4
144.4
144.4
144.4
144.4
144.4
144.4
144.4
144.4
144.4
144.4
144.4
144.4
144.4
144.4
144.4
144.4
144.4
144.4
144.4
144.4
144.4
144.4
144.4
144.4
144.4
144.4
144.4
144.4
144.4
144.4
144.4
144.4
144.4
144.4
144.4
144.4
144.4
144.4
144.4
144.4
144.4
144.4
144.4
144.4
144.4
144.4
144.4
144.4
144.4
144.4
144.4
144.4
144.4
144.4
144.4
144.4
144.4
144.4
144.4
144.4
144.4
144.4
144.4
144.4
144.4
144.4
144.4
144.4
144.4
144.4
144.4
144.4
144.4
144.4
144.4
144.4
144.4
144.4
144.4
144.4
144.4
144.4
144.4
144.4
144.4
144.4
144.4
144.4
144.4
144.4
144.4
144.4
144.4
144.4
144.4
144.4
144.4
144.4
144.4
144.4
144.4
144.4
144.4
144.4
144.4
144.4
144.4
144.4
144.4
144.4
144.4
144.4
144.4
144.4
144.4
144.4
144.4
144.4
144.4
144.4
144.4
144.4
144.4
144.4
144.4
144.4
144.4
144.4
144.4
144.4
144.4
144.4
144.4
144.4
144.4
144.4
144.4
144.4
144.4
144.4
144.4
144.4
144.4
144.4
144.4
144.4
144.4
144.4
144.4
144.4
144.4
144.4
144.4
144.4
144.4
144.4
144.4
144.4
144.4
144.4
144.4
144.4
144.4
144.4
144.4
144.4
144.4
144.4
144.4
144.4
144.4
144.4
144.4
144.4
144.4
144.4
144.4
144.4
144.4
144.4
144.4
144.4
144.4
144.4
144.4
144.4
144.4
144.4
144.4
144.4
144.4
144.4
144.4
144.4
144.4
144.4
144.4
144.4
144.4
144.4
144.4
144.4
144.4
144.4
144.4
144.4
144.4
144.4
144.4
144.4
144.4
144.4
144.4
144.4
144.4
144.401
144.401
144.4
144.4
144.4
144.4
144.4
144.4
144.4
144.4
144.4
144.4
144.4
144.4
144.4
144.4
144.4
144.4
144.4
144.4
144.4
144.4
144.4
144.4
144.4
144.4
144.4
144.4
144.4
144.4
144.4
144.4
144.4
144.4
144.4
144.4
144.4
144.4
144.4
144.4
144.4
144.4
144.4
144.4
144.4
144.4
144.401
144.401
144.402
144.402
144.404
144.407
144.4
144.4
144.4
144.4
144.4
144.4
144.4
144.4
144.4
144.4
144.4
144.4
144.4
144.4
144.4
144.4
144.4
144.4
144.4
144.4
144.4
144.4
144.4
144.4
144.4
144.4
144.4
144.4
144.4
144.4
144.4
144.4
144.4
144.4
144.4
144.4
144.4
144.4
144.4
144.4
144.401
144.401
144.402
144.403
144.404
144.407
144.411
144.417
144.426
144.443
144.4
144.4
144.4
144.4
144.4
144.4
144.4
144.4
144.4
144.4
144.4
144.4
144.4
144.4
144.4
144.4
144.4
144.4
144.4
144.4
144.4
144.4
144.4
144.4
144.4
144.4
144.4
144.4
144.4
144.4
144.4
144.4
144.4
144.4
144.4
144.401
144.401
144.401
144.402
144.403
144.405
144.408
144.412
144.418
144.429
144.444
144.469
144.508
144.57
144.678
144.4
144.4
144.4
144.4
144.4
144.4
144.4
144.4
144.4
144.4
144.4
144.4
144.4
144.4
144.4
144.4
144.4
144.4
144.4
144.4
144.4
144.4
144.4
144.4
144.4
144.4
144.4
144.4
144.4
144.4
144.4
144.401
144.401
144.401
144.402
144.404
144.405
144.408
144.413
144.42
144.432
144.449
144.476
144.518
144.583
144.684
144.841
145.086
145.473
146.14
144.4
144.4
144.4
144.4
144.4
144.4
144.4
144.4
144.4
144.4
144.4
144.4
144.4
144.4
144.4
144.4
144.4
144.4
144.4
144.4
144.4
144.4
144.4
144.4
144.4
144.4
144.4
144.401
144.401
144.402
144.403
144.404
144.406
144.409
144.415
144.422
144.435
144.454
144.483
144.529
144.599
144.708
144.877
145.138
145.541
146.164
147.129
148.619
150.938
154.755
144.4
144.4
144.4
144.4
144.4
144.4
144.4
144.4
144.4
144.4
144.4
144.4
144.4
144.4
144.4
144.4
144.4
144.4
144.4
144.4
144.4
144.4
144.4
144.401
144.401
144.402
144.403
144.404
144.407
144.41
144.416
144.424
144.438
144.458
144.49
144.539
144.615
144.732
144.913
145.192
145.622
146.285
147.303
148.862
151.241
154.855
160.305
168.431
180.431
198.34
144.4
144.4
144.4
144.4
144.4
144.4
144.4
144.4
144.4
144.4
144.4
144.4
144.4
144.4
144.4
144.4
144.4
144.4
144.401
144.401
144.401
144.402
144.403
144.405
144.407
144.411
144.417
144.426
144.441
144.463
144.497
144.549
144.63
144.754
144.946
145.242
145.697
146.396
147.469
149.108
151.602
155.376
161.029
169.372
181.471
198.654
222.426
254.276
295.697
348.323
144.4
144.4
144.4
144.4
144.4
144.4
144.4
144.4
144.4
144.4
144.4
144.4
144.4
144.4
144.401
144.401
144.401
144.402
144.403
144.405
144.408
144.412
144.418
144.428
144.444
144.467
144.503
144.558
144.644
144.775
144.976
145.286
145.763
146.493
147.612
149.319
151.913
155.827
161.672
170.272
182.704
200.267
224.354
256.309
297.287
348.16
409.372
480.798
562.098
652.072
144.4
144.4
144.4
144.4
144.4
144.4
144.4
144.4
144.4
144.4
144.401
144.401
144.402
144.402
144.404
144.405
144.408
144.413
144.42
144.43
144.446
144.471
144.509
144.567
144.656
144.793
145.003
145.325
145.82
146.576
147.732
149.491
152.159
156.173
162.154
170.941
183.613
201.459
225.862
258.131
299.421
350.595
411.902
482.847
562.477
649.863
743.205
840.036
939.652
1042.19
144.4
144.4
144.4
144.4
144.4
144.4
144.401
144.401
144.402
144.403
144.404
144.406
144.409
144.414
144.421
144.432
144.449
144.474
144.514
144.574
144.667
144.808
145.025
145.357
145.866
146.642
147.825
149.624
152.343
156.426
162.494
171.385
184.173
202.135
226.662
259.089
300.544
351.801
413.063
483.791
563.137
649.637
741.133
836.321
934.572
1036.22
1139.84
1243.88
1346.22
1445.44
144.4
144.401
144.401
144.401
144.402
144.403
144.404
144.406
144.409
144.414
144.422
144.433
144.451
144.477
144.518
144.58
144.676
144.821
145.043
145.382
145.9
146.69
147.891
149.713
152.462
156.58
162.687
171.616
184.429
202.388
226.864
259.186
300.445
351.327
412.042
482.249
561.053
647.02
738.285
833.559
932.546
1035.32
1140.15
1243.78
1344.68
1441.82
1534.36
1621.81
1703.47
1778.85
144.402
144.403
144.404
144.407
144.41
144.415
144.423
144.435
144.453
144.48
144.522
144.586
144.683
144.831
145.057
145.401
145.924
146.721
147.93
149.759
152.514
156.632
162.728
171.625
184.369
202.204
226.481
258.506
299.359
349.721
409.767
479.168
557.132
642.53
733.898
829.766
929.373
1032.11
1136.31
1239.66
1340.56
1437.4
1530.1
1618.97
1702.83
1779.93
1848.6
1908.03
1957.99
1999.89
144.411
144.416
144.424
144.437
144.455
144.483
144.526
144.591
144.69
144.84
145.068
145.415
145.941
146.738
147.946
149.769
152.508
156.594
162.631
171.426
184.008
201.597
225.522
257.073
297.324
346.961
406.18
474.675
551.7
636.192
726.901
822.465
921.596
1023.17
1126.12
1229.14
1330.53
1428.75
1523.4
1614.48
1701
1781.29
1853.65
1916.89
1970.54
2014.7
2050.23
2078.61
2100.94
2118.98
144.458
144.487
144.531
144.597
144.698
144.85
145.08
145.427
145.954
146.749
147.949
149.756
152.462
156.49
162.428
171.063
183.4
200.632
224.063
254.969
294.42
343.121
401.301
468.694
544.607
628.029
717.757
812.512
911.008
1012.02
1114.41
1217.1
1318.91
1418.66
1515.33
1608.26
1696.71
1779.41
1854.91
1921.94
1979.48
2027.46
2066.86
2098.77
2124.08
2143.69
2158.63
2170.09
2178.81
2185.79
144.707
144.861
145.093
145.442
145.968
146.76
147.951
149.736
152.401
156.355
162.168
170.604
182.636
199.426
222.249
252.362
290.839
338.404
395.328
461.401
535.987
618.135
706.696
800.437
898.11
998.512
1100.51
1203.06
1305.1
1405.53
1503.38
1597.78
1687.89
1772.72
1851.06
1921.67
1983.49
2036.11
2079.98
2115.83
2144.38
2166.64
2183.91
2197.26
2207.47
2215.16
2220.84
2225
2227.97
2230.24
145.464
145.991
146.782
147.964
149.728
152.352
156.229
161.909
170.129
181.826
198.127
220.27
249.492
286.863
333.13
388.611
453.156
526.197
606.848
694.022
786.533
883.184
982.796
1084.26
1186.53
1288.64
1389.53
1488.2
1583.78
1675.44
1762.31
1843.35
1917.39
1983.35
2040.55
2088.9
2128.81
2161
2186.5
2206.52
2222.09
2234.01
2243.06
2249.95
2255.14
2258.88
2261.48
2263.26
2264.45
2265.15
2265.09
149.755
152.345
156.156
161.714
169.726
181.094
196.901
218.346
246.635
282.831
327.699
381.601
444.451
515.755
594.697
680.255
771.305
866.693
965.286
1065.99
1167.79
1269.73
1370.86
1470.18
1566.77
1659.8
1748.49
1831.96
1909.13
1978.93
2040.46
2093.3
2137.58
2173.84
2202.96
2226.01
2244.04
2257.99
2268.75
2277.04
2283.38
2288.07
2291.44
2293.87
2295.64
2296.89
2297.32
2296.93
2295.7
2293.91
2291.6
161.648
169.489
180.567
195.921
216.704
244.085
279.108
322.549
374.807
435.858
505.282
582.34
666.078
755.437
849.318
946.634
1046.33
1147.4
1248.92
1349.99
1449.69
1547.08
1641.28
1731.55
1817.11
1897.05
1970.34
2035.97
2093.28
2142.07
2182.63
2215.67
2242.12
2263.01
2279.36
2292.06
2301.9
2309.49
2315.3
2319.63
2322.84
2325.23
2326.99
2328.15
2328.51
2328.02
2326.78
2324.93
2322.51
2319.68
2316.47
2312.99
215.574
242.137
276.066
318.133
368.764
427.989
495.459
570.511
652.268
739.735
831.877
927.657
1026.07
1126.14
1226.96
1327.65
1427.39
1525.27
1620.39
1711.97
1799.29
1881.58
1957.92
2027.32
2088.92
2142.24
2187.3
2224.53
2254.71
2278.81
2297.85
2312.77
2324.41
2333.48
2340.55
2345.97
2350.02
2353.09
2355.48
2357.27
2358.43
2358.65
2358.09
2356.94
2355.17
2352.85
2350.12
2347
2343.59
2339.89
2335.89
2331.56
364.011
421.467
486.987
559.984
639.658
725.084
815.288
909.296
1006.15
1104.94
1204.75
1304.75
1404.15
1502.14
1597.84
1690.42
1779.16
1863.37
1942.27
2014.96
2080.52
2138.24
2187.82
2229.45
2263.68
2291.34
2313.39
2330.82
2344.51
2355.24
2363.67
2370.29
2375.37
2379.24
2382.29
2384.73
2386.53
2387.61
2387.83
2387.21
2386.15
2384.5
2382.33
2379.75
2376.83
2373.6
2370.06
2366.16
2361.91
2357.32
2352.42
2347.16
629.101
712.393
800.512
892.548
987.607
1084.81
1183.32
1282.31
1381.01
1478.69
1574.55
1667.77
1757.56
1843.27
1924.22
1999.64
2068.65
2130.43
2184.42
2230.51
2268.99
2300.51
2325.91
2346.17
2362.19
2374.82
2384.77
2392.66
2398.87
2403.65
2407.39
2410.45
2412.94
2414.74
2415.79
2416
2415.5
2414.53
2412.97
2410.95
2408.55
2405.85
2402.82
2399.45
2395.71
2391.64
2387.22
2382.44
2377.29
2371.75
2365.88
2359.6
971.49
1066.87
1163.78
1261.43
1359.1
1456.06
1551.63
1645.03
1735.47
1822.25
1904.75
1982.31
2054.17
2119.49
2177.56
2227.98
2270.78
2306.36
2335.41
2358.79
2377.43
2392.21
2403.9
2413.18
2420.58
2426.43
2430.97
2434.62
2437.71
2440.19
2441.99
2443
2443.22
2442.89
2442.05
2440.63
2438.78
2436.57
2434.07
2431.24
2428.04
2424.5
2420.62
2416.38
2411.78
2406.8
2401.44
2395.7
2389.58
2383.05
2376.15
2368.82
1339.57
1435.45
1530.28
1623.37
1713.99
1801.4
1884.96
1964.09
2038.13
2106.35
2167.97
2222.4
2269.39
2309.08
2341.97
2368.75
2390.29
2407.48
2421.14
2431.99
2440.65
2447.6
2453.1
2457.44
2461.03
2464.15
2466.58
2468.35
2469.39
2469.59
2469.41
2468.72
2467.45
2465.8
2463.83
2461.53
2458.88
2455.87
2452.53
2448.85
2444.81
2440.4
2435.6
2430.44
2424.89
2418.95
2412.6
2405.86
2398.72
2391.15
2383.2
2374.79
1694.35
1781.89
1866.02
1946.16
2021.75
2092.17
2156.67
2214.59
2265.44
2309.12
2345.87
2376.21
2400.89
2420.73
2436.59
2449.21
2459.28
2467.38
2473.9
2479.05
2483.22
2486.75
2489.84
2492.25
2493.9
2495
2495.33
2495.2
2494.61
2493.5
2492.05
2490.3
2488.21
2485.77
2482.97
2479.84
2476.36
2472.51
2468.3
2463.71
2458.75
2453.4
2447.65
2441.51
2434.97
2428.03
2420.66
2412.88
2404.7
2396.07
2387.03
2377.53
2078.22
2144.87
2205.6
2259.79
2307.13
2347.59
2381.52
2409.46
2432.15
2450.4
2465
2476.65
2485.99
2493.55
2499.62
2504.45
2508.46
2511.92
2514.93
2517.28
2518.85
2519.92
2520.4
2520.32
2519.83
2518.91
2517.64
2516.08
2514.17
2511.92
2509.34
2506.42
2503.16
2499.52
2495.51
2491.14
2486.38
2481.24
2475.71
2469.78
2463.45
2456.72
2449.57
2442
2434.03
2425.62
2416.78
2407.53
2397.92
2387.93
2377.45
2304.01
2347.87
2385.2
2416.4
2442.03
2462.84
2479.57
2492.96
2503.68
2512.32
2519.32
2524.95
2529.47
2533.29
2536.64
2539.52
2541.79
2543.31
2544.35
2544.92
2544.88
2544.47
2543.71
2542.62
2541.22
2539.49
2537.42
2535.04
2532.33
2529.27
2525.84
2522.06
2517.91
2513.37
2508.45
2503.13
2497.42
2491.32
2484.8
2477.88
2470.54
2462.79
2454.61
2446
2436.97
2427.58
2417.8
2407.6
2396.97
2385.95
2374.43
2450.83
2474.24
2493.21
2508.47
2520.71
2530.51
2538.44
2544.9
2550.07
2554.27
2557.88
2561.08
2563.81
2565.89
2567.38
2568.42
2569.01
2569.01
2568.65
2568.02
2567.07
2565.81
2564.24
2562.35
2560.16
2557.63
2554.76
2551.54
2547.97
2544.04
2539.72
2535.02
2529.94
2524.46
2518.58
2512.3
2505.61
2498.5
2490.98
2483.05
2474.67
2465.88
2456.71
2447.16
2437.19
2426.81
2416.02
2404.81
2393.14
2381.07
2368.48
2548.44
2557.34
2564.56
2570.43
2575.12
2579
2582.38
2585.38
2587.92
2589.83
2591.19
2592.23
2592.76
2592.78
2592.5
2591.97
2591.12
2589.96
2588.51
2586.78
2584.75
2582.4
2579.71
2576.69
2573.32
2569.59
2565.49
2561.01
2556.16
2550.91
2545.27
2539.22
2532.77
2525.91
2518.63
2510.94
2502.82
2494.27
2485.32
2476.01
2466.29
2456.15
2445.61
2434.64
2423.24
2411.41
2399.16
2386.48
2373.39
2359.78
2596.1
2600.29
2603.81
2606.92
2609.67
2612.01
2613.71
2614.93
2615.92
2616.36
2616.35
2616.11
2615.64
2614.85
2613.78
2612.44
2610.83
2608.93
2606.72
2604.2
2601.35
2598.17
2594.63
2590.74
2586.48
2581.84
2576.82
2571.41
2565.61
2559.4
2552.78
2545.75
2538.31
2530.45
2522.15
2513.44
2504.37
2494.9
2485.01
2474.72
2464.02
2452.87
2441.3
2429.31
2416.9
2404.07
2390.83
2377.16
2363.08
2348.5
2631.65
2634.12
2636.14
2637.64
2638.74
2639.62
2639.94
2639.87
2639.63
2639.17
2638.4
2637.37
2636.11
2634.6
2632.8
2630.71
2628.32
2625.62
2622.6
2619.24
2615.54
2611.48
2607.05
2602.25
2597.06
2591.49
2585.52
2579.15
2572.38
2565.18
2557.58
2549.55
2541.09
2532.27
2523.05
2513.41
2503.38
2492.94
2482.06
2470.76
2459.04
2446.89
2434.33
2421.35
2407.96
2394.16
2379.95
2365.33
2350.31
2334.8
2661.77
2662.72
2663.42
2663.58
2663.45
2663.18
2662.68
2661.89
2660.87
2659.66
2658.19
2656.46
2654.46
2652.18
2649.61
2646.72
2643.51
2639.98
2636.09
2631.86
2627.26
2622.29
2616.94
2611.2
2605.07
2598.54
2591.6
2584.26
2576.48
2568.29
2559.71
2550.75
2541.38
2531.6
2521.42
2510.83
2499.79
2488.34
2476.47
2464.18
2451.48
2438.36
2424.83
2410.9
2396.56
2381.82
2366.7
2351.17
2335.25
2318.86
2687.44
2687.22
2686.88
2686.29
2685.44
2684.41
2683.19
2681.74
2680.03
2678.09
2675.89
2673.4
2670.62
2667.54
2664.15
2660.42
2656.35
2651.93
2647.16
2642.01
2636.49
2630.59
2624.3
2617.6
2610.5
2603
2595.07
2586.73
2578.02
2568.92
2559.41
2549.5
2539.18
2528.43
2517.25
2505.66
2493.65
2481.22
2468.38
2455.13
2441.48
2427.42
2412.96
2398.11
2382.86
2367.23
2351.23
2334.84
2318.08
2300.86
2710.11
2709.18
2708.1
2706.84
2705.36
2703.65
2701.73
2699.56
2697.13
2694.42
2691.44
2688.15
2684.55
2680.62
2676.37
2671.76
2666.8
2661.48
2655.79
2649.71
2643.25
2636.39
2629.14
2621.47
2613.39
2604.92
2596.08
2586.83
2577.19
2567.14
2556.68
2545.78
2534.47
2522.74
2510.6
2498.05
2485.08
2471.71
2457.93
2443.75
2429.18
2414.22
2398.86
2383.13
2367.02
2350.55
2333.72
2316.52
2298.98
2281.01
2730.7
2729.15
2727.41
2725.47
2723.31
2720.89
2718.23
2715.3
2712.09
2708.59
2704.77
2700.65
2696.19
2691.39
2686.24
2680.74
2674.86
2668.62
2661.98
2654.96
2647.54
2639.71
2631.48
2622.89
2613.91
2604.52
2594.75
2584.57
2573.96
2562.93
2551.49
2539.64
2527.37
2514.69
2501.61
2488.12
2474.23
2459.94
2445.26
2430.19
2414.73
2398.9
2382.7
2366.13
2349.21
2331.95
2314.35
2296.41
2278.18
2259.53
2747.23
2744.8
2742.15
2739.24
2736.08
2732.63
2728.9
2724.87
2720.53
2715.86
2710.87
2705.52
2699.83
2693.77
2687.35
2680.54
2673.35
2665.77
2657.78
2649.41
2640.68
2631.55
2622.04
2612.14
2601.81
2591.07
2579.92
2568.35
2556.37
2543.98
2531.19
2517.99
2504.39
2490.39
2476
2461.22
2446.05
2430.5
2414.58
2398.29
2381.63
2364.63
2347.29
2329.62
2311.63
2293.35
2274.73
2255.84
2236.58
2763.36
2760.2
2756.79
2753.11
2749.14
2744.89
2740.32
2735.44
2730.24
2724.69
2718.8
2712.56
2705.95
2698.97
2691.61
2683.85
2675.71
2667.21
2658.33
2649.07
2639.42
2629.38
2618.92
2608.05
2596.77
2585.08
2572.98
2560.48
2547.58
2534.27
2520.57
2506.47
2491.98
2477.1
2461.83
2446.19
2430.18
2413.81
2397.08
2380
2362.58
2344.84
2326.79
2308.43
2289.78
2270.85
2251.62
2232.15
2212.33
2777.48
2773.55
2769.35
2764.86
2760.07
2754.97
2749.55
2743.8
2737.71
2731.27
2724.47
2717.31
2709.77
2701.85
2693.55
2684.91
2675.88
2666.48
2656.7
2646.52
2635.92
2624.93
2613.52
2601.71
2589.51
2576.89
2563.88
2550.47
2536.67
2522.47
2507.89
2492.92
2477.57
2461.85
2445.75
2429.3
2412.49
2395.34
2377.86
2360.06
2341.94
2323.52
2304.81
2285.81
2266.55
2247.04
2227.23
2207.29
2186.97
2784.82
2779.79
2774.47
2768.83
2762.87
2756.57
2749.93
2742.94
2735.6
2727.88
2719.79
2711.35
2702.55
2693.37
2683.83
2673.92
2663.59
2652.86
2641.74
2630.21
2618.29
2605.97
2593.25
2580.14
2566.63
2552.73
2538.44
2523.77
2508.71
2493.28
2477.48
2461.31
2444.78
2427.91
2410.69
2393.15
2375.29
2357.11
2338.63
2319.85
2300.8
2281.48
2261.9
2242.1
2222.07
2201.76
2181.41
2160.68
2793.97
2788.11
2781.93
2775.43
2768.59
2761.41
2753.87
2745.97
2737.7
2729.11
2720.15
2710.83
2701.15
2691.09
2680.62
2669.77
2658.52
2646.88
2634.84
2622.41
2609.59
2596.37
2582.77
2568.78
2554.4
2539.64
2524.5
2508.99
2493.12
2476.88
2460.29
2443.35
2426.07
2408.47
2390.55
2372.31
2353.77
2334.95
2315.84
2296.45
2276.84
2256.96
2236.87
2216.6
2196.12
2175.42
2154.69
2133.62
2794.31
2787.26
2779.88
2772.15
2764.07
2755.64
2746.88
2737.75
2728.29
2718.47
2708.25
2697.65
2686.67
2675.29
2663.53
2651.39
2638.85
2625.92
2612.61
2598.91
2584.83
2570.37
2555.53
2540.32
2524.73
2508.79
2492.48
2475.83
2458.83
2441.5
2423.85
2405.87
2387.58
2368.99
2350.11
2330.95
2311.52
2291.84
2271.9
2251.79
2231.43
2210.89
2190.21
2169.36
2148.33
2127.3
2105.97
2798.39
2790.46
2782.19
2773.6
2764.67
2755.39
2745.78
2735.8
2725.44
2714.7
2703.59
2692.09
2680.21
2667.95
2655.31
2642.29
2628.88
2615.09
2600.92
2586.38
2571.46
2556.17
2540.52
2524.51
2508.15
2491.44
2474.39
2457
2439.29
2421.27
2402.93
2384.29
2365.36
2346.16
2326.68
2306.94
2286.98
2266.79
2246.36
2225.81
2205.03
2184.12
2163.1
2141.94
2120.67
2099.41
2077.9
2791.6
2782.5
2773.07
2763.3
2753.17
2742.67
2731.8
2720.55
2708.93
2696.93
2684.56
2671.82
2658.69
2645.19
2631.32
2617.07
2602.44
2587.45
2572.1
2556.38
2540.31
2523.89
2507.12
2490.02
2472.59
2454.83
2436.76
2418.38
2399.69
2380.72
2361.47
2341.94
2322.18
2302.16
2281.91
2261.47
2240.83
2219.99
2199.06
2177.92
2156.72
2135.41
2114.02
2092.57
2071.15
2049.54
2790.8
2780.88
2770.59
2759.94
2748.94
2737.56
2725.82
2713.71
2701.23
2688.38
2675.16
2661.57
2647.61
2633.27
2618.58
2603.52
2588.09
2572.32
2556.19
2539.72
2522.91
2505.76
2488.28
2470.48
2452.37
2433.94
2415.22
2396.2
2376.91
2357.35
2337.54
2317.47
2297.2
2276.7
2256
2235.14
2214.12
2192.92
2171.67
2150.25
2128.81
2107.29
2085.75
2064.18
2042.68
2021.04
2788.07
2777.28
2766.14
2754.64
2742.78
2730.55
2717.97
2705.01
2691.7
2678.02
2663.97
2649.56
2634.79
2619.67
2604.18
2588.35
2572.18
2555.65
2538.79
2521.6
2504.09
2486.24
2468.09
2449.63
2430.87
2411.82
2392.5
2372.9
2353.05
2332.96
2312.64
2292.09
2271.37
2250.45
2229.36
2208.13
2186.79
2165.3
2143.79
2122.15
2100.53
2078.88
2057.24
2035.62
2014.11
1992.52
2783.4
2771.77
2759.79
2747.46
2734.77
2721.72
2708.31
2694.54
2680.42
2665.94
2651.1
2635.91
2620.37
2604.49
2588.26
2571.7
2554.8
2537.57
2520.01
2502.13
2483.95
2465.45
2446.66
2427.58
2408.23
2388.6
2368.72
2348.6
2328.24
2307.67
2286.9
2265.93
2244.81
2223.52
2202.11
2180.58
2158.96
2137.25
2115.54
2093.76
2072.02
2050.29
2028.63
2007.03
1985.57
1964.09
2776.87
2764.43
2751.64
2738.49
2725
2711.15
2696.95
2682.4
2667.5
2652.26
2636.67
2620.73
2604.46
2587.86
2570.92
2553.65
2536.06
2518.15
2499.94
2481.41
2462.6
2443.49
2424.11
2404.46
2384.56
2364.41
2344.03
2323.42
2302.62
2281.62
2260.46
2239.11
2217.66
2196.05
2174.37
2152.59
2130.78
2108.9
2087.05
2065.18
2043.39
2021.65
2000.03
1978.5
1957.16
1935.85
2768.56
2755.33
2741.75
2727.83
2713.56
2698.95
2683.99
2668.7
2653.06
2637.08
2620.77
2604.13
2587.15
2569.86
2552.24
2534.31
2516.06
2497.52
2478.68
2459.56
2440.16
2420.49
2400.57
2380.4
2359.99
2339.36
2318.54
2297.5
2276.3
2254.92
2233.42
2211.76
2190.02
2168.16
2146.26
2124.3
2102.34
2080.35
2058.43
2036.53
2014.75
1993.06
1971.53
1950.14
1928.98
1907.9
2758.55
2744.56
2730.23
2715.57
2700.56
2685.21
2669.54
2653.52
2637.18
2620.5
2603.5
2586.18
2568.54
2550.58
2532.32
2513.76
2494.91
2475.78
2456.36
2436.68
2416.75
2396.56
2376.14
2355.49
2334.64
2313.58
2292.36
2270.95
2249.4
2227.7
2205.9
2183.98
2162.01
2139.96
2117.9
2095.81
2073.76
2051.72
2029.79
2007.91
1986.2
1964.61
1943.23
1922.03
1901.1
1880.31
2732.23
2717.18
2701.8
2686.08
2670.04
2653.66
2636.96
2619.94
2602.6
2584.94
2566.98
2548.71
2530.14
2511.28
2492.14
2472.72
2453.03
2433.09
2412.89
2392.47
2371.81
2350.94
2329.87
2308.62
2287.18
2265.6
2243.87
2222.02
2200.05
2178.02
2155.89
2133.75
2111.56
2089.39
2067.23
2045.14
2023.11
2001.21
1979.42
1957.82
1936.39
1915.22
1894.26
1873.61
1853.15
2718.42
2702.68
2686.61
2670.21
2653.49
2636.46
2619.1
2601.44
2583.47
2565.2
2546.63
2527.77
2508.63
2489.21
2469.53
2449.58
2429.39
2408.96
2388.3
2367.43
2346.35
2325.08
2303.63
2282.02
2260.26
2238.38
2216.37
2194.27
2172.09
2149.87
2127.59
2105.32
2083.04
2060.82
2038.64
2016.57
1994.59
1972.78
1951.12
1929.69
1908.48
1887.55
1866.89
1846.56
1826.47
2703.2
2686.79
2670.06
2653.02
2635.67
2618.01
2600.04
2581.77
2563.21
2544.36
2525.23
2505.83
2486.15
2466.22
2446.04
2425.62
2404.96
2384.09
2363.01
2341.74
2320.28
2298.66
2276.88
2254.96
2232.92
2210.78
2188.55
2166.26
2143.91
2121.55
2099.17
2076.83
2054.51
2032.28
2010.13
1988.12
1966.25
1944.58
1923.1
1901.89
1880.93
1860.3
1839.97
1820.01
1800.33
2669.61
2652.26
2634.61
2616.66
2598.41
2579.87
2561.04
2541.93
2522.54
2502.89
2482.98
2462.81
2442.41
2421.77
2400.91
2379.84
2358.57
2337.12
2315.49
2293.7
2271.77
2249.7
2227.53
2205.26
2182.91
2160.5
2138.06
2115.6
2093.15
2070.71
2048.34
2026.04
2003.85
1981.78
1959.89
1938.17
1916.68
1895.43
1874.47
1853.81
1833.5
1813.54
1793.99
1774.75
2651.22
2633.29
2615.07
2596.55
2577.75
2558.68
2539.32
2519.7
2499.82
2479.69
2459.31
2438.7
2417.87
2396.82
2375.57
2354.12
2332.5
2310.71
2288.77
2266.7
2244.5
2222.2
2199.82
2177.36
2154.85
2132.31
2109.77
2087.24
2064.74
2042.3
2019.95
1997.7
1975.6
1953.66
1931.92
1910.39
1889.13
1868.14
1847.48
1827.15
1807.21
1787.65
1768.53
1749.76
2631.71
2613.23
2594.48
2575.44
2556.14
2536.56
2516.72
2496.63
2476.3
2455.73
2434.93
2413.91
2392.69
2371.27
2349.67
2327.89
2305.96
2283.89
2261.68
2239.37
2216.95
2194.46
2171.91
2149.31
2126.69
2104.06
2081.46
2058.9
2036.41
2014
1991.72
1969.57
1947.6
1925.82
1904.27
1882.98
1861.98
1841.29
1820.96
1801
1781.45
1762.33
1743.66
1725.38
2611.17
2592.19
2572.94
2553.42
2533.64
2513.61
2493.33
2472.81
2452.06
2431.09
2409.91
2388.53
2366.96
2345.22
2323.31
2301.25
2279.05
2256.73
2234.3
2211.79
2189.2
2166.56
2143.88
2121.18
2098.49
2075.83
2053.21
2030.67
2008.22
1985.89
1963.71
1941.7
1919.89
1898.31
1877
1855.97
1835.27
1814.91
1794.94
1775.37
1756.25
1737.58
1719.39
1701.61
2570.24
2550.53
2530.57
2510.36
2489.91
2469.22
2448.32
2427.2
2405.87
2384.35
2362.65
2340.77
2318.74
2296.56
2274.26
2251.83
2229.31
2206.71
2184.03
2161.31
2138.56
2115.8
2093.05
2070.33
2047.67
2025.08
2002.59
1980.22
1958.01
1935.97
1914.13
1892.53
1871.19
1850.14
1829.41
1809.04
1789.04
1769.46
1750.3
1731.62
1713.42
1695.72
1678.47
2547.46
2527.33
2506.97
2486.36
2465.54
2444.49
2423.23
2401.78
2380.14
2358.32
2336.33
2314.19
2291.92
2269.52
2247
2224.4
2201.72
2178.97
2156.18
2133.37
2110.55
2087.75
2064.98
2042.28
2019.65
1997.12
1974.72
1952.48
1930.41
1908.55
1886.93
1865.56
1844.49
1823.74
1803.33
1783.31
1763.69
1744.51
1725.8
1707.58
1689.86
1672.66
1655.93
2523.94
2503.43
2482.7
2461.74
2440.58
2419.21
2397.64
2375.89
2353.97
2331.89
2309.67
2287.3
2264.82
2242.24
2219.56
2196.81
2174.01
2151.16
2128.3
2105.43
2082.59
2059.78
2037.03
2014.37
1991.82
1969.39
1947.12
1925.03
1903.15
1881.5
1860.11
1839.02
1818.23
1797.8
1777.75
1758.1
1738.88
1720.13
1701.87
1684.12
1666.89
1650.2
1634
2478.9
2457.84
2436.57
2415.11
2393.45
2371.61
2349.61
2327.45
2305.15
2282.72
2260.17
2237.53
2214.79
2191.99
2169.14
2146.25
2123.34
2100.44
2077.56
2054.72
2031.95
2009.26
1986.68
1964.23
1941.94
1919.83
1897.93
1876.26
1854.85
1833.72
1812.92
1792.45
1772.36
1752.68
1733.42
1714.62
1696.31
1678.51
1661.23
1644.5
1628.33
1612.66
2453.82
2432.47
2410.92
2389.19
2367.29
2345.22
2323
2300.64
2278.16
2255.56
2232.87
2210.09
2187.25
2164.36
2141.44
2118.5
2095.57
2072.66
2049.8
2027.01
2004.3
1981.7
1959.24
1936.93
1914.8
1892.88