/*--------------------------------*- C++ -*----------------------------------*\
| =========                 |                                                 |
| \\      /  F ield         | OpenFOAM: The Open Source CFD Toolbox           |
|  \\    /   O peration     | Version:  v1706                                 |
|   \\  /    A nd           | Web:      www.OpenFOAM.com                      |
|    \\/     M anipulation  |                                                 |
\*---------------------------------------------------------------------------*/
FoamFile
{
    version     2.0;
    format      ascii;
    class       volScalarField;
    location    "7e-06";
    object      Tt;
}
// * * * * * * * * * * * * * * * * * * * * * * * * * * * * * * * * * * * * * //

dimensions      [0 0 0 1 0 0 0];


internalField   nonuniform List<scalar> 
30038
(
144.4
144.4
144.4
144.4
144.4
144.4
144.4
144.4
144.4
144.4
144.4
144.4
144.4
144.4
144.4
144.4
144.4
144.4
144.4
144.4
144.4
144.4
144.4
144.4
144.4
144.4
144.4
144.4
144.4
144.4
144.4
144.4
144.4
144.4
144.4
144.4
144.4
144.4
144.4
144.4
144.4
144.4
144.4
144.4
144.4
144.4
144.4
144.4
144.4
144.4
144.4
144.4
144.4
144.4
144.4
144.4
144.4
144.4
144.4
144.4
144.4
144.4
144.4
144.4
144.4
144.4
144.4
144.4
144.4
144.4
144.4
144.4
144.4
144.4
144.4
144.4
144.4
144.4
144.4
144.4
144.4
144.4
144.4
144.4
144.4
144.4
144.4
144.4
144.4
144.4
144.4
144.4
144.4
144.4
144.4
144.4
144.4
144.4
144.4
144.4
144.4
144.4
144.4
144.4
144.4
144.4
144.4
144.4
144.4
144.4
144.4
144.4
144.4
144.4
144.4
144.4
144.4
144.4
144.4
144.4
144.4
144.4
144.4
144.4
144.4
144.4
144.4
144.4
144.4
144.4
144.4
144.4
144.4
144.4
144.4
144.4
144.4
144.4
144.4
144.4
144.4
144.4
144.4
144.4
144.4
144.4
144.4
144.4
144.4
144.4
144.4
144.4
144.4
144.4
144.4
144.4
144.4
144.4
144.4
144.4
144.4
144.4
144.4
144.4
144.4
144.4
144.4
144.4
144.4
144.4
144.4
144.4
144.4
144.4
144.4
144.4
144.4
144.4
144.4
144.4
144.4
144.4
144.4
144.4
144.4
144.4
144.4
144.4
144.4
144.4
144.4
144.4
144.4
144.4
144.4
144.4
144.4
144.4
144.4
144.4
144.4
144.4
144.4
144.4
144.4
144.4
144.4
144.4
144.4
144.4
144.4
144.4
144.4
144.4
144.4
144.4
144.4
144.4
144.4
144.4
144.4
144.4
144.4
144.4
144.4
144.4
144.4
144.4
144.4
144.4
144.4
144.4
144.4
144.4
144.4
144.4
144.4
144.4
144.4
144.4
144.4
144.4
144.4
144.4
144.4
144.4
144.4
144.4
144.4
144.4
144.4
144.4
144.4
144.4
144.4
144.4
144.4
144.4
144.4
144.4
144.4
144.4
144.4
144.4
144.4
144.4
144.4
144.4
144.4
144.4
144.4
144.4
144.4
144.4
144.4
144.4
144.4
144.4
144.4
144.4
144.4
144.4
144.4
144.4
144.4
144.4
144.4
144.4
144.4
144.4
144.4
144.4
144.4
144.4
144.4
144.4
144.4
144.4
144.4
144.4
144.4
144.4
144.4
144.4
144.4
144.4
144.4
144.4
144.4
144.4
144.4
144.4
144.4
144.4
144.4
144.4
144.4
144.4
144.4
144.4
144.4
144.4
144.4
144.4
144.4
144.4
144.4
144.4
144.4
144.4
144.4
144.4
144.4
144.4
144.4
144.4
144.4
144.4
144.4
144.4
144.4
144.4
144.4
144.4
144.4
144.4
144.4
144.4
144.4
144.4
144.4
144.4
144.4
144.4
144.4
144.4
144.4
144.4
144.4
144.4
144.4
144.4
144.4
144.4
144.4
144.4
144.4
144.4
144.4
144.4
144.4
144.4
144.4
144.4
144.4
144.4
144.4
144.4
144.4
144.4
144.4
144.4
144.4
144.4
144.4
144.4
144.4
144.4
144.4
144.4
144.4
144.4
144.4
144.4
144.4
144.4
144.4
144.4
144.4
144.4
144.4
144.4
144.4
144.4
144.4
144.4
144.4
144.4
144.4
144.4
144.4
144.4
144.4
144.4
144.4
144.4
144.4
144.4
144.4
144.4
144.4
144.4
144.4
144.4
144.4
144.4
144.4
144.4
144.4
144.4
144.4
144.4
144.4
144.4
144.4
144.4
144.4
144.4
144.4
144.4
144.4
144.4
144.4
144.4
144.4
144.4
144.4
144.4
144.4
144.4
144.4
144.4
144.4
144.4
144.4
144.4
144.4
144.4
144.4
144.4
144.4
144.4
144.4
144.4
144.4
144.4
144.4
144.4
144.4
144.4
144.4
144.4
144.4
144.4
144.4
144.4
144.4
144.4
144.4
144.4
144.4
144.4
144.4
144.4
144.4
144.4
144.4
144.4
144.4
144.4
144.4
144.4
144.4
144.4
144.4
144.4
144.4
144.4
144.4
144.4
144.4
144.4
144.4
144.4
144.4
144.4
144.4
144.4
144.4
144.4
144.4
144.4
144.4
144.4
144.4
144.4
144.4
144.4
144.4
144.4
144.4
144.4
144.4
144.4
144.4
144.4
144.4
144.4
144.4
144.4
144.4
144.4
144.4
144.4
144.4
144.4
144.4
144.4
144.4
144.4
144.4
144.4
144.4
144.4
144.4
144.4
144.4
144.4
144.4
144.4
144.4
144.4
144.4
144.4
144.4
144.4
144.4
144.4
144.4
144.4
144.4
144.4
144.4
144.4
144.4
144.4
144.4
144.4
144.4
144.4
144.4
144.4
144.4
144.4
144.4
144.4
144.4
144.4
144.4
144.4
144.4
144.4
144.4
144.4
144.4
144.4
144.4
144.4
144.4
144.4
144.4
144.4
144.4
144.4
144.4
144.4
144.4
144.4
144.4
144.4
144.4
144.4
144.4
144.4
144.4
144.4
144.4
144.4
144.4
144.4
144.4
144.4
144.4
144.4
144.4
144.4
144.4
144.4
144.4
144.4
144.4
144.4
144.4
144.4
144.4
144.4
144.4
144.4
144.4
144.4
144.4
144.4
144.4
144.4
144.4
144.4
144.4
144.4
144.4
144.4
144.4
144.4
144.4
144.4
144.4
144.4
144.4
144.4
144.4
144.4
144.4
144.4
144.4
144.4
144.4
144.4
144.4
144.4
144.4
144.4
144.4
144.4
144.4
144.4
144.4
144.4
144.4
144.4
144.4
144.4
144.4
144.4
144.4
144.4
144.4
144.4
144.4
144.4
144.4
144.4
144.4
144.4
144.4
144.4
144.4
144.4
144.4
144.4
144.4
144.4
144.4
144.4
144.4
144.4
144.4
144.4
144.4
144.4
144.4
144.4
144.4
144.4
144.4
144.4
144.4
144.4
144.4
144.4
144.4
144.4
144.4
144.4
144.4
144.4
144.4
144.4
144.4
144.4
144.4
144.4
144.4
144.4
144.4
144.4
144.4
144.4
144.4
144.4
144.4
144.4
144.4
144.4
144.4
144.4
144.4
144.4
144.4
144.4
144.4
144.4
144.4
144.4
144.4
144.4
144.4
144.4
144.4
144.4
144.4
144.4
144.4
144.4
144.4
144.4
144.4
144.4
144.4
144.4
144.4
144.4
144.4
144.4
144.4
144.4
144.4
144.4
144.4
144.4
144.4
144.4
144.4
144.4
144.4
144.4
144.4
144.4
144.4
144.4
144.4
144.4
144.4
144.4
144.4
144.4
144.4
144.4
144.4
144.4
144.4
144.4
144.4
144.4
144.4
144.4
144.4
144.4
144.4
144.4
144.4
144.4
144.4
144.4
144.4
144.4
144.4
144.4
144.4
144.4
144.4
144.4
144.4
144.4
144.4
144.4
144.4
144.4
144.4
144.4
144.4
144.4
144.4
144.4
144.4
144.4
144.4
144.4
144.4
144.4
144.4
144.4
144.4
144.4
144.4
144.4
144.4
144.4
144.4
144.4
144.4
144.4
144.4
144.4
144.4
144.4
144.4
144.4
144.4
144.4
144.4
144.4
144.4
144.4
144.4
144.4
144.4
144.4
144.4
144.4
144.4
144.4
144.4
144.4
144.4
144.4
144.4
144.4
144.4
144.4
144.4
144.4
144.4
144.4
144.4
144.4
144.4
144.4
144.4
144.4
144.4
144.4
144.4
144.4
144.4
144.4
144.4
144.4
144.4
144.4
144.4
144.4
144.4
144.4
144.4
144.4
144.4
144.4
144.4
144.4
144.4
144.4
144.4
144.4
144.4
144.4
144.4
144.4
144.4
144.4
144.4
144.4
144.4
144.4
144.4
144.4
144.4
144.4
144.4
144.4
144.4
144.4
144.4
144.4
144.4
144.4
144.4
144.4
144.4
144.4
144.4
144.4
144.4
144.4
144.4
144.4
144.4
144.4
144.4
144.4
144.4
144.4
144.4
144.4
144.4
144.4
144.4
144.4
144.4
144.4
144.4
144.4
144.4
144.4
144.4
144.4
144.4
144.4
144.4
144.4
144.4
144.4
144.4
144.4
144.4
144.4
144.4
144.4
144.4
144.4
144.4
144.4
144.4
144.4
144.4
144.4
144.4
144.4
144.4
144.4
144.4
144.4
144.4
144.4
144.4
144.4
144.4
144.4
144.4
144.4
144.4
144.4
144.4
144.4
144.4
144.4
144.4
144.4
144.4
144.4
144.4
144.4
144.4
144.4
144.4
144.4
144.4
144.4
144.4
144.4
144.4
144.4
144.4
144.4
144.4
144.4
144.4
144.4
144.4
144.4
144.4
144.4
144.4
144.4
144.4
144.4
144.4
144.4
144.4
144.4
144.4
144.4
144.4
144.4
144.4
144.4
144.4
144.4
144.4
144.4
144.4
144.4
144.4
144.4
144.4
144.4
144.4
144.4
144.4
144.4
144.4
144.4
144.4
144.4
144.4
144.4
144.4
144.4
144.4
144.4
144.4
144.4
144.4
144.4
144.4
144.4
144.4
144.4
144.4
144.4
144.4
144.4
144.4
144.4
144.4
144.4
144.4
144.4
144.4
144.4
144.4
144.4
144.4
144.4
144.4
144.4
144.4
144.4
144.4
144.4
144.4
144.4
144.4
144.4
144.4
144.4
144.4
144.4
144.4
144.4
144.4
144.4
144.4
144.4
144.4
144.4
144.4
144.4
144.4
144.4
144.4
144.4
144.4
144.4
144.4
144.4
144.4
144.4
144.4
144.4
144.4
144.4
144.4
144.4
144.4
144.4
144.4
144.4
144.4
144.4
144.4
144.4
144.4
144.4
144.4
144.4
144.4
144.4
144.4
144.4
144.4
144.4
144.401
144.401
144.4
144.4
144.4
144.4
144.4
144.4
144.4
144.4
144.4
144.4
144.4
144.4
144.4
144.4
144.4
144.4
144.4
144.4
144.4
144.4
144.4
144.4
144.4
144.4
144.4
144.4
144.4
144.4
144.4
144.4
144.4
144.4
144.4
144.4
144.4
144.4
144.4
144.4
144.4
144.4
144.4
144.4
144.4
144.4
144.401
144.401
144.402
144.402
144.404
144.407
144.4
144.4
144.4
144.4
144.4
144.4
144.4
144.4
144.4
144.4
144.4
144.4
144.4
144.4
144.4
144.4
144.4
144.4
144.4
144.4
144.4
144.4
144.4
144.4
144.4
144.4
144.4
144.4
144.4
144.4
144.4
144.4
144.4
144.4
144.4
144.4
144.4
144.4
144.4
144.4
144.401
144.401
144.402
144.403
144.404
144.407
144.411
144.417
144.426
144.443
144.4
144.4
144.4
144.4
144.4
144.4
144.4
144.4
144.4
144.4
144.4
144.4
144.4
144.4
144.4
144.4
144.4
144.4
144.4
144.4
144.4
144.4
144.4
144.4
144.4
144.4
144.4
144.4
144.4
144.4
144.4
144.4
144.4
144.4
144.4
144.401
144.401
144.401
144.402
144.403
144.405
144.408
144.412
144.418
144.429
144.444
144.469
144.508
144.57
144.678
144.4
144.4
144.4
144.4
144.4
144.4
144.4
144.4
144.4
144.4
144.4
144.4
144.4
144.4
144.4
144.4
144.4
144.4
144.4
144.4
144.4
144.4
144.4
144.4
144.4
144.4
144.4
144.4
144.4
144.4
144.4
144.401
144.401
144.401
144.402
144.404
144.405
144.408
144.413
144.42
144.432
144.449
144.476
144.518
144.583
144.684
144.841
145.086
145.473
146.14
144.4
144.4
144.4
144.4
144.4
144.4
144.4
144.4
144.4
144.4
144.4
144.4
144.4
144.4
144.4
144.4
144.4
144.4
144.4
144.4
144.4
144.4
144.4
144.4
144.4
144.4
144.4
144.401
144.401
144.402
144.403
144.404
144.406
144.409
144.415
144.422
144.435
144.454
144.483
144.529
144.599
144.708
144.877
145.138
145.541
146.164
147.129
148.619
150.938
154.755
144.4
144.4
144.4
144.4
144.4
144.4
144.4
144.4
144.4
144.4
144.4
144.4
144.4
144.4
144.4
144.4
144.4
144.4
144.4
144.4
144.4
144.4
144.4
144.401
144.401
144.402
144.403
144.404
144.407
144.41
144.416
144.424
144.438
144.458
144.49
144.539
144.615
144.732
144.913
145.192
145.622
146.285
147.303
148.862
151.241
154.855
160.305
168.431
180.431
198.34
144.4
144.4
144.4
144.4
144.4
144.4
144.4
144.4
144.4
144.4
144.4
144.4
144.4
144.4
144.4
144.4
144.4
144.4
144.401
144.401
144.401
144.402
144.403
144.405
144.407
144.411
144.417
144.426
144.441
144.463
144.497
144.549
144.63
144.754
144.946
145.242
145.697
146.396
147.469
149.108
151.602
155.376
161.029
169.372
181.471
198.654
222.426
254.276
295.697
348.323
144.4
144.4
144.4
144.4
144.4
144.4
144.4
144.4
144.4
144.4
144.4
144.4
144.4
144.4
144.401
144.401
144.401
144.402
144.403
144.405
144.408
144.412
144.418
144.428
144.444
144.467
144.503
144.558
144.644
144.775
144.976
145.286
145.763
146.493
147.612
149.319
151.913
155.827
161.672
170.272
182.704
200.267
224.354
256.309
297.287
348.161
409.372
480.798
562.099
652.073
144.4
144.4
144.4
144.4
144.4
144.4
144.4
144.4
144.4
144.4
144.401
144.401
144.402
144.402
144.404
144.405
144.408
144.413
144.42
144.43
144.446
144.471
144.509
144.567
144.656
144.793
145.003
145.325
145.82
146.576
147.732
149.491
152.159
156.173
162.154
170.941
183.613
201.459
225.862
258.131
299.421
350.595
411.902
482.847
562.478
649.864
743.207
840.039
939.656
1042.2
144.4
144.4
144.4
144.4
144.4
144.4
144.401
144.401
144.402
144.403
144.404
144.406
144.409
144.414
144.421
144.432
144.449
144.474
144.514
144.574
144.667
144.808
145.025
145.357
145.866
146.642
147.825
149.624
152.343
156.426
162.494
171.385
184.173
202.135
226.662
259.089
300.544
351.801
413.063
483.792
563.138
649.639
741.135
836.324
934.576
1036.22
1139.85
1243.89
1346.23
1445.45
144.4
144.401
144.401
144.401
144.402
144.403
144.404
144.406
144.409
144.414
144.422
144.433
144.451
144.477
144.518
144.58
144.676
144.821
145.043
145.382
145.9
146.69
147.891
149.713
152.462
156.58
162.687
171.616
184.429
202.388
226.864
259.186
300.445
351.327
412.043
482.25
561.053
647.021
738.287
833.562
932.55
1035.33
1140.16
1243.79
1344.7
1441.83
1534.38
1621.84
1703.5
1778.88
144.402
144.403
144.404
144.407
144.41
144.415
144.423
144.435
144.453
144.48
144.522
144.586
144.683
144.831
145.057
145.401
145.924
146.721
147.93
149.759
152.514
156.632
162.728
171.625
184.369
202.204
226.481
258.506
299.359
349.721
409.768
479.169
557.133
642.531
733.9
829.769
929.377
1032.12
1136.31
1239.67
1340.58
1437.41
1530.12
1618.99
1702.86
1779.97
1848.64
1908.08
1958.04
1999.95
144.411
144.416
144.424
144.437
144.455
144.483
144.526
144.591
144.69
144.84
145.068
145.415
145.941
146.738
147.946
149.769
152.508
156.594
162.631
171.426
184.008
201.597
225.522
257.073
297.324
346.961
406.181
474.675
551.701
636.193
726.903
822.468
921.601
1023.17
1126.13
1229.15
1330.54
1428.77
1523.42
1614.5
1701.03
1781.32
1853.69
1916.94
1970.59
2014.76
2050.3
2078.69
2101.02
2119.07
144.458
144.487
144.531
144.597
144.698
144.85
145.08
145.427
145.954
146.749
147.949
149.756
152.462
156.49
162.428
171.063
183.4
200.632
224.063
254.969
294.42
343.121
401.301
468.694
544.608
628.03
717.759
812.515
911.013
1012.03
1114.41
1217.11
1318.93
1418.68
1515.35
1608.29
1696.74
1779.45
1854.95
1922
1979.54
2027.53
2066.94
2098.85
2124.17
2143.79
2158.73
2170.2
2178.93
2185.92
144.707
144.861
145.093
145.442
145.968
146.76
147.951
149.736
152.401
156.355
162.168
170.604
182.636
199.426
222.249
252.362
290.839
338.404
395.328
461.402
535.988
618.137
706.699
800.441
898.115
998.519
1100.52
1203.07
1305.11
1405.55
1503.4
1597.81
1687.92
1772.76
1851.11
1921.72
1983.55
2036.18
2080.06
2115.92
2144.47
2166.75
2184.02
2197.38
2207.6
2215.3
2220.99
2225.16
2228.14
2230.42
145.464
145.991
146.782
147.964
149.728
152.352
156.229
161.909
170.129
181.826
198.127
220.27
249.492
286.863
333.13
388.611
453.157
526.198
606.85
694.024
786.537
883.189
982.803
1084.27
1186.54
1288.65
1389.55
1488.23
1583.81
1675.47
1762.35
1843.4
1917.45
1983.42
2040.63
2088.98
2128.9
2161.1
2186.62
2206.64
2222.22
2234.15
2243.21
2250.11
2255.31
2259.06
2261.66
2263.46
2264.66
2265.36
2265.31
149.755
152.345
156.156
161.714
169.726
181.094
196.901
218.346
246.635
282.831
327.699
381.601
444.452
515.756
594.698
680.258
771.309
866.698
965.293
1066
1167.8
1269.74
1370.88
1470.21
1566.8
1659.84
1748.53
1832.01
1909.19
1978.99
2040.54
2093.39
2137.68
2173.95
2203.08
2226.14
2244.18
2258.15
2268.91
2277.22
2283.57
2288.27
2291.65
2294.09
2295.87
2297.12
2297.56
2297.18
2295.96
2294.18
2291.87
161.648
169.489
180.567
195.921
216.704
244.085
279.108
322.549
374.807
435.859
505.283
582.341
666.08
755.441
849.323
946.641
1046.34
1147.42
1248.93
1350.01
1449.72
1547.11
1641.32
1731.6
1817.16
1897.11
1970.41
2036.05
2093.37
2142.17
2182.75
2215.8
2242.25
2263.16
2279.52
2292.23
2302.08
2309.69
2315.51
2319.85
2323.07
2325.47
2327.24
2328.41
2328.78
2328.31
2327.07
2325.23
2322.82
2319.99
2316.79
2313.31
215.574
242.137
276.066
318.133
368.764
427.99
495.459
570.512
652.27
739.739
831.882
927.664
1026.08
1126.16
1226.97
1327.67
1427.41
1525.3
1620.43
1712.02
1799.34
1881.64
1957.99
2027.4
2089.01
2142.35
2187.42
2224.66
2254.86
2278.97
2298.02
2312.95
2324.6
2333.69
2340.77
2346.21
2350.27
2353.35
2355.75
2357.56
2358.72
2358.96
2358.4
2357.26
2355.5
2353.19
2350.47
2347.36
2343.95
2340.26
2336.26
2331.94
364.011
421.468
486.988
559.986
639.661
725.087
815.293
909.303
1006.16
1104.95
1204.76
1304.77
1404.17
1502.17
1597.88
1690.47
1779.22
1863.43
1942.35
2015.05
2080.61
2138.35
2187.95
2229.59
2263.83
2291.5
2313.57
2331.01
2344.72
2355.46
2363.91
2370.54
2375.64
2379.52
2382.58
2385.03
2386.85
2387.94
2388.17
2387.56
2386.52
2384.88
2382.71
2380.14
2377.22
2374
2370.47
2366.57
2362.33
2357.75
2352.85
2347.59
629.103
712.396
800.516
892.555
987.616
1084.83
1183.34
1282.33
1381.04
1478.72
1574.59
1667.81
1757.62
1843.33
1924.3
1999.73
2068.75
2130.54
2184.55
2230.65
2269.14
2300.68
2326.1
2346.37
2362.41
2375.05
2385.02
2392.92
2399.15
2403.94
2407.7
2410.77
2413.28
2415.09
2416.16
2416.37
2415.89
2414.93
2413.39
2411.37
2408.98
2406.29
2403.26
2399.9
2396.17
2392.1
2387.69
2382.91
2377.76
2372.23
2366.36
2360.08
971.499
1066.88
1163.79
1261.45
1359.12
1456.09
1551.67
1645.07
1735.52
1822.32
1904.82
1982.4
2054.27
2119.6
2177.69
2228.12
2270.94
2306.53
2335.6
2359
2377.65
2392.45
2404.16
2413.46
2420.87
2426.74
2431.29
2434.96
2438.06
2440.56
2442.38
2443.4
2443.63
2443.32
2442.49
2441.08
2439.24
2437.05
2434.55
2431.73
2428.54
2425.01
2421.13
2416.9
2412.3
2407.33
2401.97
2396.23
2390.11
2383.58
2376.68
2369.35
1339.6
1435.49
1530.32
1623.42
1714.05
1801.47
1885.04
1964.17
2038.24
2106.46
2168.1
2222.54
2269.55
2309.26
2342.16
2368.96
2390.52
2407.73
2421.4
2432.27
2440.96
2447.92
2453.44
2457.8
2461.4
2464.54
2466.99
2468.77
2469.83
2470.04
2469.88
2469.2
2467.95
2466.3
2464.35
2462.06
2459.42
2456.42
2453.09
2449.42
2445.38
2440.97
2436.18
2431.02
2425.47
2419.53
2413.19
2406.44
2399.3
2391.73
2383.77
2375.36
1694.4
1781.96
1866.1
1946.25
2021.85
2092.28
2156.8
2214.73
2265.6
2309.3
2346.06
2376.43
2401.12
2420.99
2436.86
2449.5
2459.59
2467.71
2474.25
2479.42
2483.61
2487.15
2490.26
2492.69
2494.36
2495.48
2495.82
2495.71
2495.14
2494.04
2492.6
2490.87
2488.79
2486.36
2483.57
2480.45
2476.98
2473.14
2468.93
2464.35
2459.39
2454.04
2448.3
2442.16
2435.61
2428.67
2421.3
2413.52
2405.33
2396.69
2387.65
2378.13
2078.33
2145
2205.74
2259.96
2307.31
2347.79
2381.74
2409.7
2432.41
2450.68
2465.3
2476.97
2486.33
2493.91
2500
2504.86
2508.88
2512.36
2515.39
2517.76
2519.35
2520.44
2520.94
2520.87
2520.4
2519.5
2518.24
2516.69
2514.8
2512.56
2509.99
2507.09
2503.83
2500.2
2496.2
2491.83
2487.08
2481.94
2476.41
2470.49
2464.15
2457.42
2450.27
2442.7
2434.72
2426.31
2417.46
2408.2
2398.58
2388.58
2378.1
2304.2
2348.07
2385.42
2416.64
2442.3
2463.12
2479.87
2493.29
2504.03
2512.69
2519.72
2525.37
2529.91
2533.74
2537.12
2540.02
2542.31
2543.86
2544.92
2545.5
2545.48
2545.08
2544.35
2543.27
2541.89
2540.17
2538.11
2535.75
2533.05
2529.99
2526.58
2522.81
2518.66
2514.13
2509.21
2503.9
2498.19
2492.08
2485.57
2478.64
2471.3
2463.54
2455.36
2446.75
2437.71
2428.31
2418.52
2408.31
2397.67
2386.64
2375.1
2451.1
2474.53
2493.52
2508.81
2521.06
2530.89
2538.85
2545.32
2550.51
2554.74
2558.38
2561.6
2564.35
2566.45
2567.96
2569.03
2569.63
2569.65
2569.32
2568.7
2567.77
2566.53
2564.97
2563.1
2560.92
2558.41
2555.55
2552.34
2548.78
2544.85
2540.54
2535.85
2530.77
2525.29
2519.41
2513.13
2506.44
2499.33
2491.81
2483.87
2475.49
2466.69
2457.51
2447.95
2437.97
2427.58
2416.77
2405.55
2393.87
2381.77
2369.17
2548.83
2557.75
2565
2570.89
2575.6
2579.51
2582.92
2585.94
2588.5
2590.43
2591.81
2592.88
2593.43
2593.48
2593.21
2592.7
2591.87
2590.73
2589.3
2587.58
2585.57
2583.23
2580.56
2577.55
2574.19
2570.46
2566.37
2561.9
2557.05
2551.81
2546.17
2540.13
2533.68
2526.81
2519.53
2511.84
2503.7
2495.15
2486.19
2476.87
2467.14
2456.99
2446.43
2435.46
2424.04
2412.19
2399.93
2387.23
2374.11
2360.49
2596.6
2600.82
2604.36
2607.49
2610.27
2612.63
2614.36
2615.6
2616.62
2617.08
2617.09
2616.87
2616.42
2615.66
2614.6
2613.28
2611.69
2609.81
2607.61
2605.1
2602.27
2599.1
2595.57
2591.69
2587.43
2582.8
2577.79
2572.38
2566.58
2560.37
2553.76
2546.72
2539.28
2531.41
2523.1
2514.38
2505.31
2495.83
2485.93
2475.62
2464.9
2453.75
2442.16
2430.15
2417.72
2404.87
2391.61
2377.92
2363.82
2349.22
2632.27
2634.76
2636.81
2638.34
2639.45
2640.37
2640.7
2640.66
2640.44
2640
2639.25
2638.25
2637.01
2635.51
2633.73
2631.66
2629.29
2626.61
2623.6
2620.25
2616.55
2612.5
2608.08
2603.29
2598.11
2592.54
2586.57
2580.2
2573.42
2566.23
2558.62
2550.58
2542.12
2533.28
2524.05
2514.41
2504.36
2493.9
2483.02
2471.69
2459.95
2447.79
2435.21
2422.21
2408.8
2394.97
2380.74
2366.1
2351.06
2335.52
2662.51
2663.49
2664.21
2664.4
2664.29
2664.05
2663.57
2662.8
2661.8
2660.61
2659.17
2657.45
2655.47
2653.21
2650.65
2647.78
2644.59
2641.06
2637.19
2632.96
2628.37
2623.4
2618.06
2612.32
2606.19
2599.66
2592.72
2585.37
2577.6
2569.4
2560.8
2551.83
2542.45
2532.66
2522.47
2511.86
2500.81
2489.34
2477.45
2465.14
2452.42
2439.28
2425.73
2411.77
2397.41
2382.65
2367.5
2351.94
2336
2319.58
2688.31
2688.12
2687.8
2687.24
2686.41
2685.4
2684.21
2682.78
2681.09
2679.17
2676.98
2674.52
2671.75
2668.68
2665.3
2661.59
2657.53
2653.12
2648.35
2643.21
2637.69
2631.79
2625.5
2618.8
2611.7
2604.19
2596.26
2587.91
2579.2
2570.08
2560.56
2550.63
2540.3
2529.53
2518.34
2506.73
2494.69
2482.25
2469.39
2456.11
2442.43
2428.35
2413.87
2398.99
2383.72
2368.06
2352.03
2335.61
2318.83
2301.58
2711.11
2710.21
2709.15
2707.92
2706.46
2704.77
2702.87
2700.72
2698.31
2695.62
2692.65
2689.38
2685.79
2681.87
2677.63
2673.03
2668.08
2662.76
2657.07
2651
2644.53
2637.67
2630.42
2622.74
2614.65
2606.18
2597.33
2588.07
2578.41
2568.35
2557.87
2546.96
2535.63
2523.88
2511.72
2499.14
2486.15
2472.75
2458.95
2444.75
2430.15
2415.16
2399.78
2384.01
2367.88
2351.37
2334.51
2317.29
2299.72
2281.72
2731.84
2730.32
2728.6
2726.68
2724.54
2722.14
2719.5
2716.59
2713.39
2709.9
2706.1
2701.98
2697.53
2692.74
2687.6
2682.1
2676.23
2669.98
2663.35
2656.32
2648.9
2641.07
2632.83
2624.23
2615.24
2605.84
2596.05
2585.86
2575.23
2564.18
2552.72
2540.84
2528.55
2515.85
2502.74
2489.23
2475.31
2461
2446.29
2431.19
2415.7
2399.84
2383.61
2367.01
2350.06
2332.76
2315.14
2297.17
2278.9
2260.22
2748.53
2746.12
2743.49
2740.6
2737.45
2734.02
2730.31
2726.29
2721.96
2717.3
2712.31
2706.97
2701.28
2695.23
2688.8
2681.99
2674.8
2667.21
2659.22
2650.85
2642.1
2632.96
2623.44
2613.52
2603.18
2592.41
2581.24
2569.65
2557.65
2545.24
2532.42
2519.2
2505.57
2491.55
2477.12
2462.31
2447.11
2431.53
2415.58
2399.25
2382.57
2365.54
2348.16
2330.46
2312.44
2294.12
2275.47
2256.55
2237.26
2764.8
2761.66
2758.26
2754.59
2750.64
2746.4
2741.84
2736.97
2731.77
2726.23
2720.35
2714.1
2707.49
2700.51
2693.15
2685.39
2677.23
2668.73
2659.84
2650.56
2640.9
2630.84
2620.36
2609.47
2598.17
2586.46
2574.34
2561.81
2548.88
2535.55
2521.82
2507.69
2493.17
2478.26
2462.96
2447.29
2431.25
2414.84
2398.07
2380.96
2363.51
2345.74
2327.65
2309.26
2290.57
2271.61
2252.35
2232.84
2212.99
2779.05
2775.13
2770.94
2766.46
2761.68
2756.59
2751.18
2745.43
2739.34
2732.91
2726.11
2718.94
2711.4
2703.47
2695.17
2686.51
2677.47
2668.06
2658.26
2648.06
2637.45
2626.43
2615
2603.17
2590.94
2578.3
2565.26
2551.83
2537.99
2523.76
2509.15
2494.14
2478.76
2463.01
2446.88
2430.39
2413.55
2396.36
2378.84
2361.01
2342.86
2324.4
2305.65
2286.62
2267.32
2247.77
2227.93
2207.96
2187.61
2786.52
2781.51
2776.19
2770.55
2764.59
2758.3
2751.67
2744.67
2737.33
2729.6
2721.5
2713.05
2704.24
2695.05
2685.5
2675.56
2665.21
2654.47
2643.33
2631.78
2619.83
2607.48
2594.74
2581.6
2568.06
2554.13
2539.81
2525.1
2510.01
2494.54
2478.7
2462.5
2445.94
2429.03
2411.77
2394.2
2376.29
2358.07
2339.56
2320.75
2301.66
2282.3
2262.69
2242.85
2222.78
2202.45
2182.06
2161.3
2795.79
2789.94
2783.76
2777.26
2770.42
2763.23
2755.7
2747.78
2739.51
2730.91
2721.93
2712.6
2702.91
2692.82
2682.34
2671.46
2660.19
2648.52
2636.46
2624
2611.15
2597.91
2584.27
2570.25
2555.84
2541.05
2525.87
2510.33
2494.41
2478.14
2461.51
2444.53
2427.22
2409.58
2391.61
2373.34
2354.76
2335.9
2316.75
2297.33
2277.67
2257.76
2237.63
2217.33
2196.81
2176.07
2155.31
2134.21
2796.24
2789.19
2781.81
2774.07
2765.98
2757.54
2748.77
2739.63
2730.16
2720.31
2710.08
2699.46
2688.45
2677.05
2665.27
2653.09
2640.53
2627.57
2614.23
2600.5
2586.38
2571.89
2557.01
2541.76
2526.14
2510.16
2493.81
2477.12
2460.08
2442.71
2425.01
2407
2388.67
2370.04
2351.12
2331.91
2312.45
2292.73
2272.75
2252.6
2232.2
2211.63
2190.92
2170.02
2148.97
2127.9
2106.54
2800.42
2792.48
2784.2
2775.6
2766.66
2757.37
2747.74
2737.74
2727.36
2716.6
2705.46
2693.94
2682.04
2669.75
2657.08
2644.02
2630.58
2616.76
2602.55
2587.98
2573.02
2557.69
2542
2525.95
2509.55
2492.79
2475.7
2458.28
2440.53
2422.46
2404.08
2385.4
2366.42
2347.18
2327.66
2307.88
2287.88
2267.65
2247.18
2226.6
2205.78
2184.83
2163.77
2142.58
2121.27
2099.98
2078.44
2793.71
2784.59
2775.14
2765.36
2755.21
2744.68
2733.79
2722.52
2710.87
2698.85
2686.45
2673.67
2660.51
2646.98
2633.07
2618.78
2604.12
2589.09
2573.69
2557.94
2541.82
2525.36
2508.56
2491.41
2473.93
2456.14
2438.02
2419.59
2400.86
2381.85
2362.56
2342.98
2323.17
2303.12
2282.82
2262.35
2241.67
2220.78
2199.81
2178.64
2157.4
2136.06
2114.63
2093.15
2071.7
2050.06
2792.98
2783.04
2772.73
2762.06
2751.03
2739.63
2727.86
2715.72
2703.21
2690.33
2677.07
2663.44
2649.44
2635.07
2620.34
2605.24
2589.77
2573.95
2557.78
2541.27
2524.41
2507.22
2489.7
2471.85
2453.69
2435.22
2416.45
2397.39
2378.06
2358.45
2338.6
2318.49
2298.17
2277.63
2256.89
2235.99
2214.92
2193.68
2172.39
2150.94
2129.46
2107.91
2086.33
2064.73
2043.2
2021.53
2790.31
2779.5
2768.33
2756.8
2744.91
2732.65
2720.04
2707.05
2693.7
2679.98
2665.9
2651.45
2636.64
2621.47
2605.95
2590.07
2573.85
2557.28
2540.38
2523.14
2505.58
2487.69
2469.49
2450.98
2432.17
2413.07
2393.7
2374.06
2354.17
2334.03
2313.66
2293.07
2272.31
2251.34
2230.21
2208.95
2187.56
2166.03
2144.48
2122.81
2101.16
2079.46
2057.8
2036.14
2014.6
1992.98
2785.69
2774.04
2762.03
2749.66
2736.94
2723.85
2710.41
2696.6
2682.44
2667.92
2653.04
2637.8
2622.22
2606.29
2590.02
2573.41
2556.46
2539.18
2521.58
2503.65
2485.41
2466.87
2448.03
2428.9
2409.5
2389.83
2369.9
2349.73
2329.33
2308.7
2287.9
2266.87
2245.72
2224.38
2202.93
2181.35
2159.7
2137.95
2116.2
2094.38
2072.62
2050.85
2029.16
2007.52
1986.04
1964.53
2779.2
2766.73
2753.9
2740.72
2727.19
2713.3
2699.06
2684.47
2669.53
2654.24
2638.6
2622.62
2606.3
2589.65
2572.66
2555.34
2537.7
2519.75
2501.48
2482.91
2464.04
2444.89
2425.46
2405.76
2385.8
2365.6
2345.17
2324.52
2303.67
2282.62
2261.41
2240.02
2218.53
2196.88
2175.15
2153.34
2131.48
2109.56
2087.68
2065.77
2043.96
2022.18
2000.53
1978.97
1957.6
1936.27
2770.93
2757.66
2744.04
2730.07
2715.76
2701.11
2686.11
2670.77
2655.08
2639.06
2622.7
2606.01
2588.98
2571.63
2553.96
2535.98
2517.68
2499.09
2480.2
2461.02
2441.57
2421.85
2401.88
2381.65
2361.2
2340.52
2319.65
2298.56
2277.31
2255.89
2234.34
2212.63
2190.85
2168.96
2147.01
2125.01
2103.01
2080.99
2059.03
2037.1
2015.29
1993.56
1972
1950.58
1929.39
1908.29
2760.94
2746.91
2732.54
2717.82
2702.77
2687.38
2671.65
2655.59
2639.19
2622.46
2605.41
2588.04
2570.34
2552.34
2534.02
2515.41
2496.5
2477.31
2457.85
2438.11
2418.12
2397.89
2377.41
2356.71
2335.81
2314.7
2293.43
2271.97
2250.37
2228.63
2206.78
2184.82
2162.81
2140.72
2118.62
2096.49
2074.4
2052.33
2030.36
2008.45
1986.7
1965.08
1943.68
1922.45
1901.5
1880.68
2734.59
2719.49
2704.06
2688.29
2672.19
2655.77
2639.02
2621.94
2604.54
2586.83
2568.81
2550.49
2531.86
2512.95
2493.75
2474.28
2454.53
2434.54
2414.29
2393.81
2373.1
2352.18
2331.05
2309.75
2288.26
2266.63
2244.85
2222.96
2200.94
2178.86
2156.7
2134.51
2112.28
2090.07
2067.87
2045.75
2023.68
2001.75
1979.92
1958.3
1936.84
1915.64
1894.66
1873.98
1853.49
2720.78
2704.98
2688.86
2672.41
2655.64
2638.55
2621.14
2603.42
2585.39
2567.06
2548.44
2529.52
2510.32
2490.85
2471.11
2451.11
2430.86
2410.37
2389.66
2368.73
2347.6
2326.27
2304.77
2283.11
2261.3
2239.37
2217.31
2195.17
2172.94
2150.68
2128.36
2106.05
2083.73
2061.47
2039.25
2017.14
1995.13
1973.29
1951.6
1930.15
1908.9
1887.95
1867.26
1846.91
1826.8
2705.55
2689.08
2672.3
2655.2
2637.79
2620.07
2602.05
2583.72
2565.1
2546.2
2527.01
2507.54
2487.81
2467.82
2447.58
2427.1
2406.39
2385.46
2364.32
2343
2321.48
2299.81
2277.98
2256.01
2233.92
2211.73
2189.45
2167.12
2144.72
2122.32
2099.9
2077.52
2055.16
2032.9
2010.71
1988.67
1966.77
1945.06
1923.56
1902.32
1881.33
1860.67
1840.32
1820.34
1800.63
2671.88
2654.48
2636.77
2618.76
2600.45
2581.84
2562.95
2543.78
2524.34
2504.62
2484.65
2464.43
2443.97
2423.27
2402.35
2381.22
2359.9
2338.39
2316.7
2294.86
2272.88
2250.76
2228.54
2206.21
2183.82
2161.37
2138.88
2116.37
2093.88
2071.41
2049
2026.66
2004.43
1982.33
1960.4
1938.65
1917.13
1895.85
1874.87
1854.18
1833.86
1813.87
1794.3
1775.04
2653.46
2635.48
2617.19
2598.62
2579.76
2560.62
2541.2
2521.52
2501.58
2481.38
2460.95
2440.28
2419.38
2398.27
2376.96
2355.46
2333.78
2311.94
2289.94
2267.82
2245.57
2223.22
2200.78
2178.27
2155.72
2133.14
2110.55
2087.97
2065.44
2042.96
2020.57
1998.29
1976.15
1954.18
1932.4
1910.85
1889.56
1868.54
1847.86
1827.5
1807.54
1787.97
1768.82
1750.03
2633.92
2615.39
2596.57
2577.47
2558.1
2538.46
2518.56
2498.41
2478.01
2457.38
2436.52
2415.44
2394.16
2372.68
2351.02
2329.19
2307.2
2285.07
2262.81
2240.44
2217.97
2195.43
2172.83
2150.18
2127.52
2104.85
2082.21
2059.6
2037.07
2014.63
1992.31
1970.12
1948.12
1926.31
1904.73
1883.41
1862.38
1841.67
1821.31
1801.33
1781.77
1762.62
1743.93
1725.64
2613.35
2594.31
2574.99
2555.41
2535.56
2515.47
2495.12
2474.54
2453.73
2432.7
2411.45
2390.01
2368.38
2346.58
2324.61
2302.49
2280.24
2257.86
2235.38
2212.81
2190.18
2167.48
2144.76
2122.02
2099.28
2076.57
2053.92
2031.33
2008.85
1986.48
1964.26
1942.22
1920.38
1898.78
1877.43
1856.38
1835.65
1815.27
1795.28
1775.69
1756.55
1737.85
1719.65
1701.86
2572.31
2552.54
2532.51
2512.23
2491.72
2470.97
2450
2428.81
2407.42
2385.84
2364.08
2342.14
2320.05
2297.82
2275.45
2252.98
2230.4
2207.74
2185.02
2162.25
2139.45
2116.64
2093.85
2071.09
2048.38
2025.75
2003.22
1980.82
1958.57
1936.5
1914.63
1893
1871.63
1850.55
1829.8
1809.4
1789.38
1769.77
1750.6
1731.9
1713.68
1695.97
1678.7
2549.48
2529.29
2508.86
2488.19
2467.3
2446.18
2424.86
2403.35
2381.64
2359.76
2337.71
2315.51
2293.18
2270.72
2248.15
2225.49
2202.76
2179.96
2157.12
2134.26
2111.4
2088.55
2065.74
2042.99
2020.32
1997.76
1975.32
1953.04
1930.94
1909.05
1887.39
1866
1844.9
1824.12
1803.69
1783.65
1764.01
1744.81
1726.08
1707.84
1690.1
1672.89
1656.15
2525.91
2505.34
2484.54
2463.52
2442.28
2420.85
2399.22
2377.41
2355.42
2333.28
2310.99
2288.57
2266.04
2243.39
2220.66
2197.86
2175
2152.11
2129.19
2106.28
2083.39
2060.54
2037.75
2015.05
1992.46
1970
1947.69
1925.57
1903.65
1881.97
1860.55
1839.43
1818.62
1798.17
1778.09
1758.42
1739.18
1720.41
1702.13
1684.36
1667.12
1650.42
1634.21
2480.76
2459.63
2438.29
2416.76
2395.04
2373.14
2351.07
2328.85
2306.49
2284
2261.39
2238.69
2215.9
2193.05
2170.14
2147.2
2124.24
2101.29
2078.37
2055.48
2032.67
2009.94
1987.32
1964.84
1942.51
1920.37
1898.43
1876.73
1855.29
1834.14
1813.31
1792.82
1772.71
1753
1733.72
1714.91
1696.58
1678.75
1661.47
1644.72
1628.53
1612.85
2455.62
2434.2
2412.59
2390.79
2368.82
2346.69
2324.41
2301.99
2279.45
2256.79
2234.04
2211.21
2188.31
2165.37
2142.39
2119.41
2096.43
2073.48
2050.57
2027.73
2004.98
1982.35
1959.85
1937.5
1915.34
1893.39
1871.67
1850.21
1829.03
1808.17
1787.65