/*--------------------------------*- C++ -*----------------------------------*\
| =========                 |                                                 |
| \\      /  F ield         | OpenFOAM: The Open Source CFD Toolbox           |
|  \\    /   O peration     | Version:  v1706                                 |
|   \\  /    A nd           | Web:      www.OpenFOAM.com                      |
|    \\/     M anipulation  |                                                 |
\*---------------------------------------------------------------------------*/
FoamFile
{
    version     2.0;
    format      ascii;
    class       volScalarField;
    location    "7e-06";
    object      Tv;
}
// * * * * * * * * * * * * * * * * * * * * * * * * * * * * * * * * * * * * * //

dimensions      [0 0 0 1 0 0 0];


internalField   nonuniform List<scalar> 
30038
(
144.4
144.4
144.4
144.4
144.4
144.4
144.4
144.4
144.4
144.4
144.4
144.4
144.4
144.4
144.4
144.4
144.4
144.4
144.4
144.4
144.4
144.4
144.4
144.4
144.4
144.4
144.4
144.4
144.4
144.4
144.4
144.4
144.4
144.4
144.4
144.4
144.4
144.4
144.4
144.4
144.4
144.4
144.4
144.4
144.4
144.4
144.4
144.4
144.4
144.4
144.4
144.4
144.4
144.4
144.4
144.4
144.4
144.4
144.4
144.4
144.4
144.4
144.4
144.4
144.4
144.4
144.4
144.4
144.4
144.4
144.4
144.4
144.4
144.4
144.4
144.4
144.4
144.4
144.4
144.4
144.4
144.4
144.4
144.4
144.4
144.4
144.4
144.4
144.4
144.4
144.4
144.4
144.4
144.4
144.4
144.4
144.4
144.4
144.4
144.4
144.4
144.4
144.4
144.4
144.4
144.4
144.4
144.4
144.4
144.4
144.4
144.4
144.4
144.4
144.4
144.4
144.4
144.4
144.4
144.4
144.4
144.4
144.4
144.4
144.4
144.4
144.4
144.4
144.4
144.4
144.4
144.4
144.4
144.4
144.4
144.4
144.4
144.4
144.4
144.4
144.4
144.4
144.4
144.4
144.4
144.4
144.4
144.4
144.4
144.4
144.4
144.4
144.4
144.4
144.4
144.4
144.4
144.4
144.4
144.4
144.4
144.4
144.4
144.4
144.4
144.4
144.4
144.4
144.4
144.4
144.4
144.4
144.4
144.4
144.4
144.4
144.4
144.4
144.4
144.4
144.4
144.4
144.4
144.4
144.4
144.4
144.4
144.4
144.4
144.4
144.4
144.4
144.4
144.4
144.4
144.4
144.4
144.4
144.4
144.4
144.4
144.4
144.4
144.4
144.4
144.4
144.4
144.4
144.4
144.4
144.4
144.4
144.4
144.4
144.4
144.4
144.4
144.4
144.4
144.4
144.4
144.4
144.4
144.4
144.4
144.4
144.4
144.4
144.4
144.4
144.4
144.4
144.4
144.4
144.4
144.4
144.4
144.4
144.4
144.4
144.4
144.4
144.4
144.4
144.4
144.4
144.4
144.4
144.4
144.4
144.4
144.4
144.4
144.4
144.4
144.4
144.4
144.4
144.4
144.4
144.4
144.4
144.4
144.4
144.4
144.4
144.4
144.4
144.4
144.4
144.4
144.4
144.4
144.4
144.4
144.4
144.4
144.4
144.4
144.4
144.4
144.4
144.4
144.4
144.4
144.4
144.4
144.4
144.4
144.4
144.4
144.4
144.4
144.4
144.4
144.4
144.4
144.4
144.4
144.4
144.4
144.4
144.4
144.4
144.4
144.4
144.4
144.4
144.4
144.4
144.4
144.4
144.4
144.4
144.4
144.4
144.4
144.4
144.4
144.4
144.4
144.4
144.4
144.4
144.4
144.4
144.4
144.4
144.4
144.4
144.4
144.4
144.4
144.4
144.4
144.4
144.4
144.4
144.4
144.4
144.4
144.4
144.4
144.4
144.4
144.4
144.4
144.4
144.4
144.4
144.4
144.4
144.4
144.4
144.4
144.4
144.4
144.4
144.4
144.4
144.4
144.4
144.4
144.4
144.4
144.4
144.4
144.4
144.4
144.4
144.4
144.4
144.4
144.4
144.4
144.4
144.4
144.4
144.4
144.4
144.4
144.4
144.4
144.4
144.4
144.4
144.4
144.4
144.4
144.4
144.4
144.4
144.4
144.4
144.4
144.4
144.4
144.4
144.4
144.4
144.4
144.4
144.4
144.4
144.4
144.4
144.4
144.4
144.4
144.4
144.4
144.4
144.4
144.4
144.4
144.4
144.4
144.4
144.4
144.4
144.4
144.4
144.4
144.4
144.4
144.4
144.4
144.4
144.4
144.4
144.4
144.4
144.4
144.4
144.4
144.4
144.4
144.4
144.4
144.4
144.4
144.4
144.4
144.4
144.4
144.4
144.4
144.4
144.4
144.4
144.4
144.4
144.4
144.4
144.4
144.4
144.4
144.4
144.4
144.4
144.4
144.4
144.4
144.4
144.4
144.4
144.4
144.4
144.4
144.4
144.4
144.4
144.4
144.4
144.4
144.4
144.4
144.4
144.4
144.4
144.4
144.4
144.4
144.4
144.4
144.4
144.4
144.4
144.4
144.4
144.4
144.4
144.4
144.4
144.4
144.4
144.4
144.4
144.4
144.4
144.4
144.4
144.4
144.4
144.4
144.4
144.4
144.4
144.4
144.4
144.4
144.4
144.4
144.4
144.4
144.4
144.4
144.4
144.4
144.4
144.4
144.4
144.4
144.4
144.4
144.4
144.4
144.4
144.4
144.4
144.4
144.4
144.4
144.4
144.4
144.4
144.4
144.4
144.4
144.4
144.4
144.4
144.4
144.4
144.4
144.4
144.4
144.4
144.4
144.4
144.4
144.4
144.4
144.4
144.4
144.4
144.4
144.4
144.4
144.4
144.4
144.4
144.4
144.4
144.4
144.4
144.4
144.4
144.4
144.4
144.4
144.4
144.4
144.4
144.4
144.4
144.4
144.4
144.4
144.4
144.4
144.4
144.4
144.4
144.4
144.4
144.4
144.4
144.4
144.4
144.4
144.4
144.4
144.4
144.4
144.4
144.4
144.4
144.4
144.4
144.4
144.4
144.4
144.4
144.4
144.4
144.4
144.4
144.4
144.4
144.4
144.4
144.4
144.4
144.4
144.4
144.4
144.4
144.4
144.4
144.4
144.4
144.4
144.4
144.4
144.4
144.4
144.4
144.4
144.4
144.4
144.4
144.4
144.4
144.4
144.4
144.4
144.4
144.4
144.4
144.4
144.4
144.4
144.4
144.4
144.4
144.4
144.4
144.4
144.4
144.4
144.4
144.4
144.4
144.4
144.4
144.4
144.4
144.4
144.4
144.4
144.4
144.4
144.4
144.4
144.4
144.4
144.4
144.4
144.4
144.4
144.4
144.4
144.4
144.4
144.4
144.4
144.4
144.4
144.4
144.4
144.4
144.4
144.4
144.4
144.4
144.4
144.4
144.4
144.4
144.4
144.4
144.4
144.4
144.4
144.4
144.4
144.4
144.4
144.4
144.4
144.4
144.4
144.4
144.4
144.4
144.4
144.4
144.4
144.4
144.4
144.4
144.4
144.4
144.4
144.4
144.4
144.4
144.4
144.4
144.4
144.4
144.4
144.4
144.4
144.4
144.4
144.4
144.4
144.4
144.4
144.4
144.4
144.4
144.4
144.4
144.4
144.4
144.4
144.4
144.4
144.4
144.4
144.4
144.4
144.4
144.4
144.4
144.4
144.4
144.4
144.4
144.4
144.4
144.4
144.4
144.4
144.4
144.4
144.4
144.4
144.4
144.4
144.4
144.4
144.4
144.4
144.4
144.4
144.4
144.4
144.4
144.4
144.4
144.4
144.4
144.4
144.4
144.4
144.4
144.4
144.4
144.4
144.4
144.4
144.4
144.4
144.4
144.4
144.4
144.4
144.4
144.4
144.4
144.4
144.4
144.4
144.4
144.4
144.4
144.4
144.4
144.4
144.4
144.4
144.4
144.4
144.4
144.4
144.4
144.4
144.4
144.4
144.4
144.4
144.4
144.4
144.4
144.4
144.4
144.4
144.4
144.4
144.4
144.4
144.4
144.4
144.4
144.4
144.4
144.4
144.4
144.4
144.4
144.4
144.4
144.4
144.4
144.4
144.4
144.4
144.4
144.4
144.4
144.4
144.4
144.4
144.4
144.4
144.4
144.4
144.4
144.4
144.4
144.4
144.4
144.4
144.4
144.4
144.4
144.4
144.4
144.4
144.4
144.4
144.4
144.4
144.4
144.4
144.4
144.4
144.4
144.4
144.4
144.4
144.4
144.4
144.4
144.4
144.4
144.4
144.4
144.4
144.4
144.4
144.4
144.4
144.4
144.4
144.4
144.4
144.4
144.4
144.4
144.4
144.4
144.4
144.4
144.4
144.4
144.4
144.4
144.4
144.4
144.4
144.4
144.4
144.4
144.4
144.4
144.4
144.4
144.4
144.4
144.4
144.4
144.4
144.4
144.4
144.4
144.4
144.4
144.4
144.4
144.4
144.4
144.4
144.4
144.4
144.4
144.4
144.4
144.4
144.4
144.4
144.4
144.4
144.4
144.4
144.4
144.4
144.4
144.4
144.4
144.4
144.4
144.4
144.4
144.4
144.4
144.4
144.4
144.4
144.4
144.4
144.4
144.4
144.4
144.4
144.4
144.4
144.4
144.4
144.4
144.4
144.4
144.4
144.4
144.4
144.4
144.4
144.4
144.4
144.4
144.4
144.4
144.4
144.4
144.4
144.4
144.4
144.4
144.4
144.4
144.4
144.4
144.4
144.4
144.4
144.4
144.4
144.4
144.4
144.4
144.4
144.4
144.4
144.4
144.4
144.4
144.4
144.4
144.4
144.4
144.4
144.4
144.4
144.4
144.4
144.4
144.4
144.4
144.4
144.4
144.4
144.4
144.4
144.4
144.4
144.4
144.4
144.4
144.4
144.4
144.4
144.4
144.4
144.4
144.4
144.4
144.4
144.4
144.4
144.4
144.4
144.4
144.4
144.4
144.4
144.4
144.4
144.4
144.4
144.4
144.4
144.4
144.4
144.4
144.4
144.4
144.4
144.4
144.4
144.4
144.4
144.4
144.4
144.4
144.4
144.4
144.4
144.4
144.4
144.4
144.4
144.4
144.4
144.4
144.4
144.4
144.4
144.4
144.4
144.4
144.4
144.4
144.4
144.4
144.4
144.4
144.4
144.4
144.4
144.4
144.4
144.4
144.4
144.4
144.4
144.4
144.4
144.4
144.4
144.4
144.4
144.4
144.4
144.4
144.4
144.4
144.4
144.4
144.4
144.4
144.4
144.4
144.4
144.4
144.4
144.4
144.4
144.4
144.4
144.4
144.4
144.4
144.4
144.4
144.4
144.4
144.4
144.4
144.4
144.4
144.4
144.4
144.4
144.4
144.4
144.4
144.4
144.4
144.4
144.4
144.4
144.4
144.4
144.4
144.4
144.4
144.401
144.401
144.4
144.4
144.4
144.4
144.4
144.4
144.4
144.4
144.4
144.4
144.4
144.4
144.4
144.4
144.4
144.4
144.4
144.4
144.4
144.4
144.4
144.4
144.4
144.4
144.4
144.4
144.4
144.4
144.4
144.4
144.4
144.4
144.4
144.4
144.4
144.4
144.4
144.4
144.4
144.4
144.4
144.4
144.4
144.401
144.401
144.402
144.403
144.405
144.408
144.416
144.4
144.4
144.4
144.4
144.4
144.4
144.4
144.4
144.4
144.4
144.4
144.4
144.4
144.4
144.4
144.4
144.4
144.4
144.4
144.4
144.4
144.4
144.4
144.4
144.4
144.4
144.4
144.4
144.4
144.4
144.4
144.4
144.4
144.4
144.4
144.4
144.4
144.4
144.4
144.401
144.401
144.402
144.403
144.406
144.41
144.417
144.43
144.451
144.488
144.569
144.4
144.4
144.4
144.4
144.4
144.4
144.4
144.4
144.4
144.4
144.4
144.4
144.4
144.4
144.4
144.4
144.4
144.4
144.4
144.4
144.4
144.4
144.4
144.4
144.4
144.4
144.4
144.4
144.4
144.4
144.4
144.4
144.4
144.4
144.401
144.401
144.402
144.403
144.404
144.408
144.413
144.422
144.438
144.464
144.51
144.587
144.716
144.933
145.297
146.016
144.4
144.4
144.4
144.4
144.4
144.4
144.4
144.4
144.4
144.4
144.4
144.4
144.4
144.4
144.4
144.4
144.4
144.4
144.4
144.4
144.4
144.4
144.4
144.4
144.4
144.4
144.4
144.4
144.4
144.4
144.401
144.401
144.402
144.403
144.406
144.41
144.416
144.428
144.447
144.481
144.537
144.632
144.792
145.055
145.482
146.156
147.175
148.638
150.635
153.575
144.4
144.4
144.4
144.4
144.4
144.4
144.4
144.4
144.4
144.4
144.4
144.4
144.4
144.4
144.4
144.4
144.4
144.4
144.4
144.4
144.4
144.4
144.4
144.4
144.4
144.4
144.401
144.401
144.402
144.404
144.407
144.412
144.42
144.434
144.458
144.499
144.568
144.685
144.878
145.196
145.706
146.495
147.663
149.292
151.427
154.064
157.159
160.657
164.533
169.177
144.4
144.4
144.4
144.4
144.4
144.4
144.4
144.4
144.4
144.4
144.4
144.4
144.4
144.4
144.4
144.4
144.4
144.4
144.4
144.4
144.4
144.401
144.401
144.402
144.403
144.405
144.408
144.414
144.424
144.442
144.471
144.52
144.603
144.742
144.973
145.349
145.945
146.854
148.174
149.974
152.282
155.074
158.296
161.882
165.779
169.95
174.366
178.996
183.837
189.155
144.4
144.4
144.4
144.4
144.4
144.4
144.4
144.4
144.4
144.4
144.4
144.4
144.4
144.4
144.4
144.4
144.4
144.401
144.401
144.402
144.403
144.406
144.41
144.417
144.429
144.45
144.484
144.542
144.641
144.804
145.074
145.51
146.193
147.22
148.683
150.64
153.102
156.033
159.374
163.061
167.048
171.297
175.771
180.433
185.247
190.177
195.183
200.211
205.232
210.351
144.4
144.4
144.4
144.4
144.4
144.4
144.4
144.4
144.4
144.4
144.4
144.4
144.401
144.401
144.401
144.402
144.404
144.407
144.412
144.42
144.434
144.458
144.498
144.566
144.68
144.869
145.18
145.676
146.446
147.586
149.181
151.277
153.87
156.917
160.357
164.133
168.2
172.52
177.06
181.786
186.663
191.653
196.7
201.74
206.717
211.594
216.336
220.912
225.323
229.629
144.4
144.4
144.4
144.4
144.4
144.4
144.4
144.4
144.401
144.401
144.402
144.403
144.405
144.408
144.414
144.423
144.44
144.467
144.513
144.591
144.721
144.936
145.286
145.843
146.696
147.941
149.656
151.874
154.58
157.724
161.247
165.094
169.223
173.6
178.197
182.983
187.922
192.969
198.069
203.161
208.193
213.122
217.9
222.486
226.861
231.033
235.021
238.833
242.492
246.035
144.4
144.4
144.4
144.4
144.401
144.401
144.402
144.403
144.406
144.409
144.416
144.427
144.445
144.476
144.529
144.616
144.762
145.003
145.392
146.006
146.936
148.276
150.097
152.419
155.22
158.446
162.037
165.943
170.124
174.551
179.195
184.027
189.011
194.103
199.251
204.397
209.488
214.472
219.302
223.94
228.374
232.618
236.665
240.502
244.134
247.59
250.885
254.028
257.053
260.017
144.401
144.401
144.402
144.404
144.406
144.411
144.418
144.43
144.451
144.486
144.544
144.642
144.804
145.069
145.496
146.162
147.163
148.587
150.498
152.907
155.784
159.075
162.721
166.674
170.899
175.366
180.05
184.922
189.947
195.08
200.27
205.46
210.596
215.626
220.509
225.211
229.717
234.023
238.125
242.014
245.705
249.219
252.562
255.737
258.763
261.683
264.516
267.257
269.915
272.54
144.407
144.412
144.421
144.435
144.458
144.497
144.561
144.669
144.847
145.136
145.599
146.315
147.378
148.876
150.861
153.34
156.276
159.616
163.302
167.291
171.547
176.046
180.76
185.665
190.723
195.892
201.121
206.353
211.534
216.611
221.544
226.301
230.863
235.221
239.374
243.328
247.089
250.669
254.076
257.316
260.424
263.43
266.329
269.103
271.759
274.323
276.82
279.25
281.624
284.005
144.465
144.508
144.58
144.699
144.893
145.207
145.704
146.467
147.588
149.149
151.197
153.73
156.71
160.084
163.797
167.807
172.083
176.6
181.335
186.261
191.344
196.542
201.804
207.073
212.295
217.419
222.402
227.213
231.831
236.247
240.459
244.472
248.294
251.937
255.413
258.733
261.918
264.985
267.935
270.763
273.487
276.128
278.688
281.165
283.561
285.885
288.14
290.322
292.442
294.57
144.945
145.285
145.818
146.627
147.803
149.421
151.522
154.097
157.109
160.503
164.229
168.248
172.53
177.053
181.795
186.731
191.828
197.044
202.329
207.628
212.886
218.052
223.083
227.946
232.62
237.095
241.368
245.442
249.327
253.033
256.573
259.959
263.206
266.325
269.328
272.22
275.015
277.724
280.35
282.893
285.361
287.756
290.076
292.318
294.485
296.574
298.582
300.502
302.341
304.176
148.038
149.711
151.858
154.468
157.501
160.904
164.632
168.647
172.924
177.44
182.176
187.108
192.205
197.427
202.723
208.042
213.327
218.527
223.599
228.509
233.236
237.767
242.099
246.235
250.181
253.95
257.553
261.001
264.31
267.49
270.553
273.508
276.365
279.132
281.816
284.422
286.955
289.417
291.807
294.127
296.374
298.543
300.625
302.619
304.525
306.341
308.067
309.7
311.25
312.785
154.873
157.92
161.325
165.045
169.047
173.306
177.804
182.521
187.436
192.519
197.732
203.026
208.35
213.65
218.873
223.976
228.926
233.698
238.279
242.666
246.858
250.864
254.692
258.356
261.866
265.234
268.475
271.598
274.614
277.531
280.358
283.102
285.769
288.364
290.889
293.346
295.734
298.051
300.294
302.457
304.539
306.534
308.439
310.249
311.966
313.59
315.125
316.57
317.926
319.201
320.458
169.492
173.725
178.193
182.879
187.765
192.82
198.009
203.287
208.602
213.9
219.133
224.254
229.231
234.038
238.66
243.092
247.334
251.392
255.276
258.995
262.561
265.987
269.285
272.465
275.538
278.514
281.399
284.201
286.927
289.581
292.168
294.688
297.142
299.528
301.842
304.082
306.243
308.321
310.312
312.213
314.024
315.743
317.37
318.904
320.348
321.705
322.974
324.158
325.258
326.282
327.282
183.306
188.15
193.165
198.316
203.561
208.851
214.133
219.358
224.482
229.471
234.298
238.949
243.415
247.696
251.797
255.726
259.493
263.109
266.586
269.935
273.167
276.293
279.321
282.261
285.118
287.899
290.609
293.253
295.833
298.35
300.801
303.186
305.499
307.738
309.896
311.971
313.959
315.858
317.668
319.387
321.017
322.558
324.01
325.374
326.651
327.842
328.95
329.976
330.921
331.786
332.578
333.342
203.912
209.159
214.407
219.607
224.716
229.7
234.531
239.193
243.679
247.986
252.117
256.081
259.885
263.541
267.059
270.452
273.728
276.899
279.973
282.96
285.866
288.696
291.458
294.155
296.789
299.363
301.876
304.325
306.709
309.021
311.258
313.416
315.489
317.477
319.376
321.186
322.907
324.54
326.086
327.546
328.919
330.209
331.414
332.536
333.576
334.535
335.414
336.215
336.939
337.589
338.168
338.716
225.019
229.977
234.793
239.45
243.937
248.253
252.4
256.383
260.212
263.895
267.444
270.869
274.18
277.386
280.498
283.523
286.469
289.342
292.147
294.889
297.571
300.195
302.762
305.271
307.717
310.098
312.409
314.645
316.801
318.874
320.862
322.763
324.577
326.302
327.941
329.494
330.962
332.346
333.647
334.866
336.004
337.062
338.039
338.938
339.759
340.504
341.173
341.768
342.289
342.74
343.123
343.47
244.248
248.554
252.698
256.685
260.522
264.218
267.784
271.228
274.562
277.793
280.931
283.984
286.96
289.865
292.705
295.483
298.203
300.87
303.482
306.04
308.541
310.983
313.36
315.667
317.901
320.056
322.129
324.118
326.021
327.839
329.57
331.217
332.78
334.259
335.655
336.969
338.203
339.357
340.432
341.429
342.35
343.194
343.962
344.656
345.276
345.823
346.298
346.701
347.034
347.3
347.498
347.654
260.868
264.561
268.127
271.577
274.919
278.161
281.314
284.383
287.378
290.304
293.167
295.97
298.719
301.417
304.064
306.661
309.207
311.698
314.132
316.502
318.804
321.033
323.185
325.257
327.246
329.153
330.975
332.713
334.369
335.943
337.434
338.844
340.174
341.425
342.597
343.691
344.709
345.651
346.518
347.31
348.03
348.677
349.252
349.756
350.189
350.551
350.845
351.069
351.224
351.319
351.343
351.325
275.3
278.539
281.692
284.765
287.765
290.7
293.574
296.392
299.157
301.874
304.545
307.169
309.747
312.277
314.755
317.176
319.536
321.829
324.051
326.198
328.267
330.256
332.164
333.99
335.735
337.4
338.984
340.488
341.914
343.261
344.53
345.721
346.836
347.876
348.841
349.733
350.551
351.297
351.971
352.575
353.108
353.572
353.967
354.292
354.551
354.737
354.86
354.917
354.9
354.833
354.7
354.519
288.169
291.099
293.971
296.79
299.56
302.284
304.965
307.605
310.202
312.757
315.266
317.725
320.13
322.475
324.756
326.968
329.106
331.17
333.156
335.064
336.892
338.643
340.316
341.91
343.427
344.867
346.231
347.518
348.73
349.867
350.93
351.92
352.837
353.682
354.456
355.159
355.792
356.356
356.851
357.278
357.636
357.928
358.153
358.308
358.404
358.423
358.383
358.285
358.117
357.887
357.597
357.259
302.691
305.37
308.011
310.615
313.181
315.707
318.19
320.625
323.009
325.335
327.599
329.796
331.923
333.978
335.958
337.863
339.692
341.446
343.124
344.727
346.255
347.709
349.089
350.394
351.627
352.786
353.873
354.887
355.831
356.703
357.506
358.239
358.902
359.498
360.025
360.484
360.877
361.203
361.464
361.656
361.784
361.85
361.84
361.781
361.653
361.46
361.205
360.887
360.507
360.067
359.58
313.594
316.123
318.615
321.066
323.473
325.83
328.132
330.374
332.553
334.664
336.705
338.676
340.574
342.4
344.154
345.836
347.445
348.983
350.448
351.842
353.164
354.415
355.596
356.706
357.745
358.715
359.615
360.447
361.21
361.905
362.533
363.094
363.587
364.015
364.376
364.671
364.903
365.066
365.17
365.205
365.175
365.092
364.939
364.725
364.448
364.108
363.707
363.244
362.722
362.141
361.51
323.914
326.286
328.611
330.884
333.099
335.254
337.344
339.369
341.325
343.213
345.032
346.783
348.464
350.077
351.62
353.095
354.5
355.837
357.105
358.304
359.436
360.499
361.494
362.422
363.282
364.075
364.802
365.462
366.056
366.585
367.047
367.445
367.777
368.046
368.25
368.388
368.469
368.474
368.428
368.32
368.147
367.912
367.615
367.257
366.838
366.358
365.818
365.218
364.56
363.844
363.078
335.791
337.916
339.981
341.983
343.922
345.795
347.603
349.346
351.023
352.634
354.18
355.66
357.074
358.422
359.704
360.921
362.071
363.155
364.174
365.127
366.015
366.837
367.595
368.287
368.915
369.478
369.976
370.41
370.78
371.086
371.33
371.508
371.625
371.679
371.665
371.601
371.47
371.278
371.025
370.71
370.335
369.9
369.405
368.85
368.236
367.564
366.834
366.046
365.202
364.307
344.567
346.482
348.335
350.127
351.858
353.526
355.132
356.677
358.158
359.577
360.932
362.225
363.455
364.621
365.724
366.764
367.74
368.653
369.503
370.289
371.013
371.672
372.269
372.803
373.273
373.68
374.025
374.306
374.527
374.682
374.779
374.809
374.779
374.695
374.545
374.336
374.066
373.735
373.345
372.896
372.387
371.82
371.194
370.51
369.769
368.97
368.115
367.204
366.238
365.22
352.622
354.335
355.99
357.587
359.124
360.603
362.022
363.381
364.68
365.919
367.098
368.216
369.273
370.27
371.206
372.08
372.893
373.645
374.335
374.964
375.531
376.037
376.481
376.863
377.183
377.443
377.64
377.775
377.854
377.861
377.818
377.715
377.549
377.323
377.038
376.694
376.29
375.828
375.307
374.728
374.092
373.398
372.647
371.84
370.977
370.059
369.085
368.056
366.974
365.84
360.013
361.539
363.009
364.424
365.782
367.083
368.327
369.514
370.643
371.715
372.728
373.682
374.578
375.415
376.193
376.911
377.57
378.169
378.708
379.186
379.605
379.963
380.261
380.499
380.675
380.792
380.851
380.842
380.784
380.664
380.483
380.243
379.944
379.587
379.171
378.698
378.166
377.578
376.932
376.23
375.472
374.657
373.788
372.863
371.884
370.851
369.763
368.623
367.43
366.184
366.798
368.15
369.448
370.693
371.883
373.019
374.1
375.125
376.095
377.009
377.866
378.666
379.409
380.095
380.722
381.292
381.803
382.256
382.65
382.986
383.262
383.48
383.636
383.736
383.775
383.753
383.681
383.544
383.35
383.098
382.787
382.419
381.992
381.509
380.968
380.371
379.718
379.008
378.243
377.423
376.548
375.619
374.636
373.599
372.509
371.366
370.17
368.922
367.626
366.288
373.031
374.22
375.358
376.443
377.477
378.457
379.384
380.257
381.076
381.84
382.549
383.202
383.8
384.341
384.825
385.253
385.623
385.936
386.191
386.389
386.527
386.612
386.631
386.598
386.51
386.36
386.154
385.89
385.569
385.19
384.755
384.263
383.714
383.11
382.45
381.734
380.964
380.139
379.26
378.327
377.341
376.302
375.209
374.066
372.869
371.621
370.329
368.993
367.61
366.179
378.759
379.795
380.781
381.717
382.601
383.434
384.215
384.944
385.619
386.24
386.807
387.32
387.778
388.181
388.528
388.819
389.054
389.233
389.354
389.422
389.424
389.38
389.277
389.115
388.898
388.624
388.293
387.905
387.462
386.962
386.407
385.796
385.131
384.411
383.636
382.808
381.926
380.99
380.002
378.961
377.868
376.724
375.527
374.28
372.993
371.659
370.279
368.854
367.381
365.859
384.912
385.755
386.548
387.291
387.984
388.625
389.215
389.752
390.237
390.668
391.046
391.37
391.64
391.855
392.014
392.119
392.169
392.158
392.102
391.985
391.812
391.584
391.3
390.961
390.565
390.115
389.609
389.048
388.433
387.763
387.039
386.261
385.43
384.546
383.609
382.62
381.579
380.486
379.341
378.146
376.903
375.619
374.288
372.912
371.49
370.022
368.507
366.947
365.341
389.604
390.309
390.966
391.574
392.132
392.639
393.096
393.501
393.854
394.155
394.403
394.599
394.739
394.828
394.86
394.837
394.767
394.637
394.454
394.216
393.923
393.576
393.174
392.717
392.206
391.64
391.021
390.347
389.621
388.841
388.008
387.123
386.186
385.197
384.156
383.064
381.921
380.727
379.49
378.209
376.881
375.509
374.092
372.627
371.118
369.565
367.968
366.329
364.645
393.897
394.471
394.997
395.474
395.903
396.281
396.61
396.887
397.114
397.29
397.411
397.484
397.498
397.465
397.38
397.239
397.045
396.798
396.496
396.141
395.733
395.27
394.754
394.185
393.562
392.887
392.158
391.377
390.544
389.659
388.722
387.734
386.694
385.605
384.463
383.272
382.04
380.763
379.44
378.073
376.66
375.2
373.697
372.149
370.56
368.929
367.257
365.544
363.789
398.262
398.662
399.014
399.318
399.572
399.777
399.932
400.036
400.091
400.089
400.044
399.944
399.792
399.588
399.331
399.022
398.66
398.245
397.778
397.258
396.685
396.06
395.383
394.653
393.872
393.039
392.154
391.219
390.232
389.195
388.108
386.97
385.784
384.557
383.284
381.967
380.605
379.196
377.742
376.244
374.703
373.121
371.497
369.833
368.13
366.389
364.61
362.789
401.704
401.982
402.213
402.396
402.53
402.616
402.652
402.636
402.577
402.464
402.3
402.086
401.82
401.503
401.134
400.713
400.241
399.718
399.142
398.515
397.837
397.107
396.326
395.494
394.611
393.678
392.694
391.66
390.576
389.442
388.263
387.041
385.773
384.462
383.106
381.702
380.254
378.763
377.229
375.653
374.037
372.381
370.686
368.954
367.185
365.38
363.54
361.661
404.975
405.088
405.157
405.173
405.144
405.069
404.942
404.767
404.542
404.267
403.942
403.566
403.141
402.664
402.137
401.559
400.931
400.252
399.522
398.742
397.911
397.031
396.101
395.12
394.09
393.01
391.881
390.709
389.493
388.231
386.926
385.576
384.179
382.738
381.254
379.727
378.159
376.551
374.903
373.216
371.492
369.732
367.937
366.108
364.246
362.351
360.419
407.66
407.657
407.614
407.522
407.382
407.195
406.96
406.675
406.342
405.96
405.529
405.048
404.518
403.938
403.308
402.628
401.899
401.121
400.292
399.414
398.488
397.511
396.486
395.411
394.287
393.123
391.913
390.658
389.361
388.017
386.628
385.195
383.718
382.2
380.64
379.039
377.4
375.722
374.007
372.256
370.469
368.649
366.797
364.913
362.999
361.055
359.078
409.941
409.788
409.588
409.342
409.048
408.707
408.318
407.881
407.395
406.862
406.28
405.649
404.969
404.241
403.464
402.638
401.764
400.84
399.869
398.849
397.779
396.663
395.505
394.302
393.056
391.767
390.43
389.049
387.624
386.156
384.647
383.095
381.504
379.874
378.205
376.499
374.756
372.979
371.169
369.326
367.451
365.547
363.615
361.655
359.668
357.65
411.949
411.691
411.387
411.037
410.641
410.198
409.709
409.172
408.587
407.955
407.276
406.548
405.773
404.95
404.079
403.16
402.194
401.179
400.116
399.008
397.858
396.663
395.425
394.144
392.816
391.444
390.028
388.569
387.069
385.527
383.946
382.325
380.666
378.969
377.236
375.469
373.668
371.834
369.969
368.074
366.151
364.2
362.225
360.225
358.201
356.149
413.695
413.337
412.933
412.484
411.99
411.449
410.862
410.229
409.549
408.823
408.05
407.229
406.363
405.448
404.487
403.479
402.422
401.322
400.18
398.994
397.766
396.493
395.174
393.812
392.406
390.957
389.467
387.936
386.365
384.754
383.105
381.419
379.696
377.939
376.147
374.323
372.468
370.582
368.668
366.727
364.76
362.769
360.756
358.721
356.666
354.587
415.195
414.74
414.24
413.696
413.106
412.472
411.792
411.066
410.295
409.478
408.615
407.705
406.749
405.747
404.698
403.607
402.473
401.296
400.077
398.814
397.505
396.153
394.758
393.321
391.841
390.321
388.761
387.162
385.524
383.849
382.137
380.39
378.609
376.795
374.949
373.073
371.168
369.236
367.278
365.296
363.291
361.265
359.22
357.157
355.077
352.975
416.462
415.913
415.321
414.685
414.004
413.279
412.51
411.695
410.836
409.931
408.982
407.986
406.944
405.862
404.737
403.57
402.361
401.107
399.809
398.468
397.084
395.659
394.191
392.683
391.135
389.548
387.922
386.258
384.558
382.823
381.053
379.25
377.415
375.549
373.654
371.731
369.782
367.808
365.811
363.793
361.755
359.699
357.628
355.542
353.442
351.325
417.508
416.869
416.188
415.463
414.696
413.884
413.028
412.128
411.185
410.195
409.161
408.088
406.972
405.815
404.616
403.373
402.086
400.757
399.385
397.972
396.517
395.021
393.486
391.911
390.298
388.648
386.96
385.237
383.479
381.688
379.864
378.009
376.124
374.211
372.272
370.306
368.318
366.307
364.277
362.228
360.163
358.083
355.991
353.888
351.774
349.648
418.344
417.62
416.853
416.044
415.192
414.297
413.359
412.376
411.349
410.285
409.178
408.031
406.843
405.611
404.336
403.019
401.659
400.259
398.817
397.335
395.813
394.252
392.653
391.016
389.342
387.632
385.887
384.108
382.297
380.454
378.58
376.678
374.749
372.793
370.813
368.811
366.788
364.745
362.686
360.612
358.524
356.426
354.318
352.204
350.082
347.951
418.176
417.328
416.437
415.504
414.527
413.51
412.454
411.356
410.22
409.042
407.821
406.558
405.253
403.907
402.52
401.092
399.624
398.117
396.57
394.985
393.363
391.703
390.008
388.277
386.512
384.713
382.883
381.022
379.131
377.213
375.268
373.297
371.304
369.289
367.254
365.201
363.132
361.049
358.954
356.85
354.738
352.621
350.499
348.376
346.246
418.549
417.621
416.651
415.641
414.594
413.505
412.379
411.213
410.003
408.752
407.46
406.127
404.754
403.341
401.888
400.395
398.864
397.294
395.687
394.043
392.362
390.646
388.896
387.112
385.295
383.448
381.57
379.664
377.73
375.77
373.787
371.78
369.753
367.707
365.645
363.567
361.476
359.375
357.265
355.149
353.028
350.906
348.784
346.663
344.54
418.746
417.745
416.705
415.626
414.51
413.354
412.156
410.918
409.639
408.32
406.961
405.562
404.124
402.647
401.132
399.578
397.987
396.359
394.695
392.995
391.26
389.491
387.69
385.857
383.993
382.1
380.179
378.231
376.259
374.262
372.244
370.207
368.151
366.078
363.992
361.894
359.787
357.672
355.552
353.428
351.305
349.183
347.065
344.952
342.841
417.719
416.613
415.466
414.28
413.054
411.788
410.483
409.139
407.756
406.333
404.872
403.373
401.836
400.262
398.651
397.004
395.321
393.603
391.851
390.066
388.248
386.4
384.521
382.614
380.68
378.719
376.734
374.726
372.698
370.65
368.585
366.504
364.41
362.306
360.192
358.073
355.949
353.823
351.698
349.576
347.46
345.351
343.251
341.157
417.55
416.375
415.161
413.909
412.618
411.288
409.92
408.513
407.069
405.587
404.067
402.51
400.917
399.287
397.622
395.922
394.188
392.42
390.619
388.787
386.925
385.033
383.113
381.166
379.194
377.198
375.18
373.141
371.084
369.011
366.923
364.822
362.711
360.593
358.468
356.341
354.213
352.087
349.965
347.849
345.743
343.648
341.565
339.492
417.238
415.999
414.722
413.407
412.054
410.664
409.236
407.771
406.269
404.731
403.156
401.544
399.898
398.216
396.5
394.751
392.969
391.154
389.309
387.434
385.53
383.598
381.64
379.658
377.652
375.624
373.577
371.512
369.431
367.335
365.229
363.112
360.989
358.861
356.73
354.6
352.472
350.35
348.235
346.131
344.039
341.962
339.901
337.854
416.795
415.495
414.158
412.784
411.373
409.925
408.441
406.921
405.365
403.773
402.146
400.483
398.787
397.057
395.294
393.498
391.671
389.814
387.927
386.012
384.07
382.103
380.111
378.096
376.06
374.005
371.933
369.845
367.744
365.631
363.51
361.382
359.25
357.117
354.985
352.856
350.733
348.619
346.516
344.427
342.354
340.3
338.265
336.246
414.871
413.477
412.048
410.582
409.08
407.543
405.971
404.364
402.721
401.045
399.335
397.592
395.817
394.01
392.172
390.304
388.407
386.482
384.531
382.555
380.554
378.532
376.489
374.427
372.348
370.255
368.148
366.031
363.905
361.774
359.639
357.503
355.368
353.238
351.115
349.002
346.9
344.813
342.744
340.693
338.665
336.659
334.674
414.137
412.689
411.207
409.689
408.137
406.55
404.928
403.273
401.584
399.862
398.108
396.321
394.504
392.656
390.779
388.873
386.94
384.981
382.997
380.989
378.96
376.911
374.843
372.759
370.66
368.549
366.428
364.298
362.164
360.026
357.888
355.752
353.621
351.497
349.384
347.284
345.199
343.132
341.085
339.061
337.062
335.089
333.139
413.299
411.801
410.269
408.703
407.102
405.468
403.801
402.101
400.368
398.604
396.808
394.981
393.125
391.239
389.326
387.386
385.42
383.429
381.416
379.382
377.327
375.254
373.166
371.063
368.948
366.823
364.691
362.553
360.413
358.273
356.136
354.004
351.88
349.767
347.668
345.584
343.52
341.476
339.456
337.462
335.496
333.558
331.645
410.82
409.241
407.629
405.984
404.306
402.596
400.854
399.08
397.276
395.442
393.578
391.686
389.766
387.82
385.849
383.853
381.835
379.796
377.737
375.661
373.569
371.462
369.344
367.217
365.082
362.943
360.801
358.66
356.522
354.389
352.265
350.152
348.053
345.971
343.908
341.867
339.851
337.86
335.899
333.967
332.067
330.195
409.754
408.131
406.476
404.789
403.07
401.32
399.539
397.727
395.887
394.017
392.119
390.194
388.243
386.268
384.268
382.246
380.204
378.142
376.063
373.968
371.859
369.739
367.61