/*--------------------------------*- C++ -*----------------------------------*\
| =========                 |                                                 |
| \\      /  F ield         | OpenFOAM: The Open Source CFD Toolbox           |
|  \\    /   O peration     | Version:  v1706                                 |
|   \\  /    A nd           | Web:      www.OpenFOAM.com                      |
|    \\/     M anipulation  |                                                 |
\*---------------------------------------------------------------------------*/
FoamFile
{
    version     2.0;
    format      ascii;
    class       volVectorField;
    location    "7e-06";
    object      U;
}
// * * * * * * * * * * * * * * * * * * * * * * * * * * * * * * * * * * * * * //

dimensions      [0 1 -1 0 0 0 0];


internalField   nonuniform List<vector> 
30038
(
(2764.5 -3.6373e-11 1.24796e-14)
(2764.5 -3.65323e-11 -4.4044e-15)
(2764.5 -3.72408e-11 1.16978e-14)
(2764.5 -3.96742e-11 2.65537e-15)
(2764.5 -3.83339e-11 4.59832e-15)
(2764.5 -3.74866e-11 2.28833e-15)
(2764.5 -3.76489e-11 7.42653e-15)
(2764.5 -3.94278e-11 1.1674e-14)
(2764.5 -3.81376e-11 7.18684e-15)
(2764.5 -3.90989e-11 -9.84403e-16)
(2764.5 -3.5984e-11 9.45767e-15)
(2764.5 -4.0012e-11 7.5868e-15)
(2764.5 -3.98375e-11 9.02842e-15)
(2764.5 -3.85555e-11 2.31917e-15)
(2764.5 -4.22769e-11 2.615e-15)
(2764.5 -4.42278e-11 1.15325e-14)
(2764.5 -4.7209e-11 8.20134e-15)
(2764.5 -4.72774e-11 1.37013e-15)
(2764.5 -4.77646e-11 2.65913e-15)
(2764.5 -4.99637e-11 7.59889e-15)
(2764.5 -5.25122e-11 6.40726e-15)
(2764.5 -5.63647e-11 1.06511e-14)
(2764.5 -6.03067e-11 -1.12506e-16)
(2764.5 -6.28767e-11 7.30583e-15)
(2764.5 -6.22347e-11 5.74189e-15)
(2764.5 -6.2515e-11 3.64702e-15)
(2764.5 -5.88937e-11 1.94498e-15)
(2764.5 -5.77245e-11 4.64367e-15)
(2764.5 -5.75667e-11 9.63407e-15)
(2764.5 -5.91634e-11 9.35386e-15)
(2764.5 -5.91124e-11 5.67353e-15)
(2764.5 -6.53105e-11 1.11001e-14)
(2764.5 -6.80154e-11 7.4366e-15)
(2764.5 -7.15994e-11 5.81501e-15)
(2764.5 -7.4379e-11 9.15218e-15)
(2764.5 -7.90025e-11 9.7621e-15)
(2764.5 -7.71443e-11 1.50647e-15)
(2764.5 -7.99894e-11 4.219e-15)
(2764.5 -1.18962e-10 2.10022e-14)
(2764.5 -1.17053e-10 1.46576e-14)
(2764.5 -1.17495e-10 2.35056e-14)
(2764.5 -1.17817e-10 1.4139e-14)
(2764.5 -1.21089e-10 2.61044e-14)
(2764.5 -1.18439e-10 2.3125e-14)
(2764.5 -1.20307e-10 2.10109e-14)
(2764.5 -1.22669e-10 2.50141e-14)
(2764.5 -1.20666e-10 1.93624e-14)
(2764.5 -1.2704e-10 1.76472e-14)
(2764.5 -1.26215e-10 2.58763e-14)
(2764.5 -1.2444e-10 1.53371e-14)
(2764.5 -1.31363e-10 1.94969e-14)
(2764.5 -1.28649e-10 1.91877e-14)
(2764.5 -1.29437e-10 1.75457e-14)
(2764.5 -1.33186e-10 2.07635e-14)
(2764.5 -1.33683e-10 1.94415e-14)
(2764.5 -1.38143e-10 2.0509e-14)
(2764.5 -1.3518e-10 1.49684e-14)
(2764.5 -1.37505e-10 1.76232e-14)
(2764.5 -1.38453e-10 1.79547e-14)
(2764.5 -1.40418e-10 2.06113e-14)
(2764.5 -1.42479e-10 1.96319e-14)
(2764.5 -1.52687e-10 1.98153e-14)
(2764.5 -1.54433e-10 1.75773e-14)
(2764.5 -1.59977e-10 1.96662e-14)
(2764.5 -1.66757e-10 1.92419e-14)
(2764.5 -1.6978e-10 1.76694e-14)
(2764.5 -1.7244e-10 1.68792e-14)
(2764.5 -1.76054e-10 2.46219e-14)
(2764.5 -1.77804e-10 1.34762e-14)
(2764.5 -1.73627e-10 2.29721e-14)
(2764.5 -1.80214e-10 2.81552e-14)
(2764.5 -1.7904e-10 2.20112e-14)
(2764.5 -1.87153e-10 2.61079e-14)
(2764.5 -1.91779e-10 1.83005e-14)
(2764.5 -2.08701e-10 1.85448e-14)
(2764.5 -2.18144e-10 2.10812e-14)
(2764.5 -1.86945e-10 3.35933e-14)
(2764.5 -1.89076e-10 3.41407e-14)
(2764.5 -1.93564e-10 3.54116e-14)
(2764.5 -1.97593e-10 2.73411e-14)
(2764.5 -2.02363e-10 3.41174e-14)
(2764.5 -1.9841e-10 3.36257e-14)
(2764.5 -1.9607e-10 3.43448e-14)
(2764.5 -1.9944e-10 3.041e-14)
(2764.5 -1.98673e-10 2.81261e-14)
(2764.5 -2.01706e-10 3.07637e-14)
(2764.5 -2.05728e-10 3.03607e-14)
(2764.5 -2.05118e-10 3.07657e-14)
(2764.5 -2.0922e-10 3.17124e-14)
(2764.5 -2.16799e-10 3.44798e-14)
(2764.5 -2.15143e-10 3.03297e-14)
(2764.5 -2.18012e-10 3.49967e-14)
(2764.5 -2.19602e-10 3.5178e-14)
(2764.5 -2.25378e-10 3.37287e-14)
(2764.5 -2.2566e-10 3.10147e-14)
(2764.5 -2.27409e-10 3.41843e-14)
(2764.5 -2.32373e-10 3.0399e-14)
(2764.5 -2.33339e-10 3.21835e-14)
(2764.5 -2.34933e-10 2.92373e-14)
(2764.5 -2.41015e-10 2.72783e-14)
(2764.5 -2.48468e-10 3.23172e-14)
(2764.5 -2.53928e-10 3.462e-14)
(2764.5 -2.62827e-10 3.04383e-14)
(2764.5 -2.67956e-10 2.70234e-14)
(2764.5 -2.73114e-10 2.70813e-14)
(2764.5 -2.78274e-10 3.26178e-14)
(2764.5 -2.82463e-10 3.07547e-14)
(2764.5 -2.82377e-10 3.41377e-14)
(2764.5 -2.85054e-10 3.26689e-14)
(2764.5 -2.85085e-10 3.37023e-14)
(2764.5 -2.90333e-10 3.36568e-14)
(2764.5 -2.89678e-10 3.64201e-14)
(2764.5 -3.05737e-10 3.08714e-14)
(2764.5 -3.17459e-10 3.22055e-14)
(2764.5 -2.48325e-10 4.58771e-14)
(2764.5 -2.48442e-10 4.42934e-14)
(2764.5 -2.56571e-10 4.47725e-14)
(2764.5 -2.64465e-10 4.04266e-14)
(2764.5 -2.70874e-10 4.84317e-14)
(2764.5 -2.75755e-10 4.40565e-14)
(2764.5 -2.77541e-10 4.22876e-14)
(2764.5 -2.79448e-10 3.80666e-14)
(2764.5 -2.81688e-10 4.43524e-14)
(2764.5 -2.86105e-10 4.14601e-14)
(2764.5 -2.89378e-10 4.63848e-14)
(2764.5 -2.89348e-10 4.45499e-14)
(2764.5 -2.87416e-10 4.75337e-14)
(2764.5 -2.91767e-10 4.13623e-14)
(2764.5 -2.95701e-10 3.80018e-14)
(2764.5 -3.00326e-10 4.33319e-14)
(2764.5 -3.02791e-10 3.86543e-14)
(2764.5 -3.08204e-10 4.24102e-14)
(2764.5 -3.08558e-10 4.70275e-14)
(2764.5 -3.0831e-10 4.45797e-14)
(2764.5 -3.1244e-10 4.14266e-14)
(2764.5 -3.17323e-10 4.0708e-14)
(2764.5 -3.217e-10 4.4139e-14)
(2764.5 -3.2576e-10 4.71241e-14)
(2764.5 -3.32037e-10 4.35809e-14)
(2764.5 -3.37748e-10 4.58141e-14)
(2764.5 -3.48523e-10 4.42355e-14)
(2764.5 -3.57008e-10 4.22754e-14)
(2764.5 -3.65157e-10 4.26745e-14)
(2764.5 -3.75201e-10 4.92791e-14)
(2764.5 -3.83946e-10 4.59699e-14)
(2764.5 -3.91647e-10 4.78434e-14)
(2764.5 -3.99603e-10 4.67775e-14)
(2764.5 -4.01031e-10 4.46734e-14)
(2764.5 -4.0658e-10 4.56072e-14)
(2764.5 -4.05843e-10 5.03762e-14)
(2764.5 -4.16033e-10 4.86809e-14)
(2764.5 -4.26512e-10 4.93768e-14)
(2764.5 -3.12102e-10 5.6277e-14)
(2764.5 -3.12175e-10 5.69828e-14)
(2764.5 -3.16287e-10 5.85037e-14)
(2764.5 -3.25371e-10 5.70986e-14)
(2764.5 -3.3383e-10 5.63509e-14)
(2764.5 -3.40089e-10 5.4348e-14)
(2764.5 -3.45095e-10 5.85684e-14)
(2764.5 -3.50213e-10 5.87084e-14)
(2764.5 -3.5418e-10 5.97094e-14)
(2764.5 -3.61162e-10 5.79312e-14)
(2764.5 -3.68865e-10 5.88973e-14)
(2764.5 -3.71824e-10 5.63106e-14)
(2764.5 -3.73084e-10 5.43309e-14)
(2764.5 -3.75329e-10 5.04716e-14)
(2764.5 -3.80737e-10 5.10936e-14)
(2764.5 -3.84552e-10 5.64513e-14)
(2764.5 -3.86819e-10 6.15123e-14)
(2764.5 -3.9247e-10 5.99012e-14)
(2764.5 -3.96736e-10 5.41342e-14)
(2764.5 -3.95335e-10 6.03623e-14)
(2764.5 -3.96147e-10 5.75373e-14)
(2764.5 -4.00455e-10 4.92992e-14)
(2764.5 -4.05587e-10 5.86313e-14)
(2764.5 -4.11774e-10 5.70908e-14)
(2764.5 -4.16609e-10 5.91095e-14)
(2764.5 -4.20426e-10 6.00374e-14)
(2764.5 -4.28639e-10 6.48231e-14)
(2764.5 -4.36836e-10 5.75702e-14)
(2764.5 -4.44068e-10 5.08371e-14)
(2764.5 -4.52716e-10 4.93503e-14)
(2764.5 -4.65483e-10 5.18186e-14)
(2764.5 -4.76309e-10 6.24688e-14)
(2764.5 -4.87458e-10 6.12145e-14)
(2764.5 -4.94818e-10 5.83729e-14)
(2764.5 -5.0231e-10 5.77939e-14)
(2764.5 -5.04868e-10 5.81989e-14)
(2764.5 -5.11866e-10 6.15764e-14)
(2764.5 -5.23728e-10 6.28746e-14)
(2764.5 -3.71485e-10 7.00997e-14)
(2764.5 -3.73733e-10 7.17683e-14)
(2764.5 -3.75979e-10 7.05907e-14)
(2764.5 -3.82887e-10 6.23757e-14)
(2764.5 -3.91475e-10 6.33289e-14)
(2764.5 -4.0281e-10 6.68823e-14)
(2764.5 -4.09306e-10 6.32636e-14)
(2764.5 -4.12762e-10 7.1786e-14)
(2764.5 -4.16908e-10 7.48683e-14)
(2764.5 -4.20904e-10 7.19365e-14)
(2764.5 -4.32181e-10 7.36513e-14)
(2764.5 -4.42224e-10 6.91214e-14)
(2764.5 -4.4641e-10 6.6328e-14)
(2764.5 -4.51291e-10 6.82176e-14)
(2764.5 -4.57975e-10 6.87668e-14)
(2764.5 -4.64484e-10 6.76846e-14)
(2764.5 -4.66829e-10 7.26428e-14)
(2764.5 -4.70977e-10 7.22964e-14)
(2764.5 -4.76271e-10 6.53475e-14)
(2764.5 -4.81821e-10 6.9431e-14)
(2764.5 -4.86379e-10 7.14664e-14)
(2764.5 -4.88354e-10 7.45683e-14)
(2764.5 -4.92213e-10 7.48409e-14)
(2764.5 -4.97555e-10 6.80046e-14)
(2764.5 -5.02018e-10 6.50712e-14)
(2764.5 -5.05418e-10 6.80279e-14)
(2764.5 -5.12416e-10 7.95919e-14)
(2764.5 -5.23058e-10 6.81754e-14)
(2764.5 -5.32241e-10 7.14773e-14)
(2764.5 -5.38599e-10 7.46411e-14)
(2764.5 -5.46553e-10 6.81123e-14)
(2764.5 -5.60455e-10 6.94196e-14)
(2764.5 -5.73725e-10 6.88095e-14)
(2764.5 -5.82442e-10 7.46099e-14)
(2764.5 -5.93514e-10 7.70611e-14)
(2764.5 -6.03085e-10 6.83709e-14)
(2764.5 -6.09591e-10 6.79022e-14)
(2764.5 -6.18638e-10 7.26173e-14)
(2764.5 -4.3115e-10 7.8749e-14)
(2764.5 -4.34682e-10 7.30688e-14)
(2764.5 -4.41737e-10 7.98966e-14)
(2764.5 -4.47383e-10 8.58838e-14)
(2764.5 -4.51804e-10 8.35019e-14)
(2764.5 -4.60215e-10 7.99249e-14)
(2764.5 -4.69506e-10 8.0619e-14)
(2764.5 -4.75104e-10 8.59968e-14)
(2764.5 -4.81694e-10 7.48221e-14)
(2764.5 -4.84442e-10 8.24721e-14)
(2764.5 -4.93014e-10 8.416e-14)
(2764.5 -5.01915e-10 7.91618e-14)
(2764.5 -5.07348e-10 7.95119e-14)
(2764.5 -5.15595e-10 7.89748e-14)
(2764.5 -5.22725e-10 7.71113e-14)
(2764.5 -5.32329e-10 8.14521e-14)
(2764.5 -5.39457e-10 7.95316e-14)
(2764.5 -5.48497e-10 8.61094e-14)
(2764.5 -5.53076e-10 8.18512e-14)
(2764.5 -5.55373e-10 8.33017e-14)
(2764.5 -5.62106e-10 8.51666e-14)
(2764.5 -5.67026e-10 8.33993e-14)
(2764.5 -5.703e-10 8.12378e-14)
(2764.5 -5.77056e-10 8.43925e-14)
(2764.5 -5.82516e-10 8.21472e-14)
(2764.5 -5.87646e-10 8.27779e-14)
(2764.5 -5.93784e-10 8.96931e-14)
(2764.5 -5.99923e-10 7.86794e-14)
(2764.5 -6.10656e-10 7.61909e-14)
(2764.5 -6.20211e-10 8.03687e-14)
(2764.5 -6.27991e-10 8.15967e-14)
(2764.5 -6.36465e-10 7.90748e-14)
(2764.5 -6.49785e-10 8.2477e-14)
(2764.5 -6.63093e-10 8.66001e-14)
(2764.5 -6.76358e-10 9.10273e-14)
(2764.5 -6.85882e-10 8.60221e-14)
(2764.5 -6.97043e-10 8.39961e-14)
(2764.5 -7.08828e-10 8.74715e-14)
(2764.5 -4.92911e-10 9.42199e-14)
(2764.5 -4.93529e-10 9.19681e-14)
(2764.5 -4.99053e-10 9.40185e-14)
(2764.5 -5.06032e-10 9.93084e-14)
(2764.5 -5.08854e-10 9.99971e-14)
(2764.5 -5.13606e-10 9.19179e-14)
(2764.5 -5.24161e-10 9.1464e-14)
(2764.5 -5.33076e-10 9.28089e-14)
(2764.5 -5.42491e-10 9.5657e-14)
(2764.5 -5.48242e-10 9.653e-14)
(2764.5 -5.57816e-10 8.89533e-14)
(2764.5 -5.67682e-10 9.25387e-14)
(2764.5 -5.71124e-10 8.98665e-14)
(2764.5 -5.78685e-10 9.37691e-14)
(2764.5 -5.87625e-10 9.18725e-14)
(2764.5 -5.97652e-10 9.67788e-14)
(2764.5 -6.05036e-10 9.91928e-14)
(2764.5 -6.13948e-10 9.82199e-14)
(2764.5 -6.22364e-10 9.42342e-14)
(2764.5 -6.26228e-10 9.86903e-14)
(2764.5 -6.31412e-10 9.1894e-14)
(2764.5 -6.38291e-10 9.81953e-14)
(2764.5 -6.44375e-10 9.27762e-14)
(2764.5 -6.54526e-10 9.19993e-14)
(2764.5 -6.61449e-10 8.80571e-14)
(2764.5 -6.64319e-10 9.50283e-14)
(2764.5 -6.69044e-10 9.3989e-14)
(2764.5 -6.73712e-10 9.10457e-14)
(2764.5 -6.84193e-10 9.69891e-14)
(2764.5 -6.94403e-10 9.86575e-14)
(2764.5 -7.02358e-10 1.01544e-13)
(2764.5 -7.09524e-10 9.89606e-14)
(2764.5 -7.19009e-10 1.0218e-13)
(2764.5 -7.29603e-10 9.80397e-14)
(2764.5 -7.45158e-10 9.7121e-14)
(2764.5 -7.59125e-10 1.04749e-13)
(2764.5 -7.73996e-10 1.00145e-13)
(2764.5 -7.90842e-10 9.39502e-14)
(2764.5 -5.44253e-10 1.06939e-13)
(2764.5 -5.4741e-10 1.05278e-13)
(2764.5 -5.47877e-10 1.12515e-13)
(2764.5 -5.52054e-10 1.11302e-13)
(2764.5 -5.59237e-10 1.10107e-13)
(2764.5 -5.63401e-10 1.08942e-13)
(2764.5 -5.70336e-10 1.14231e-13)
(2764.5 -5.7974e-10 1.08253e-13)
(2764.5 -5.89876e-10 1.07674e-13)
(2764.5 -5.99688e-10 1.08819e-13)
(2764.5 -6.07366e-10 9.97554e-14)
(2764.5 -6.1656e-10 1.07883e-13)
(2764.5 -6.2566e-10 9.97174e-14)
(2764.5 -6.30374e-10 1.06223e-13)
(2764.5 -6.36838e-10 1.09421e-13)
(2764.5 -6.47659e-10 1.09557e-13)
(2764.5 -6.58022e-10 1.11482e-13)
(2764.5 -6.66507e-10 1.05357e-13)
(2764.5 -6.77791e-10 1.0537e-13)
(2764.5 -6.89217e-10 1.05886e-13)
(2764.5 -6.96407e-10 1.06701e-13)
(2764.5 -7.00999e-10 1.06971e-13)
(2764.5 -7.07285e-10 1.05971e-13)
(2764.5 -7.14213e-10 1.02377e-13)
(2764.5 -7.22675e-10 1.05459e-13)
(2764.5 -7.30864e-10 1.06906e-13)
(2764.5 -7.35787e-10 1.10024e-13)
(2764.5 -7.41145e-10 1.05981e-13)
(2764.5 -7.43132e-10 1.07604e-13)
(2764.5 -7.50732e-10 1.07131e-13)
(2764.5 -7.65404e-10 1.09934e-13)
(2764.5 -7.80976e-10 1.09669e-13)
(2764.5 -7.88346e-10 1.12297e-13)
(2764.5 -7.96647e-10 1.09664e-13)
(2764.5 -8.05147e-10 1.16125e-13)
(2764.5 -8.16125e-10 1.15873e-13)
(2764.5 -8.26771e-10 1.12066e-13)
(2764.5 -8.44206e-10 1.09602e-13)
(2764.5 -8.6516e-10 1.09157e-13)
(2764.5 -5.99003e-10 1.21727e-13)
(2764.5 -6.03379e-10 1.1635e-13)
(2764.5 -6.07974e-10 1.17422e-13)
(2764.5 -6.10993e-10 1.24204e-13)
(2764.5 -6.14566e-10 1.24083e-13)
(2764.5 -6.20362e-10 1.24165e-13)
(2764.5 -6.31682e-10 1.26534e-13)
(2764.5 -6.40239e-10 1.16809e-13)
(2764.5 -6.49552e-10 1.1685e-13)
(2764.5 -6.59789e-10 1.15784e-13)
(2764.5 -6.67883e-10 1.19957e-13)
(2764.5 -6.7774e-10 1.15763e-13)
(2764.5 -6.87181e-10 1.10832e-13)
(2764.5 -6.92969e-10 1.21449e-13)
(2764.5 -6.9913e-10 1.20821e-13)
(2764.5 -7.0903e-10 1.22079e-13)
(2764.5 -7.19925e-10 1.1271e-13)
(2764.5 -7.29052e-10 1.19863e-13)
(2764.5 -7.39261e-10 1.18771e-13)
(2764.5 -7.5097e-10 1.20049e-13)
(2764.5 -7.60855e-10 1.16908e-13)
(2764.5 -7.67455e-10 1.16224e-13)
(2764.5 -7.73874e-10 1.15572e-13)
(2764.5 -7.79111e-10 1.17304e-13)
(2764.5 -7.85061e-10 1.21732e-13)
(2764.5 -7.93601e-10 1.19943e-13)
(2764.5 -8.00178e-10 1.22237e-13)
(2764.5 -8.09551e-10 1.17694e-13)
(2764.5 -8.15372e-10 1.15394e-13)
(2764.5 -8.21422e-10 1.21935e-13)
(2764.5 -8.33818e-10 1.23004e-13)
(2764.5 -8.50237e-10 1.22906e-13)
(2764.5 -8.62733e-10 1.24142e-13)
(2764.5 -8.72689e-10 1.23205e-13)
(2764.5 -8.80724e-10 1.25761e-13)
(2764.5 -8.93315e-10 1.24268e-13)
(2764.5 -9.0327e-10 1.18579e-13)
(2764.5 -9.21666e-10 1.22846e-13)
(2764.5 -9.4207e-10 1.25625e-13)
(2764.5 -6.5568e-10 1.34919e-13)
(2764.5 -6.60239e-10 1.38878e-13)
(2764.5 -6.66163e-10 1.33731e-13)
(2764.5 -6.73575e-10 1.34691e-13)
(2764.5 -6.77908e-10 1.30106e-13)
(2764.5 -6.82177e-10 1.28602e-13)
(2764.5 -6.91843e-10 1.33447e-13)
(2764.5 -6.98838e-10 1.36122e-13)
(2764.5 -7.05368e-10 1.28912e-13)
(2764.5 -7.15462e-10 1.3063e-13)
(2764.5 -7.26233e-10 1.29505e-13)
(2764.5 -7.36864e-10 1.31161e-13)
(2764.5 -7.47624e-10 1.29941e-13)
(2764.5 -7.53196e-10 1.25001e-13)
(2764.5 -7.5973e-10 1.32953e-13)
(2764.5 -7.71416e-10 1.36948e-13)
(2764.5 -7.84253e-10 1.39291e-13)
(2764.5 -7.96301e-10 1.36903e-13)
(2764.5 -8.10937e-10 1.29751e-13)
(2764.5 -8.22591e-10 1.29589e-13)
(2764.5 -8.31689e-10 1.32817e-13)
(2764.5 -8.35829e-10 1.34596e-13)
(2764.5 -8.40948e-10 1.31405e-13)
(2764.5 -8.47138e-10 1.31293e-13)
(2764.5 -8.5215e-10 1.31233e-13)
(2764.5 -8.60177e-10 1.35353e-13)
(2764.5 -8.69227e-10 1.29813e-13)
(2764.5 -8.80053e-10 1.27357e-13)
(2764.5 -8.92117e-10 1.33553e-13)
(2764.5 -9.04569e-10 1.36867e-13)
(2764.5 -9.16558e-10 1.38217e-13)
(2764.5 -9.29092e-10 1.33296e-13)
(2764.5 -9.37621e-10 1.33669e-13)
(2764.5 -9.46352e-10 1.33483e-13)
(2764.5 -9.54236e-10 1.34412e-13)
(2764.5 -9.66678e-10 1.34448e-13)
(2764.5 -9.76799e-10 1.35546e-13)
(2764.5 -9.93306e-10 1.39242e-13)
(2764.5 -1.01328e-09 1.34889e-13)
(2764.5 -7.10167e-10 1.51431e-13)
(2764.5 -7.11629e-10 1.47212e-13)
(2764.5 -7.15756e-10 1.41906e-13)
(2764.5 -7.20203e-10 1.46149e-13)
(2764.5 -7.27906e-10 1.45976e-13)
(2764.5 -7.37776e-10 1.49208e-13)
(2764.5 -7.43015e-10 1.46369e-13)
(2764.5 -7.46696e-10 1.47056e-13)
(2764.5 -7.52439e-10 1.44554e-13)
(2764.5 -7.58805e-10 1.47601e-13)
(2764.5 -7.65081e-10 1.45978e-13)
(2764.5 -7.72362e-10 1.46292e-13)
(2764.5 -7.83736e-10 1.4378e-13)
(2764.5 -7.97781e-10 1.38685e-13)
(2764.5 -8.07839e-10 1.44879e-13)
(2764.5 -8.16581e-10 1.47844e-13)
(2764.5 -8.25701e-10 1.43131e-13)
(2764.5 -8.34527e-10 1.43827e-13)
(2764.5 -8.43898e-10 1.4603e-13)
(2764.5 -8.59891e-10 1.46283e-13)
(2764.5 -8.72733e-10 1.39066e-13)
(2764.5 -8.85062e-10 1.40178e-13)
(2764.5 -8.96156e-10 1.41436e-13)
(2764.5 -9.02978e-10 1.38967e-13)
(2764.5 -9.11507e-10 1.39959e-13)
(2764.5 -9.2008e-10 1.49176e-13)
(2764.5 -9.30308e-10 1.46229e-13)
(2764.5 -9.43975e-10 1.38459e-13)
(2764.5 -9.55988e-10 1.45433e-13)
(2764.5 -9.66725e-10 1.44592e-13)
(2764.5 -9.79569e-10 1.48372e-13)
(2764.5 -9.89384e-10 1.44395e-13)
(2764.5 -9.99909e-10 1.44629e-13)
(2764.5 -1.00965e-09 1.47e-13)
(2764.5 -1.02093e-09 1.50518e-13)
(2764.5 -1.0297e-09 1.51799e-13)
(2764.5 -1.03886e-09 1.48003e-13)
(2764.5 -1.04891e-09 1.52148e-13)
(2764.5 -1.06453e-09 1.44372e-13)
(2764.5 -1.07811e-09 1.58076e-13)
(2764.5 -7.68519e-10 1.63012e-13)
(2764.5 -7.68655e-10 1.62637e-13)
(2764.5 -7.68061e-10 1.64203e-13)
(2764.5 -7.68885e-10 1.57952e-13)
(2764.5 -7.73567e-10 1.59763e-13)
(2764.5 -7.84492e-10 1.60495e-13)
(2764.5 -7.96594e-10 1.61154e-13)
(2764.5 -8.00867e-10 1.6048e-13)
(2764.5 -8.05227e-10 1.58663e-13)
(2764.5 -8.13096e-10 1.62984e-13)
(2764.5 -8.1971e-10 1.54203e-13)
(2764.5 -8.26002e-10 1.55342e-13)
(2764.5 -8.36068e-10 1.54049e-13)
(2764.5 -8.47566e-10 1.54261e-13)
(2764.5 -8.5598e-10 1.55548e-13)
(2764.5 -8.64175e-10 1.56555e-13)
(2764.5 -8.73935e-10 1.54659e-13)
(2764.5 -8.83395e-10 1.48361e-13)
(2764.5 -8.88849e-10 1.5333e-13)
(2764.5 -8.99784e-10 1.50133e-13)
(2764.5 -9.1496e-10 1.53509e-13)
(2764.5 -9.28807e-10 1.56418e-13)
(2764.5 -9.43638e-10 1.59778e-13)
(2764.5 -9.60845e-10 1.58633e-13)
(2764.5 -9.75449e-10 1.53951e-13)
(2764.5 -9.8355e-10 1.54918e-13)
(2764.5 -9.9173e-10 1.54556e-13)
(2764.5 -1.00245e-09 1.55288e-13)
(2764.5 -1.01901e-09 1.54077e-13)
(2764.5 -1.02819e-09 1.56356e-13)
(2764.5 -1.03734e-09 1.58441e-13)
(2764.5 -1.04775e-09 1.58359e-13)
(2764.5 -1.0593e-09 1.5901e-13)
(2764.5 -1.07236e-09 1.59646e-13)
(2764.5 -1.08708e-09 1.6413e-13)
(2764.5 -1.09854e-09 1.56541e-13)
(2764.5 -1.10837e-09 1.5646e-13)
(2764.5 -1.11245e-09 1.6086e-13)
(2764.5 -1.12861e-09 1.58914e-13)
(2764.5 -1.14144e-09 1.60884e-13)
(2764.5 -8.27274e-10 1.77698e-13)
(2764.5 -8.26966e-10 1.71751e-13)
(2764.5 -8.23072e-10 1.70853e-13)
(2764.5 -8.22928e-10 1.73206e-13)
(2764.5 -8.28433e-10 1.75859e-13)
(2764.5 -8.34405e-10 1.78833e-13)
(2764.5 -8.45713e-10 1.7319e-13)
(2764.5 -8.55026e-10 1.66852e-13)
(2764.5 -8.61529e-10 1.71439e-13)
(2764.5 -8.69624e-10 1.75014e-13)
(2764.5 -8.75613e-10 1.67132e-13)
(2764.5 -8.7799e-10 1.72904e-13)
(2764.5 -8.84257e-10 1.73882e-13)
(2764.5 -8.93157e-10 1.70799e-13)
(2764.5 -9.01597e-10 1.71889e-13)
(2764.5 -9.09924e-10 1.65315e-13)
(2764.5 -9.19686e-10 1.61374e-13)
(2764.5 -9.31303e-10 1.62991e-13)
(2764.5 -9.38558e-10 1.65892e-13)
(2764.5 -9.47456e-10 1.6453e-13)
(2764.5 -9.61058e-10 1.76133e-13)
(2764.5 -9.76436e-10 1.72301e-13)
(2764.5 -9.93546e-10 1.68792e-13)
(2764.5 -1.01208e-09 1.68703e-13)
(2764.5 -1.02972e-09 1.68898e-13)
(2764.5 -1.03917e-09 1.66949e-13)
(2764.5 -1.04529e-09 1.68897e-13)
(2764.5 -1.05005e-09 1.62051e-13)
(2764.5 -1.05955e-09 1.75321e-13)
(2764.5 -1.07323e-09 1.75345e-13)
(2764.5 -1.08793e-09 1.68217e-13)
(2764.5 -1.10189e-09 1.66455e-13)
(2764.5 -1.11747e-09 1.64547e-13)
(2764.5 -1.13083e-09 1.67444e-13)
(2764.5 -1.14496e-09 1.72137e-13)
(2764.5 -1.15696e-09 1.72994e-13)
(2764.5 -1.1732e-09 1.69931e-13)
(2764.5 -1.17757e-09 1.68906e-13)
(2764.5 -1.19145e-09 1.7552e-13)
(2764.5 -1.20088e-09 1.83084e-13)
(2764.5 -8.79936e-10 1.90591e-13)
(2764.5 -8.78487e-10 1.89928e-13)
(2764.5 -8.75249e-10 1.9212e-13)
(2764.5 -8.73266e-10 1.85363e-13)
(2764.5 -8.76438e-10 1.84048e-13)
(2764.5 -8.81548e-10 1.88313e-13)
(2764.5 -8.92863e-10 1.90962e-13)
(2764.5 -9.06216e-10 1.80332e-13)
(2764.5 -9.16144e-10 1.80072e-13)
(2764.5 -9.2485e-10 1.87334e-13)
(2764.5 -9.30455e-10 1.80996e-13)
(2764.5 -9.34117e-10 1.86904e-13)
(2764.5 -9.38154e-10 1.85546e-13)
(2764.5 -9.44473e-10 1.79137e-13)
(2764.5 -9.52772e-10 1.81839e-13)
(2764.5 -9.61635e-10 1.82296e-13)
(2764.5 -9.71247e-10 1.75716e-13)
(2764.5 -9.80653e-10 1.78102e-13)
(2764.5 -9.89898e-10 1.79803e-13)
(2764.5 -9.99457e-10 1.83381e-13)
(2764.5 -1.01319e-09 1.86873e-13)
(2764.5 -1.02858e-09 1.79406e-13)
(2764.5 -1.0469e-09 1.82789e-13)
(2764.5 -1.0627e-09 1.8538e-13)
(2764.5 -1.07739e-09 1.77817e-13)
(2764.5 -1.08743e-09 1.8484e-13)
(2764.5 -1.0921e-09 1.80131e-13)
(2764.5 -1.09718e-09 1.79332e-13)
(2764.5 -1.10378e-09 1.83016e-13)
(2764.5 -1.11614e-09 1.76522e-13)
(2764.5 -1.12997e-09 1.80928e-13)
(2764.5 -1.14441e-09 1.83087e-13)
(2764.5 -1.16375e-09 1.82893e-13)
(2764.5 -1.18389e-09 1.76759e-13)
(2764.5 -1.20083e-09 1.82368e-13)
(2764.5 -1.21253e-09 1.82747e-13)
(2764.5 -1.22973e-09 1.8305e-13)
(2764.5 -1.24096e-09 1.84672e-13)
(2764.5 -1.25785e-09 1.84126e-13)
(2764.5 -1.26936e-09 1.79938e-13)
(2764.5 -9.28251e-10 2.01079e-13)
(2764.5 -9.27803e-10 2.02242e-13)
(2764.5 -9.22518e-10 2.00395e-13)
(2764.5 -9.21805e-10 2.00092e-13)
(2764.5 -9.25615e-10 1.98388e-13)
(2764.5 -9.32257e-10 1.92966e-13)
(2764.5 -9.39489e-10 1.95923e-13)
(2764.5 -9.53033e-10 1.96112e-13)
(2764.5 -9.65961e-10 1.96186e-13)
(2764.5 -9.77747e-10 1.96901e-13)
(2764.5 -9.87101e-10 1.93897e-13)
(2764.5 -9.92132e-10 1.96732e-13)
(2764.5 -9.96198e-10 1.92388e-13)
(2764.5 -1.00023e-09 1.90163e-13)
(2764.5 -1.00606e-09 1.93808e-13)
(2764.5 -1.0149e-09 1.94211e-13)
(2764.5 -1.02671e-09 1.94149e-13)
(2764.5 -1.03936e-09 1.95167e-13)
(2764.5 -1.04907e-09 1.90405e-13)
(2764.5 -1.05751e-09 1.9193e-13)
(2764.5 -1.06765e-09 1.9332e-13)
(2764.5 -1.08252e-09 1.91904e-13)
(2764.5 -1.10067e-09 1.91187e-13)
(2764.5 -1.1172e-09 1.91805e-13)
(2764.5 -1.12767e-09 1.90653e-13)
(2764.5 -1.13595e-09 1.89549e-13)
(2764.5 -1.14132e-09 1.91755e-13)
(2764.5 -1.14747e-09 1.95779e-13)
(2764.5 -1.15328e-09 1.88659e-13)
(2764.5 -1.16213e-09 1.94156e-13)
(2764.5 -1.17452e-09 1.92499e-13)
(2764.5 -1.18865e-09 2.00558e-13)
(2764.5 -1.20713e-09 1.96159e-13)
(2764.5 -1.22832e-09 1.90921e-13)
(2764.5 -1.25208e-09 1.94326e-13)
(2764.5 -1.2741e-09 1.98589e-13)
(2764.5 -1.29488e-09 1.99205e-13)
(2764.5 -1.30975e-09 1.97593e-13)
(2764.5 -1.32561e-09 1.95058e-13)
(2764.5 -1.33532e-09 2.00081e-13)
(2764.5 -9.66616e-10 2.14593e-13)
(2764.5 -9.73588e-10 2.11994e-13)
(2764.5 -9.75558e-10 2.13451e-13)
(2764.5 -9.76455e-10 2.0962e-13)
(2764.5 -9.74211e-10 2.07635e-13)
(2764.5 -9.77708e-10 2.14224e-13)
(2764.5 -9.85188e-10 2.1654e-13)
(2764.5 -9.97656e-10 2.09472e-13)
(2764.5 -1.01255e-09 2.09321e-13)
(2764.5 -1.02545e-09 2.11651e-13)
(2764.5 -1.03873e-09 2.09506e-13)
(2764.5 -1.04723e-09 2.11522e-13)
(2764.5 -1.05227e-09 2.06016e-13)
(2764.5 -1.05608e-09 2.03445e-13)
(2764.5 -1.06216e-09 2.09828e-13)
(2764.5 -1.07289e-09 2.04538e-13)
(2764.5 -1.08526e-09 2.02895e-13)
(2764.5 -1.09693e-09 2.09474e-13)
(2764.5 -1.10429e-09 2.08619e-13)
(2764.5 -1.11391e-09 2.03759e-13)
(2764.5 -1.12599e-09 2.04058e-13)
(2764.5 -1.1388e-09 1.98376e-13)
(2764.5 -1.15168e-09 2.04379e-13)
(2764.5 -1.16978e-09 2.06661e-13)
(2764.5 -1.18242e-09 2.09061e-13)
(2764.5 -1.19135e-09 2.09661e-13)
(2764.5 -1.19659e-09 2.04034e-13)
(2764.5 -1.20187e-09 2.0496e-13)
(2764.5 -1.20754e-09 2.01646e-13)
(2764.5 -1.21476e-09 2.07238e-13)
(2764.5 -1.22912e-09 2.05625e-13)
(2764.5 -1.24282e-09 2.02646e-13)
(2764.5 -1.25931e-09 2.0463e-13)
(2764.5 -1.27592e-09 2.07789e-13)
(2764.5 -1.29771e-09 2.01675e-13)
(2764.5 -1.32073e-09 2.04117e-13)
(2764.5 -1.34365e-09 2.05984e-13)
(2764.5 -1.36116e-09 2.04028e-13)
(2764.5 -1.38078e-09 2.04219e-13)
(2764.5 -1.39233e-09 2.08303e-13)
(2764.5 -1.00101e-09 2.29883e-13)
(2764.5 -1.01091e-09 2.28701e-13)
(2764.5 -1.0169e-09 2.26942e-13)
(2764.5 -1.02455e-09 2.21924e-13)
(2764.5 -1.02815e-09 2.25349e-13)
(2764.5 -1.02983e-09 2.20725e-13)
(2764.5 -1.03667e-09 2.23401e-13)
(2764.5 -1.04495e-09 2.23626e-13)
(2764.5 -1.05736e-09 2.27096e-13)
(2764.5 -1.06948e-09 2.24438e-13)
(2764.5 -1.08383e-09 2.19196e-13)
(2764.5 -1.0954e-09 2.22295e-13)
(2764.5 -1.10488e-09 2.19151e-13)
(2764.5 -1.11169e-09 2.21245e-13)
(2764.5 -1.11798e-09 2.2099e-13)
(2764.5 -1.12563e-09 2.22928e-13)
(2764.5 -1.13553e-09 2.25549e-13)
(2764.5 -1.14903e-09 2.21273e-13)
(2764.5 -1.15833e-09 2.2241e-13)
(2764.5 -1.16343e-09 2.26832e-13)
(2764.5 -1.17229e-09 2.20463e-13)
(2764.5 -1.1856e-09 2.1796e-13)
(2764.5 -1.19893e-09 2.19609e-13)
(2764.5 -1.21448e-09 2.15182e-13)
(2764.5 -1.22839e-09 2.17771e-13)
(2764.5 -1.2406e-09 2.1542e-13)
(2764.5 -1.24911e-09 2.14533e-13)
(2764.5 -1.25537e-09 2.19184e-13)
(2764.5 -1.26477e-09 2.12545e-13)
(2764.5 -1.27334e-09 2.14576e-13)
(2764.5 -1.28401e-09 2.17918e-13)
(2764.5 -1.29607e-09 2.18605e-13)
(2764.5 -1.30882e-09 2.20838e-13)
(2764.5 -1.32502e-09 2.16393e-13)
(2764.5 -1.34468e-09 2.14861e-13)
(2764.5 -1.36567e-09 2.18235e-13)
(2764.5 -1.38734e-09 2.19706e-13)
(2764.5 -1.40353e-09 2.1974e-13)
(2764.5 -1.42206e-09 2.19307e-13)
(2764.5 -1.43073e-09 2.21979e-13)
(2764.5 -1.02609e-09 2.42207e-13)
(2764.5 -1.03771e-09 2.46226e-13)
(2764.5 -1.04822e-09 2.41604e-13)
(2764.5 -1.05603e-09 2.38224e-13)
(2764.5 -1.0643e-09 2.42455e-13)
(2764.5 -1.07307e-09 2.34855e-13)
(2764.5 -1.07905e-09 2.39433e-13)
(2764.5 -1.08456e-09 2.38438e-13)
(2764.5 -1.09169e-09 2.31765e-13)
(2764.5 -1.10248e-09 2.35576e-13)
(2764.5 -1.11615e-09 2.35785e-13)
(2764.5 -1.13149e-09 2.32292e-13)
(2764.5 -1.14154e-09 2.3123e-13)
(2764.5 -1.15201e-09 2.33373e-13)
(2764.5 -1.16146e-09 2.34226e-13)
(2764.5 -1.17214e-09 2.31011e-13)
(2764.5 -1.18337e-09 2.36563e-13)
(2764.5 -1.19211e-09 2.33565e-13)
(2764.5 -1.20132e-09 2.29255e-13)
(2764.5 -1.20838e-09 2.29805e-13)
(2764.5 -1.21061e-09 2.32904e-13)
(2764.5 -1.21634e-09 2.28996e-13)
(2764.5 -1.22728e-09 2.30584e-13)
(2764.5 -1.24129e-09 2.3053e-13)
(2764.5 -1.25717e-09 2.25915e-13)
(2764.5 -1.27356e-09 2.31603e-13)
(2764.5 -1.29021e-09 2.31711e-13)
(2764.5 -1.30656e-09 2.28648e-13)
(2764.5 -1.31615e-09 2.28803e-13)
(2764.5 -1.3186e-09 2.30725e-13)
(2764.5 -1.32396e-09 2.37001e-13)
(2764.5 -1.33086e-09 2.25647e-13)
(2764.5 -1.34079e-09 2.26972e-13)
(2764.5 -1.35312e-09 2.34546e-13)
(2764.5 -1.3675e-09 2.28862e-13)
(2764.5 -1.38593e-09 2.29311e-13)
(2764.5 -1.40648e-09 2.33125e-13)
(2764.5 -1.43109e-09 2.35736e-13)
(2764.5 -1.44647e-09 2.31388e-13)
(2764.5 -1.46885e-09 2.33517e-13)
(2764.5 -1.47696e-09 2.32425e-13)
(2764.5 -1.07299e-09 2.60205e-13)
(2764.5 -1.0829e-09 2.63162e-13)
(2764.5 -1.09183e-09 2.52977e-13)
(2764.5 -1.09986e-09 2.51248e-13)
(2764.5 -1.10809e-09 2.55689e-13)
(2764.5 -1.11696e-09 2.49114e-13)
(2764.5 -1.12563e-09 2.49043e-13)
(2764.5 -1.13173e-09 2.4609e-13)
(2764.5 -1.13703e-09 2.4978e-13)
(2764.5 -1.14505e-09 2.51205e-13)
(2764.5 -1.15796e-09 2.45869e-13)
(2764.5 -1.17619e-09 2.45019e-13)
(2764.5 -1.1906e-09 2.47685e-13)
(2764.5 -1.2006e-09 2.47478e-13)
(2764.5 -1.21043e-09 2.44178e-13)
(2764.5 -1.22108e-09 2.44596e-13)
(2764.5 -1.23328e-09 2.46329e-13)
(2764.5 -1.2402e-09 2.45018e-13)
(2764.5 -1.248e-09 2.43836e-13)
(2764.5 -1.25428e-09 2.44307e-13)
(2764.5 -1.26023e-09 2.41634e-13)
(2764.5 -1.26526e-09 2.48001e-13)
(2764.5 -1.27471e-09 2.43487e-13)
(2764.5 -1.28823e-09 2.3259e-13)
(2764.5 -1.30371e-09 2.38776e-13)
(2764.5 -1.31884e-09 2.45551e-13)
(2764.5 -1.33557e-09 2.39326e-13)
(2764.5 -1.3524e-09 2.40486e-13)
(2764.5 -1.36456e-09 2.38957e-13)
(2764.5 -1.36999e-09 2.42062e-13)
(2764.5 -1.37079e-09 2.37177e-13)
(2764.5 -1.37505e-09 2.38458e-13)
(2764.5 -1.38207e-09 2.47153e-13)
(2764.5 -1.39084e-09 2.44527e-13)
(2764.5 -1.40268e-09 2.48321e-13)
(2764.5 -1.42276e-09 2.47866e-13)
(2764.5 -1.44433e-09 2.43578e-13)
(2764.5 -1.46428e-09 2.45479e-13)
(2764.5 -1.47872e-09 2.5344e-13)
(2764.5 -1.48528e-09 2.47966e-13)
(2764.5 -1.48117e-09 2.4274e-13)
(2764.5 -1.11815e-09 2.73886e-13)
(2764.5 -1.12596e-09 2.76811e-13)
(2764.5 -1.13564e-09 2.66631e-13)
(2764.5 -1.14429e-09 2.64759e-13)
(2764.5 -1.15074e-09 2.68119e-13)
(2764.5 -1.15603e-09 2.63083e-13)
(2764.5 -1.166e-09 2.59834e-13)
(2764.5 -1.17764e-09 2.66765e-13)
(2764.5 -1.18732e-09 2.64207e-13)
(2764.5 -1.19436e-09 2.64261e-13)
(2764.5 -1.19817e-09 2.65646e-13)
(2764.5 -1.20568e-09 2.58884e-13)
(2764.5 -1.22e-09 2.58581e-13)
(2764.5 -1.23589e-09 2.58209e-13)
(2764.5 -1.24785e-09 2.57592e-13)
(2764.5 -1.25772e-09 2.61333e-13)
(2764.5 -1.26655e-09 2.66199e-13)
(2764.5 -1.27795e-09 2.57578e-13)
(2764.5 -1.28582e-09 2.5344e-13)
(2764.5 -1.29312e-09 2.53219e-13)
(2764.5 -1.29883e-09 2.53893e-13)
(2764.5 -1.30607e-09 2.56069e-13)
(2764.5 -1.31352e-09 2.53662e-13)
(2764.5 -1.3243e-09 2.51967e-13)
(2764.5 -1.337e-09 2.58465e-13)
(2764.5 -1.34891e-09 2.58086e-13)
(2764.5 -1.36258e-09 2.56987e-13)
(2764.5 -1.37969e-09 2.55965e-13)
(2764.5 -1.3959e-09 2.56747e-13)
(2764.5 -1.40827e-09 2.53522e-13)
(2764.5 -1.41753e-09 2.52196e-13)
(2764.5 -1.42437e-09 2.62969e-13)
(2764.5 -1.42915e-09 2.62085e-13)
(2764.5 -1.43448e-09 2.49643e-13)
(2764.5 -1.43988e-09 2.49336e-13)
(2764.5 -1.44142e-09 2.52481e-13)
(2764.5 -1.43559e-09 2.54568e-13)
(2764.5 -1.43118e-09 2.53339e-13)
(2764.5 -1.45531e-09 2.57364e-13)
(2764.5 -1.46173e-09 2.62869e-13)
(2764.5 -1.48853e-09 2.55726e-13)
(2764.5 -1.30803e-09 2.54776e-13)
(2764.5 -1.16117e-09 2.84074e-13)
(2764.5 -1.17092e-09 2.84773e-13)
(2764.5 -1.17861e-09 2.81253e-13)
(2764.5 -1.18812e-09 2.83779e-13)
(2764.5 -1.19741e-09 2.86738e-13)
(2764.5 -1.20441e-09 2.81808e-13)
(2764.5 -1.20726e-09 2.77796e-13)
(2764.5 -1.21711e-09 2.80857e-13)
(2764.5 -1.23029e-09 2.79316e-13)
(2764.5 -1.24236e-09 2.77738e-13)
(2764.5 -1.25102e-09 2.77922e-13)
(2764.5 -1.25531e-09 2.75428e-13)
(2764.5 -1.26004e-09 2.67586e-13)
(2764.5 -1.26901e-09 2.70139e-13)
(2764.5 -1.282e-09 2.72351e-13)
(2764.5 -1.29327e-09 2.69763e-13)
(2764.5 -1.30322e-09 2.74092e-13)
(2764.5 -1.31228e-09 2.67473e-13)
(2764.5 -1.32358e-09 2.62628e-13)
(2764.5 -1.33389e-09 2.63429e-13)
(2764.5 -1.34231e-09 2.68147e-13)
(2764.5 -1.34831e-09 2.70711e-13)
(2764.5 -1.35694e-09 2.69225e-13)
(2764.5 -1.36611e-09 2.60833e-13)
(2764.5 -1.37613e-09 2.67211e-13)
(2764.5 -1.38746e-09 2.6929e-13)
(2764.5 -1.40059e-09 2.65731e-13)
(2764.5 -1.4128e-09 2.64363e-13)
(2764.5 -1.42907e-09 2.65948e-13)
(2764.5 -1.44323e-09 2.63882e-13)
(2764.5 -1.45481e-09 2.63577e-13)
(2764.5 -1.45946e-09 2.68143e-13)
(2764.5 -1.45166e-09 2.68867e-13)
(2764.5 -1.44098e-09 2.61879e-13)
(2764.5 -1.42946e-09 2.60543e-13)
(2764.5 -1.44449e-09 2.65912e-13)
(2764.5 -1.46439e-09 2.60715e-13)