/*--------------------------------*- C++ -*----------------------------------*\
| =========                 |                                                 |
| \\      /  F ield         | OpenFOAM: The Open Source CFD Toolbox           |
|  \\    /   O peration     | Version:  v1706                                 |
|   \\  /    A nd           | Web:      www.OpenFOAM.com                      |
|    \\/     M anipulation  |                                                 |
\*---------------------------------------------------------------------------*/
FoamFile
{
    version     2.0;
    format      ascii;
    class       volScalarField;
    location    "7e-06";
    object      wallHeatFlux;
}
// * * * * * * * * * * * * * * * * * * * * * * * * * * * * * * * * * * * * * //

dimensions      [1 0 -3 0 0 0 0];


internalField   uniform 0;

boundaryField
{
    cone
    {
        type            calculated;
        value           nonuniform List<scalar> 
153
(
256171
252694
249180
245625
242024
238375
234673
230917
227102
223228
219293
215295
211234
207111
202927
198685
194387
190036
185637
181196
176720
172215
167688
163148
158605
154071
149555
145070
140625
136232
131903
127649
123480
119406
115436
111578
107840
104231
100758
97429.3
94250.4
91227
88362.6
85657.7
83108.8
80706.1
78433.9
76263.8
74182.5
72357
70890.1
69771.8
68979.6
68497.1
68313.8
68421.7
68812
69475.5
70400.5
71579.3
72998.4
74640.8
76488.2
78520.9
80717.6
83055.1
85508
88047.5
90640.7
93250.4
95834.7
98345.4
100723
102895
104771
106256
107266
107707
107472
106473
104669
102056
98668.1
94599.1
89995.3
85041.8
79939.9
74881.8
70030.2
65508.3
61397.9
57744.3
54565.3
51859
49613.9
47805.3
46408.4
45404
44774
44505.8
44592.7
45030.9
45821.1
46963.3
48461.9
50326.4
52565.8
55189.5
58206.6
61627.2
65463.4
69730.7
74449.9
79647.3
85355.5
91611.5
98455.3
105928
114065
122892
132411
142580
153290
164335
175388
185977
195501
203307
208850
211850
212387
210625
206910
202071
196989
192344
188531
185668
183683
182407
181648
181237
181041
180969
180969
181007
181063
181125
181188
181249
181308
181363
181414
)
;
    }
    inlet
    {
        type            calculated;
        value           uniform 0;
    }
    rWedge
    {
        type            wedge;
    }
    lWedge
    {
        type            wedge;
    }
    outlet
    {
        type            calculated;
        value           nonuniform 0();
    }
    procBoundary2to0
    {
        type            processor;
        value           uniform 0;
    }
    procBoundary2to1
    {
        type            processor;
        value           uniform 0;
    }
    procBoundary2to3
    {
        type            processor;
        value           uniform 0;
    }
}


// ************************************************************************* //
