/*--------------------------------*- C++ -*----------------------------------*\
| =========                 |                                                 |
| \\      /  F ield         | OpenFOAM: The Open Source CFD Toolbox           |
|  \\    /   O peration     | Version:  v1706                                 |
|   \\  /    A nd           | Web:      www.OpenFOAM.com                      |
|    \\/     M anipulation  |                                                 |
\*---------------------------------------------------------------------------*/
FoamFile
{
    version     2.0;
    format      ascii;
    class       volScalarField;
    location    "3e-06";
    object      alpha;
}
// * * * * * * * * * * * * * * * * * * * * * * * * * * * * * * * * * * * * * //

dimensions      [1 -1 -1 0 0 0 0];


internalField   nonuniform List<scalar> 
29871
(
1.40478e-05
1.40478e-05
1.40478e-05
1.40478e-05
1.40478e-05
1.40478e-05
1.40478e-05
1.40478e-05
1.40478e-05
1.40478e-05
1.40478e-05
1.40478e-05
1.40478e-05
1.40478e-05
1.40478e-05
1.40478e-05
1.40478e-05
1.40478e-05
1.40478e-05
1.40478e-05
1.40478e-05
1.40478e-05
1.40478e-05
1.40478e-05
1.40478e-05
1.40478e-05
1.40478e-05
1.40478e-05
1.40478e-05
1.40478e-05
1.40478e-05
1.40478e-05
1.40478e-05
1.40478e-05
1.40478e-05
1.40478e-05
1.40478e-05
1.40478e-05
1.40478e-05
1.40478e-05
1.40478e-05
1.40478e-05
1.40478e-05
1.40478e-05
1.40478e-05
1.40478e-05
1.40478e-05
1.40478e-05
1.40478e-05
1.40478e-05
1.40478e-05
1.40478e-05
1.40478e-05
1.40478e-05
1.40478e-05
1.40478e-05
1.40478e-05
1.40478e-05
1.40478e-05
1.40478e-05
1.40478e-05
1.40478e-05
1.40478e-05
1.40478e-05
1.40478e-05
1.40478e-05
1.40478e-05
1.40478e-05
1.40478e-05
1.40478e-05
1.40478e-05
1.40478e-05
1.40478e-05
1.40478e-05
1.40478e-05
1.40478e-05
1.40478e-05
1.40478e-05
1.40478e-05
1.40478e-05
1.40478e-05
1.40478e-05
1.40478e-05
1.40478e-05
1.40478e-05
1.40478e-05
1.40478e-05
1.40478e-05
1.40478e-05
1.40478e-05
1.40478e-05
1.40478e-05
1.40478e-05
1.40478e-05
1.40478e-05
1.40478e-05
1.40478e-05
1.40478e-05
1.40478e-05
1.40478e-05
1.40478e-05
1.40478e-05
1.40478e-05
1.40478e-05
1.40478e-05
1.40478e-05
1.40478e-05
1.40478e-05
1.40478e-05
1.40478e-05
1.40478e-05
1.40478e-05
1.40478e-05
1.40478e-05
1.40478e-05
1.40478e-05
1.40478e-05
1.40478e-05
1.40478e-05
1.40478e-05
1.40478e-05
1.40478e-05
1.40478e-05
1.40478e-05
1.40478e-05
1.40478e-05
1.40478e-05
1.40478e-05
1.40478e-05
1.40478e-05
1.40478e-05
1.40478e-05
1.40478e-05
1.40478e-05
1.40478e-05
1.40478e-05
1.40478e-05
1.40478e-05
1.40478e-05
1.40478e-05
1.40478e-05
1.40478e-05
1.40478e-05
1.40478e-05
1.40478e-05
1.40478e-05
1.40478e-05
1.40478e-05
1.40478e-05
1.40478e-05
1.40478e-05
1.40478e-05
1.40478e-05
1.40478e-05
1.40478e-05
1.40478e-05
1.40478e-05
1.40478e-05
1.40478e-05
1.40478e-05
1.40478e-05
1.40478e-05
1.40478e-05
1.40478e-05
1.40478e-05
1.40478e-05
1.40478e-05
1.40478e-05
1.40478e-05
1.40478e-05
1.40478e-05
1.40478e-05
1.40478e-05
1.40478e-05
1.40478e-05
1.40478e-05
1.40478e-05
1.40478e-05
1.40478e-05
1.40478e-05
1.40478e-05
1.40478e-05
1.40478e-05
1.40478e-05
1.40479e-05
1.40479e-05
1.40479e-05
1.40479e-05
1.40479e-05
1.40479e-05
1.40479e-05
1.40479e-05
1.40479e-05
1.40479e-05
1.40479e-05
1.40479e-05
1.40479e-05
1.40479e-05
1.40479e-05
1.40479e-05
1.40479e-05
1.40479e-05
1.40479e-05
1.40479e-05
1.40479e-05
1.40479e-05
1.40479e-05
1.40479e-05
1.40479e-05
1.40479e-05
1.40478e-05
1.40478e-05
1.40478e-05
1.40478e-05
1.40478e-05
1.40478e-05
1.40478e-05
1.40478e-05
1.40478e-05
1.40478e-05
1.40478e-05
1.40478e-05
1.40478e-05
1.40478e-05
1.40478e-05
1.40478e-05
1.40478e-05
1.40479e-05
1.40479e-05
1.40479e-05
1.40479e-05
1.40479e-05
1.40479e-05
1.40479e-05
1.40479e-05
1.40479e-05
1.40479e-05
1.40479e-05
1.40479e-05
1.40479e-05
1.40479e-05
1.40479e-05
1.40479e-05
1.40479e-05
1.40479e-05
1.40479e-05
1.40479e-05
1.40479e-05
1.40479e-05
1.40479e-05
1.40479e-05
1.40479e-05
1.40479e-05
1.40479e-05
1.40479e-05
1.40479e-05
1.40479e-05
1.40479e-05
1.4048e-05
1.4048e-05
1.4048e-05
1.4048e-05
1.4048e-05
1.4048e-05
1.4048e-05
1.4048e-05
1.4048e-05
1.4048e-05
1.4048e-05
1.4048e-05
1.4048e-05
1.4048e-05
1.4048e-05
1.4048e-05
1.40481e-05
1.40481e-05
1.40481e-05
1.40481e-05
1.40481e-05
1.40481e-05
1.40481e-05
1.40481e-05
1.40481e-05
1.40481e-05
1.40482e-05
1.40482e-05
1.40482e-05
1.40482e-05
1.40482e-05
1.40482e-05
1.40482e-05
1.40482e-05
1.40483e-05
1.40483e-05
1.40483e-05
1.40483e-05
1.40483e-05
1.40483e-05
1.40483e-05
1.40484e-05
1.40484e-05
1.40484e-05
1.40484e-05
1.40484e-05
1.40485e-05
1.40485e-05
1.40485e-05
1.40485e-05
1.40485e-05
1.40486e-05
1.40486e-05
1.40486e-05
1.40486e-05
1.40487e-05
1.40487e-05
1.40487e-05
1.4048e-05
1.4048e-05
1.4048e-05
1.4048e-05
1.4048e-05
1.4048e-05
1.4048e-05
1.4048e-05
1.4048e-05
1.4048e-05
1.40481e-05
1.40481e-05
1.40481e-05
1.40481e-05
1.40481e-05
1.40481e-05
1.40481e-05
1.40481e-05
1.40482e-05
1.40482e-05
1.40482e-05
1.40482e-05
1.40482e-05
1.40482e-05
1.40482e-05
1.40483e-05
1.40483e-05
1.40483e-05
1.40483e-05
1.40483e-05
1.40483e-05
1.40484e-05
1.40484e-05
1.40484e-05
1.40484e-05
1.40484e-05
1.40485e-05
1.40485e-05
1.40485e-05
1.40485e-05
1.40485e-05
1.40486e-05
1.40486e-05
1.40486e-05
1.40486e-05
1.40487e-05
1.40487e-05
1.40487e-05
1.40488e-05
1.40488e-05
1.40488e-05
1.40489e-05
1.40489e-05
1.40489e-05
1.4049e-05
1.4049e-05
1.4049e-05
1.40491e-05
1.40491e-05
1.40492e-05
1.40492e-05
1.40492e-05
1.40493e-05
1.40493e-05
1.40494e-05
1.40494e-05
1.40495e-05
1.40496e-05
1.40496e-05
1.40497e-05
1.40497e-05
1.40498e-05
1.40499e-05
1.40499e-05
1.405e-05
1.40501e-05
1.40501e-05
1.40502e-05
1.40503e-05
1.40504e-05
1.40505e-05
1.40506e-05
1.40506e-05
1.40507e-05
1.40508e-05
1.40509e-05
1.4051e-05
1.40511e-05
1.40513e-05
1.40514e-05
1.40515e-05
1.40516e-05
1.40517e-05
1.40519e-05
1.4052e-05
1.40521e-05
1.40523e-05
1.40524e-05
1.40526e-05
1.40528e-05
1.40529e-05
1.40531e-05
1.40533e-05
1.40535e-05
1.40537e-05
1.40539e-05
1.40487e-05
1.40487e-05
1.40487e-05
1.40488e-05
1.40488e-05
1.40488e-05
1.40489e-05
1.40489e-05
1.4049e-05
1.4049e-05
1.40491e-05
1.40492e-05
1.40492e-05
1.40493e-05
1.40494e-05
1.40494e-05
1.40495e-05
1.40496e-05
1.40497e-05
1.40497e-05
1.40498e-05
1.40499e-05
1.405e-05
1.40501e-05
1.40502e-05
1.40502e-05
1.40503e-05
1.40504e-05
1.40505e-05
1.40506e-05
1.40507e-05
1.40508e-05
1.40509e-05
1.4051e-05
1.40511e-05
1.40512e-05
1.40513e-05
1.40514e-05
1.40516e-05
1.40517e-05
1.40518e-05
1.4052e-05
1.40521e-05
1.40522e-05
1.40524e-05
1.40525e-05
1.40527e-05
1.40528e-05
1.4053e-05
1.40532e-05
1.40534e-05
1.40536e-05
1.40537e-05
1.40539e-05
1.40541e-05
1.40544e-05
1.40546e-05
1.40548e-05
1.4055e-05
1.40553e-05
1.40555e-05
1.40558e-05
1.40561e-05
1.40564e-05
1.40567e-05
1.4057e-05
1.40573e-05
1.40576e-05
1.4058e-05
1.40583e-05
1.40587e-05
1.40591e-05
1.40594e-05
1.40599e-05
1.40603e-05
1.40607e-05
1.40612e-05
1.40616e-05
1.40621e-05
1.40626e-05
1.40632e-05
1.40637e-05
1.40643e-05
1.40648e-05
1.40654e-05
1.40661e-05
1.40667e-05
1.40674e-05
1.4068e-05
1.40688e-05
1.40695e-05
1.40703e-05
1.4071e-05
1.40719e-05
1.40727e-05
1.40736e-05
1.40745e-05
1.40754e-05
1.40764e-05
1.40774e-05
1.40785e-05
1.40796e-05
1.40807e-05
1.40819e-05
1.40831e-05
1.40844e-05
1.40857e-05
1.40522e-05
1.40523e-05
1.40524e-05
1.40526e-05
1.40528e-05
1.4053e-05
1.40532e-05
1.40535e-05
1.40538e-05
1.40541e-05
1.40544e-05
1.40548e-05
1.40551e-05
1.40555e-05
1.40559e-05
1.40562e-05
1.40566e-05
1.4057e-05
1.40574e-05
1.40579e-05
1.40583e-05
1.40587e-05
1.40592e-05
1.40596e-05
1.40601e-05
1.40605e-05
1.4061e-05
1.40615e-05
1.4062e-05
1.40625e-05
1.40631e-05
1.40636e-05
1.40642e-05
1.40648e-05
1.40654e-05
1.4066e-05
1.40666e-05
1.40673e-05
1.4068e-05
1.40687e-05
1.40694e-05
1.40702e-05
1.4071e-05
1.40718e-05
1.40726e-05
1.40735e-05
1.40744e-05
1.40754e-05
1.40763e-05
1.40773e-05
1.40784e-05
1.40795e-05
1.40806e-05
1.40817e-05
1.40829e-05
1.40842e-05
1.40855e-05
1.40868e-05
1.40882e-05
1.40896e-05
1.40911e-05
1.40926e-05
1.40942e-05
1.40959e-05
1.40976e-05
1.40994e-05
1.41012e-05
1.41031e-05
1.41051e-05
1.41072e-05
1.41094e-05
1.41116e-05
1.41139e-05
1.41163e-05
1.41188e-05
1.41214e-05
1.41241e-05
1.41269e-05
1.41298e-05
1.41329e-05
1.4136e-05
1.41393e-05
1.41426e-05
1.41462e-05
1.41498e-05
1.41536e-05
1.41575e-05
1.41615e-05
1.41658e-05
1.41701e-05
1.41746e-05
1.41793e-05
1.41842e-05
1.41892e-05
1.41944e-05
1.41998e-05
1.42054e-05
1.42112e-05
1.42172e-05
1.42234e-05
1.42299e-05
1.42367e-05
1.42436e-05
1.42509e-05
1.42585e-05
1.42663e-05
1.42745e-05
1.40678e-05
1.40681e-05
1.40684e-05
1.4069e-05
1.40696e-05
1.40704e-05
1.40713e-05
1.40723e-05
1.40735e-05
1.40748e-05
1.40761e-05
1.40777e-05
1.40793e-05
1.4081e-05
1.40827e-05
1.40846e-05
1.40865e-05
1.40885e-05
1.40905e-05
1.40926e-05
1.40947e-05
1.40969e-05
1.40991e-05
1.41013e-05
1.41036e-05
1.41059e-05
1.41083e-05
1.41108e-05
1.41133e-05
1.41159e-05
1.41185e-05
1.41213e-05
1.41241e-05
1.4127e-05
1.41299e-05
1.4133e-05
1.41361e-05
1.41394e-05
1.41428e-05
1.41462e-05
1.41498e-05
1.41535e-05
1.41574e-05
1.41614e-05
1.41655e-05
1.41698e-05
1.41743e-05
1.4179e-05
1.41838e-05
1.41888e-05
1.4194e-05
1.41993e-05
1.42049e-05
1.42107e-05
1.42167e-05
1.4223e-05
1.42294e-05
1.42361e-05
1.42431e-05
1.42503e-05
1.42578e-05
1.42655e-05
1.42735e-05
1.42819e-05
1.42905e-05
1.42994e-05
1.43087e-05
1.43184e-05
1.43284e-05
1.43388e-05
1.43495e-05
1.43608e-05
1.43724e-05
1.43845e-05
1.43972e-05
1.44103e-05
1.44239e-05
1.44382e-05
1.4453e-05
1.44684e-05
1.44845e-05
1.45012e-05
1.45187e-05
1.45368e-05
1.45557e-05
1.45754e-05
1.4596e-05
1.46173e-05
1.46395e-05
1.46625e-05
1.46865e-05
1.47113e-05
1.47371e-05
1.47639e-05
1.47916e-05
1.48203e-05
1.485e-05
1.48807e-05
1.49125e-05
1.49453e-05
1.49791e-05
1.50141e-05
1.50501e-05
1.50873e-05
1.51256e-05
1.51651e-05
1.52059e-05
1.5248e-05
1.52914e-05
1.53363e-05
1.41417e-05
1.41433e-05
1.41456e-05
1.41485e-05
1.4152e-05
1.41562e-05
1.41609e-05
1.41663e-05
1.41722e-05
1.41788e-05
1.41858e-05
1.41935e-05
1.42016e-05
1.42102e-05
1.42192e-05
1.42285e-05
1.42382e-05
1.42482e-05
1.42584e-05
1.42688e-05
1.42794e-05
1.42903e-05
1.43014e-05
1.43127e-05
1.43243e-05
1.43361e-05
1.43483e-05
1.43608e-05
1.43737e-05
1.4387e-05
1.44006e-05
1.44147e-05
1.44291e-05
1.4444e-05
1.44592e-05
1.4475e-05
1.44912e-05
1.4508e-05
1.45253e-05
1.45432e-05
1.45617e-05
1.45809e-05
1.46008e-05
1.46214e-05
1.46429e-05
1.46652e-05
1.46883e-05
1.47124e-05
1.47375e-05
1.47635e-05
1.47906e-05
1.48187e-05
1.48479e-05
1.48783e-05
1.49098e-05
1.49425e-05
1.49764e-05
1.50116e-05
1.50481e-05
1.50858e-05
1.51249e-05
1.51653e-05
1.5207e-05
1.52502e-05
1.52948e-05
1.53408e-05
1.53883e-05
1.54373e-05
1.54879e-05
1.55401e-05
1.55939e-05
1.56494e-05
1.57067e-05
1.57658e-05
1.58268e-05
1.58898e-05
1.59549e-05
1.60222e-05
1.60918e-05
1.61639e-05
1.62386e-05
1.63159e-05
1.63961e-05
1.64793e-05
1.65656e-05
1.66551e-05
1.67481e-05
1.68445e-05
1.69446e-05
1.70484e-05
1.71561e-05
1.72676e-05
1.73831e-05
1.75026e-05
1.7626e-05
1.77535e-05
1.78849e-05
1.80202e-05
1.81594e-05
1.83023e-05
1.84487e-05
1.85987e-05
1.87519e-05
1.89084e-05
1.90678e-05
1.923e-05
1.9395e-05
1.95626e-05
1.97327e-05
1.99053e-05
1.4474e-05
1.44835e-05
1.44958e-05
1.4511e-05
1.4529e-05
1.45498e-05
1.45733e-05
1.45994e-05
1.46283e-05
1.46597e-05
1.46936e-05
1.47299e-05
1.47683e-05
1.48088e-05
1.4851e-05
1.48948e-05
1.494e-05
1.49864e-05
1.50339e-05
1.50824e-05
1.51317e-05
1.51821e-05
1.52334e-05
1.52859e-05
1.53396e-05
1.53945e-05
1.54509e-05
1.55087e-05
1.5568e-05
1.56289e-05
1.56913e-05
1.57552e-05
1.58207e-05
1.58877e-05
1.59562e-05
1.60263e-05
1.6098e-05
1.61715e-05
1.62467e-05
1.63239e-05
1.64032e-05
1.64847e-05
1.65685e-05
1.66548e-05
1.67438e-05
1.68356e-05
1.69303e-05
1.70281e-05
1.71292e-05
1.72336e-05
1.73416e-05
1.74531e-05
1.75684e-05
1.76876e-05
1.78107e-05
1.79378e-05
1.8069e-05
1.82043e-05
1.83438e-05
1.84875e-05
1.86353e-05
1.87872e-05
1.89433e-05
1.91033e-05
1.92672e-05
1.94349e-05
1.96064e-05
1.97813e-05
1.99597e-05
2.01414e-05
2.03263e-05
2.05141e-05
2.07049e-05
2.08986e-05
2.10951e-05
2.12944e-05
2.14966e-05
2.17017e-05
2.19099e-05
2.21214e-05
2.23364e-05
2.25553e-05
2.27783e-05
2.30059e-05
2.32384e-05
2.34764e-05
2.37201e-05
2.39703e-05
2.42273e-05
2.44917e-05
2.47639e-05
2.50445e-05
2.53337e-05
2.5632e-05
2.59397e-05
2.6257e-05
2.65839e-05
2.69205e-05
2.72667e-05
2.76222e-05
2.79865e-05
2.83592e-05
2.87395e-05
2.91265e-05
2.95192e-05
2.99164e-05
3.0317e-05
3.07194e-05
3.11224e-05
3.15244e-05
1.58482e-05
1.58939e-05
1.59507e-05
1.60184e-05
1.60968e-05
1.61855e-05
1.6284e-05
1.6392e-05
1.65091e-05
1.66347e-05
1.67681e-05
1.69085e-05
1.70551e-05
1.72068e-05
1.73628e-05
1.75224e-05
1.76846e-05
1.78489e-05
1.80149e-05
1.81824e-05
1.83513e-05
1.85219e-05
1.86946e-05
1.88695e-05
1.9047e-05
1.92275e-05
1.94111e-05
1.95979e-05
1.97882e-05
1.99816e-05
2.01781e-05
2.03774e-05
2.05792e-05
2.07834e-05
2.09897e-05
2.11979e-05
2.14081e-05
2.16201e-05
2.1834e-05
2.20499e-05
2.22679e-05
2.24882e-05
2.27108e-05
2.29362e-05
2.31643e-05
2.33956e-05
2.36303e-05
2.38686e-05
2.41108e-05
2.43573e-05
2.46084e-05
2.48644e-05
2.51258e-05
2.53928e-05
2.56658e-05
2.59451e-05
2.62311e-05
2.65241e-05
2.68243e-05
2.71319e-05
2.7447e-05
2.77696e-05
2.80999e-05
2.84375e-05
2.87822e-05
2.91338e-05
2.94916e-05
2.98552e-05
3.02238e-05
3.05966e-05
3.09726e-05
3.13508e-05
3.173e-05
3.21092e-05
3.24871e-05
3.28624e-05
3.3234e-05
3.36008e-05
3.39616e-05
3.43154e-05
3.46615e-05
3.49993e-05
3.53286e-05
3.56489e-05
3.59597e-05
3.62607e-05
3.65517e-05
3.68328e-05
3.7104e-05
3.73656e-05
3.76178e-05
3.78609e-05
3.80953e-05
3.83215e-05
3.85398e-05
3.87508e-05
3.8955e-05
3.91527e-05
3.93444e-05
3.95303e-05
3.97109e-05
3.98865e-05
4.00573e-05
4.02234e-05
4.03852e-05
4.05429e-05
4.06965e-05
4.08466e-05
4.09933e-05
4.11371e-05
2.02015e-05
2.03502e-05
2.05277e-05
2.07328e-05
2.09636e-05
2.1218e-05
2.14935e-05
2.1788e-05
2.20992e-05
2.24246e-05
2.27612e-05
2.31061e-05
2.34562e-05
2.38087e-05
2.41614e-05
2.45124e-05
2.48603e-05
2.52043e-05
2.55443e-05
2.58805e-05
2.62137e-05
2.65452e-05
2.68764e-05
2.72084e-05
2.75421e-05
2.78787e-05
2.82187e-05
2.85627e-05
2.89109e-05
2.92632e-05
2.96191e-05
2.99782e-05
3.03398e-05
3.07031e-05
3.10674e-05
3.1432e-05
3.17963e-05
3.21595e-05
3.25211e-05
3.28804e-05
3.32367e-05
3.35895e-05
3.39381e-05
3.42818e-05
3.462e-05
3.4952e-05
3.52771e-05
3.55949e-05
3.59046e-05
3.62062e-05
3.64996e-05
3.67845e-05
3.70607e-05
3.73281e-05
3.75865e-05
3.7836e-05
3.80768e-05
3.8309e-05
3.8533e-05
3.8749e-05
3.89573e-05
3.91584e-05
3.93525e-05
3.954e-05
3.97213e-05
3.98967e-05
4.00666e-05
4.02311e-05
4.03905e-05
4.05452e-05
4.06952e-05
4.08408e-05
4.09824e-05
4.11201e-05
4.12543e-05
4.13854e-05
4.15139e-05
4.16403e-05
4.17649e-05
4.18883e-05
4.20124e-05
4.21491e-05
4.22844e-05
4.24173e-05
4.25484e-05
4.26784e-05
4.28079e-05
4.29375e-05
4.30679e-05
4.31983e-05
4.33284e-05
4.34587e-05
4.35893e-05
4.37208e-05
4.38534e-05
4.39872e-05
4.41223e-05
4.42586e-05
4.43964e-05
4.45355e-05
4.4676e-05
4.48177e-05
4.49606e-05
4.51047e-05
4.525e-05
4.53963e-05
4.55436e-05
4.5692e-05
4.58413e-05
4.59916e-05
2.85855e-05
2.88223e-05
2.9105e-05
2.94304e-05
2.97938e-05
3.01908e-05
3.06172e-05
3.10683e-05
3.1539e-05
3.20248e-05
3.25208e-05
3.30215e-05
3.35208e-05
3.4013e-05
3.44933e-05
3.49573e-05
3.54017e-05
3.58238e-05
3.62223e-05
3.65968e-05
3.69473e-05
3.72756e-05
3.75847e-05
3.78767e-05
3.8152e-05
3.84121e-05
3.8659e-05
3.88945e-05
3.91193e-05
3.93343e-05
3.95399e-05
3.97368e-05
3.99254e-05
4.01061e-05
4.02793e-05
4.04453e-05
4.06045e-05
4.07573e-05
4.09041e-05
4.10451e-05
4.11809e-05
4.13118e-05
4.14385e-05
4.15613e-05
4.16807e-05
4.17975e-05
4.19122e-05
4.20254e-05
4.21374e-05
4.2249e-05
4.23696e-05
4.24924e-05
4.26131e-05
4.27323e-05
4.28504e-05
4.2968e-05
4.30856e-05
4.32038e-05
4.3323e-05
4.34428e-05
4.35626e-05
4.36829e-05
4.38039e-05
4.39258e-05
4.40486e-05
4.41726e-05
4.42977e-05
4.4424e-05
4.45514e-05
4.468e-05
4.48096e-05
4.49404e-05
4.50722e-05
4.52051e-05
4.5339e-05
4.54738e-05
4.56096e-05
4.57463e-05
4.58838e-05
4.6022e-05
4.61607e-05
4.62991e-05
4.64248e-05
4.65476e-05
4.66693e-05
4.67901e-05
4.69099e-05
4.70287e-05
4.71464e-05
4.72627e-05
4.73804e-05
4.75008e-05
4.76238e-05
4.77495e-05
4.78777e-05
4.80083e-05
4.81413e-05
4.82765e-05
4.84137e-05
4.85528e-05
4.86936e-05
4.8836e-05
4.89798e-05
4.91247e-05
4.92705e-05
4.9417e-05
4.95639e-05
4.97109e-05
4.98577e-05
5.0004e-05
5.01493e-05
3.81912e-05
3.84184e-05
3.86705e-05
3.8935e-05
3.92047e-05
3.94771e-05
3.97522e-05
4.00271e-05
4.02968e-05
4.05564e-05
4.08033e-05
4.10356e-05
4.12516e-05
4.1451e-05
4.16343e-05
4.18026e-05
4.19575e-05
4.21012e-05
4.22359e-05
4.23633e-05
4.24854e-05
4.26123e-05
4.2739e-05
4.28606e-05
4.29788e-05
4.3095e-05
4.32105e-05
4.33261e-05
4.34427e-05
4.35608e-05
4.36797e-05
4.37992e-05
4.39194e-05
4.40403e-05
4.41618e-05
4.42839e-05
4.44063e-05
4.45291e-05
4.46521e-05
4.47754e-05
4.4899e-05
4.50229e-05
4.51471e-05
4.52718e-05
4.5397e-05
4.55226e-05
4.56487e-05
4.57754e-05
4.59021e-05
4.60293e-05
4.61485e-05
4.62623e-05
4.63753e-05
4.64877e-05
4.65997e-05
4.67113e-05
4.68225e-05
4.69331e-05
4.70428e-05
4.71536e-05
4.72669e-05
4.73826e-05
4.75006e-05
4.76208e-05
4.77431e-05
4.78675e-05
4.79937e-05
4.81217e-05
4.82512e-05
4.83822e-05
4.85145e-05
4.86478e-05
4.87818e-05
4.89165e-05
4.90515e-05
4.91864e-05
4.93211e-05
4.9455e-05
4.9588e-05
4.97196e-05
4.98498e-05
4.99784e-05
5.01066e-05
5.02366e-05
5.03687e-05
5.05031e-05
5.064e-05
5.07798e-05
5.09231e-05
5.10702e-05
5.122e-05
5.13715e-05
5.15247e-05
5.16794e-05
5.18356e-05
5.19932e-05
5.21521e-05
5.2312e-05
5.24729e-05
5.26346e-05
5.27969e-05
5.29598e-05
5.31231e-05
5.32867e-05
5.34504e-05
5.36143e-05
5.37783e-05
5.39424e-05
5.41067e-05
5.42713e-05
5.44364e-05
5.46024e-05
5.47696e-05
4.24123e-05
4.25878e-05
4.27657e-05
4.29443e-05
4.31309e-05
4.33229e-05
4.35147e-05
4.37067e-05
4.38979e-05
4.40865e-05
4.42715e-05
4.44523e-05
4.46296e-05
4.48034e-05
4.49732e-05
4.51385e-05
4.52993e-05
4.54555e-05
4.56069e-05
4.57531e-05
4.58945e-05
4.60228e-05
4.61402e-05
4.62533e-05
4.63648e-05
4.64755e-05
4.65854e-05
4.66944e-05
4.68027e-05
4.69108e-05
4.7021e-05
4.71341e-05
4.72496e-05
4.73673e-05
4.74871e-05
4.76085e-05
4.77313e-05
4.78552e-05
4.798e-05
4.81055e-05
4.82314e-05
4.83575e-05
4.84837e-05
4.86096e-05
4.8735e-05
4.88597e-05
4.89835e-05
4.91062e-05
4.92277e-05
4.93477e-05
4.94668e-05
4.9587e-05
4.9709e-05
4.98328e-05
4.99586e-05
5.00866e-05
5.02171e-05
5.03505e-05
5.04873e-05
5.06265e-05
5.07674e-05
5.09097e-05
5.10535e-05
5.11986e-05
5.13449e-05
5.14922e-05
5.16405e-05
5.17896e-05
5.19393e-05
5.20895e-05
5.22402e-05
5.23911e-05
5.25423e-05
5.26937e-05
5.28452e-05
5.29969e-05
5.31489e-05
5.33014e-05
5.34545e-05
5.36088e-05
5.37644e-05
5.39219e-05
5.40817e-05
5.42439e-05
5.44085e-05
5.45753e-05
5.47443e-05
5.49151e-05
5.50876e-05
5.52613e-05
5.54358e-05
5.56109e-05
5.57866e-05
5.59628e-05
5.61394e-05
5.63163e-05
5.64935e-05
5.6671e-05
5.68487e-05
5.70266e-05
5.72047e-05
5.7383e-05
5.75616e-05
5.77404e-05
5.79197e-05
5.80995e-05
5.82798e-05
5.84608e-05
5.86427e-05
5.88254e-05
5.90092e-05
5.91941e-05
5.938e-05
4.53912e-05
4.55222e-05
4.56657e-05
4.58207e-05
4.59762e-05
4.61381e-05
4.63066e-05
4.64802e-05
4.66563e-05
4.68317e-05
4.70075e-05
4.71851e-05
4.73632e-05
4.75408e-05
4.77172e-05
4.78919e-05
4.80631e-05
4.82297e-05
4.83904e-05
4.85444e-05
4.86911e-05
4.88306e-05
4.89629e-05
4.90888e-05
4.92119e-05
4.9334e-05
4.94559e-05
4.95784e-05
4.97022e-05
4.98277e-05
4.99561e-05
5.00879e-05
5.02219e-05
5.03577e-05
5.0495e-05
5.06336e-05
5.07735e-05
5.09142e-05
5.10557e-05
5.11976e-05
5.13398e-05
5.1482e-05
5.16242e-05
5.17663e-05
5.19083e-05
5.20501e-05
5.21919e-05
5.23337e-05
5.24759e-05
5.26187e-05
5.27624e-05
5.29076e-05
5.30545e-05
5.32035e-05
5.33546e-05
5.35078e-05
5.36629e-05
5.38199e-05
5.39788e-05
5.41391e-05
5.43006e-05
5.44629e-05
5.46259e-05
5.47894e-05
5.49534e-05
5.51178e-05
5.52827e-05
5.54479e-05
5.56134e-05
5.57792e-05
5.59454e-05
5.61119e-05
5.62789e-05
5.64463e-05
5.66142e-05
5.67828e-05
5.69522e-05
5.71224e-05
5.72937e-05
5.74661e-05
5.76396e-05
5.78144e-05
5.79904e-05
5.81676e-05
5.83457e-05
5.85246e-05
5.87042e-05
5.88842e-05
5.90645e-05
5.92449e-05
5.94252e-05
5.96055e-05
5.97856e-05
5.99655e-05
6.01452e-05
6.03247e-05
6.0504e-05
6.06831e-05
6.0862e-05
6.10407e-05
6.12192e-05
6.13976e-05
6.15759e-05
6.17541e-05
6.19322e-05
6.21102e-05
6.22882e-05
6.24662e-05
6.2644e-05
6.28216e-05
6.29991e-05
6.31763e-05
6.3353e-05
6.35293e-05
6.37049e-05
4.848e-05
4.86005e-05
4.87266e-05
4.88647e-05
4.90166e-05
4.91821e-05
4.93562e-05
4.95365e-05
4.97209e-05
4.99079e-05
5.00984e-05
5.02922e-05
5.04878e-05
5.06833e-05
5.08773e-05
5.10683e-05
5.12551e-05
5.14366e-05
5.16123e-05
5.1782e-05
5.19462e-05
5.21053e-05
5.22603e-05
5.24125e-05
5.25628e-05
5.27118e-05
5.28603e-05
5.30087e-05
5.31578e-05
5.3308e-05
5.34593e-05
5.36118e-05
5.37652e-05
5.39194e-05
5.40744e-05
5.42301e-05
5.43865e-05
5.45434e-05
5.47007e-05
5.48584e-05
5.50165e-05
5.51748e-05
5.53334e-05
5.54924e-05
5.56518e-05
5.58117e-05
5.59723e-05
5.61336e-05
5.62958e-05
5.6459e-05
5.66233e-05
5.67887e-05
5.69551e-05
5.71225e-05
5.72906e-05
5.74595e-05
5.7629e-05
5.77989e-05
5.7969e-05
5.81394e-05
5.83098e-05
5.84803e-05
5.86509e-05
5.88215e-05
5.89922e-05
5.91629e-05
5.93337e-05
5.95046e-05
5.96757e-05
5.98469e-05
6.00183e-05
6.019e-05
6.0362e-05
6.05342e-05
6.07068e-05
6.08796e-05
6.10528e-05
6.12262e-05
6.13997e-05
6.15734e-05
6.17471e-05
6.19207e-05
6.20941e-05
6.22671e-05
6.24396e-05
6.26115e-05
6.27829e-05
6.29535e-05
6.31233e-05
6.32924e-05
6.34608e-05
6.36283e-05
6.37951e-05
6.39611e-05
6.41263e-05
6.42908e-05
6.44544e-05
6.46173e-05
6.47793e-05
6.49405e-05
6.51009e-05
6.52604e-05
6.5419e-05
6.55767e-05
6.57333e-05
6.58889e-05
6.60433e-05
6.61965e-05
6.63484e-05
6.6499e-05
6.66481e-05
6.67957e-05
6.69417e-05
6.70861e-05
6.72288e-05
6.73698e-05
5.13257e-05
5.13658e-05
5.14158e-05
5.14766e-05
5.15489e-05
5.16328e-05
5.17309e-05
5.18414e-05
5.19561e-05
5.20849e-05
5.22304e-05
5.23926e-05
5.25673e-05
5.27489e-05
5.29359e-05
5.3129e-05
5.33277e-05
5.35312e-05
5.37381e-05
5.39468e-05
5.41556e-05
5.43628e-05
5.45673e-05
5.47681e-05
5.49646e-05
5.51564e-05
5.53435e-05
5.55258e-05
5.57036e-05
5.58773e-05
5.60472e-05
5.62138e-05
5.63778e-05
5.65399e-05
5.67006e-05
5.68606e-05
5.70204e-05
5.71802e-05
5.73405e-05
5.75013e-05
5.76627e-05
5.78247e-05
5.79874e-05
5.81508e-05
5.83149e-05
5.84795e-05
5.86446e-05
5.88101e-05
5.89761e-05
5.91423e-05
5.93089e-05
5.94756e-05
5.96426e-05
5.98097e-05
5.99769e-05
6.01442e-05
6.03116e-05
6.0479e-05
6.06463e-05
6.08134e-05
6.09804e-05
6.11472e-05
6.13136e-05
6.14797e-05
6.16455e-05
6.18109e-05
6.19759e-05
6.21406e-05
6.23048e-05
6.24688e-05
6.26323e-05
6.27955e-05
6.29583e-05
6.31208e-05
6.32829e-05
6.34446e-05
6.36059e-05
6.37668e-05
6.39273e-05
6.40872e-05
6.42466e-05
6.44053e-05
6.45634e-05
6.47206e-05
6.4877e-05
6.50325e-05
6.51869e-05
6.53403e-05
6.54925e-05
6.56436e-05
6.57934e-05
6.59419e-05
6.60891e-05
6.6235e-05
6.63796e-05
6.65228e-05
6.66647e-05
6.68053e-05
6.69445e-05
6.70824e-05
6.72189e-05
6.7354e-05
6.74877e-05
6.76199e-05
6.77507e-05
6.788e-05
6.80077e-05
6.81338e-05
6.82583e-05
6.83811e-05
6.85021e-05
6.86212e-05
6.87385e-05
6.88537e-05
6.89669e-05
6.9078e-05
6.9187e-05
6.92938e-05
6.93984e-05
6.95007e-05
6.96008e-05
6.96985e-05
6.97941e-05
5.49006e-05
5.49436e-05
5.4996e-05
5.50588e-05
5.51329e-05
5.52187e-05
5.53202e-05
5.54272e-05
5.55456e-05
5.56804e-05
5.58313e-05
5.59973e-05
5.61741e-05
5.6357e-05
5.65457e-05
5.67413e-05
5.69436e-05
5.71508e-05
5.73614e-05
5.75734e-05
5.77854e-05
5.7996e-05
5.82041e-05
5.84086e-05
5.86087e-05
5.88039e-05
5.89937e-05
5.91779e-05
5.93565e-05
5.95299e-05
5.96987e-05
5.98634e-05
6.00249e-05
6.0184e-05
6.03414e-05
6.04979e-05
6.0654e-05
6.08101e-05
6.09666e-05
6.11236e-05
6.12813e-05
6.14395e-05
6.15984e-05
6.17579e-05
6.19178e-05
6.20781e-05
6.22385e-05
6.23989e-05
6.25591e-05
6.27191e-05
6.28786e-05
6.30375e-05
6.31957e-05
6.33532e-05
6.351e-05
6.36659e-05
6.38209e-05
6.39751e-05
6.41284e-05
6.42808e-05
6.44324e-05
6.45831e-05
6.47329e-05
6.48819e-05
6.503e-05
6.51773e-05
6.53237e-05
6.54692e-05
6.56138e-05
6.57575e-05
6.59003e-05
6.6042e-05
6.61827e-05
6.63224e-05
6.6461e-05
6.65984e-05
6.67347e-05
6.68697e-05
6.70034e-05
6.71357e-05
6.72667e-05
6.73961e-05
6.75241e-05
6.76505e-05
6.77753e-05
6.78985e-05
6.80201e-05
6.814e-05
6.82583e-05
6.83748e-05
6.84897e-05
6.86029e-05
6.87144e-05
6.8824e-05
6.89319e-05
6.9038e-05
6.91422e-05
6.92444e-05
6.93447e-05
6.9443e-05
6.95392e-05
6.96334e-05
6.97253e-05
6.9815e-05
6.99026e-05
6.99879e-05
7.00711e-05
7.01522e-05
7.02312e-05
7.03079e-05
7.03824e-05
7.04546e-05
7.05245e-05
7.05921e-05
7.06572e-05
7.07197e-05
7.07796e-05
7.08367e-05
7.08907e-05
7.09415e-05
7.09887e-05
7.1032e-05
7.1071e-05
5.84168e-05
5.84644e-05
5.85211e-05
5.85878e-05
5.86651e-05
5.87549e-05
5.88578e-05
5.89664e-05
5.90893e-05
5.92271e-05
5.93785e-05
5.95425e-05
5.9717e-05
5.98971e-05
6.00824e-05
6.02742e-05
6.04722e-05
6.06745e-05
6.0879e-05
6.1084e-05
6.1288e-05
6.14896e-05
6.16876e-05
6.1881e-05
6.2069e-05
6.22508e-05
6.24263e-05
6.25954e-05
6.27586e-05
6.29164e-05
6.30696e-05
6.32189e-05
6.33652e-05
6.35094e-05
6.36522e-05
6.37943e-05
6.39361e-05
6.4078e-05
6.42202e-05
6.43627e-05
6.45057e-05
6.46491e-05
6.47928e-05
6.49366e-05
6.50803e-05
6.52238e-05
6.53668e-05
6.55091e-05
6.56506e-05
6.57909e-05
6.59301e-05
6.60679e-05
6.62043e-05
6.63394e-05
6.64729e-05
6.66051e-05
6.67357e-05
6.6865e-05
6.69929e-05
6.71194e-05
6.72446e-05
6.73684e-05
6.74909e-05
6.76119e-05
6.77316e-05
6.785e-05
6.79668e-05
6.80823e-05
6.81962e-05
6.83087e-05
6.84197e-05
6.85291e-05
6.86369e-05
6.87431e-05
6.88476e-05
6.89503e-05
6.90513e-05
6.91505e-05
6.92478e-05
6.93431e-05
6.94365e-05
6.95278e-05
6.96171e-05
6.97042e-05
6.97892e-05
6.9872e-05
6.99526e-05
7.0031e-05
7.01074e-05
7.01818e-05
7.02542e-05
7.03244e-05
7.03927e-05
7.04588e-05
7.05228e-05
7.05846e-05
7.06442e-05
7.07014e-05
7.07561e-05
7.08082e-05
7.08574e-05
7.09036e-05
7.09464e-05
7.09855e-05
7.10204e-05
7.10508e-05
7.1078e-05
7.11024e-05
7.11239e-05
7.11425e-05
7.11579e-05
7.117e-05
7.11786e-05
7.11832e-05
7.11844e-05
7.1183e-05
7.11787e-05
7.11717e-05
7.11624e-05
7.1151e-05
7.11379e-05
7.11238e-05
7.11092e-05
6.16439e-05
6.16957e-05
6.17562e-05
6.18262e-05
6.19066e-05
6.20008e-05
6.21031e-05
6.22149e-05
6.234e-05
6.24772e-05
6.26252e-05
6.27833e-05
6.29511e-05
6.31237e-05
6.33e-05
6.34814e-05
6.36672e-05
6.38554e-05
6.40439e-05
6.4231e-05
6.44153e-05
6.45957e-05
6.4771e-05
6.49403e-05
6.51031e-05
6.52591e-05
6.54084e-05
6.55513e-05
6.56885e-05
6.58207e-05
6.59487e-05
6.60734e-05
6.61955e-05
6.63159e-05
6.64351e-05
6.65538e-05
6.66721e-05
6.67905e-05
6.69091e-05
6.70278e-05
6.71467e-05
6.72656e-05
6.73844e-05
6.75028e-05
6.76206e-05
6.77375e-05
6.78534e-05
6.79679e-05
6.80809e-05
6.81923e-05
6.83019e-05
6.84097e-05
6.85156e-05
6.86196e-05
6.87218e-05
6.88222e-05
6.89207e-05
6.90175e-05
6.91125e-05
6.92057e-05
6.92972e-05
6.93869e-05
6.94747e-05
6.95607e-05
6.96448e-05
6.97269e-05
6.9807e-05
6.98851e-05
6.9961e-05
7.00349e-05
7.01067e-05
7.01764e-05
7.02442e-05
7.031e-05
7.03737e-05
7.04355e-05
7.04951e-05
7.05527e-05
7.06082e-05
7.06614e-05
7.07123e-05
7.07608e-05
7.08068e-05
7.085e-05
7.08902e-05
7.09271e-05
7.09603e-05
7.09894e-05
7.10151e-05
7.1038e-05
7.10583e-05
7.10758e-05
7.10903e-05
7.11016e-05
7.11093e-05
7.11136e-05
7.1115e-05
7.11139e-05
7.11101e-05
7.11037e-05
7.10952e-05
7.10846e-05
7.10725e-05
7.10593e-05
7.10459e-05
7.10327e-05
7.1017e-05
7.0998e-05
7.09759e-05
7.09508e-05
7.09231e-05
7.08932e-05
7.08616e-05
7.08292e-05
7.07948e-05
7.07574e-05
7.0717e-05
7.06736e-05
7.06272e-05
7.05778e-05
7.05251e-05
7.04689e-05
7.04087e-05
7.03438e-05
7.02752e-05
6.4429e-05
6.4483e-05
6.45455e-05
6.46173e-05
6.47002e-05
6.47947e-05
6.48963e-05
6.50085e-05
6.51312e-05
6.5263e-05
6.5403e-05
6.55506e-05
6.57059e-05
6.58652e-05
6.6026e-05
6.61896e-05
6.6355e-05
6.65203e-05
6.66837e-05
6.68437e-05
6.69992e-05
6.71492e-05
6.72928e-05
6.74295e-05
6.75591e-05
6.76818e-05
6.77979e-05
6.79079e-05
6.80127e-05
6.81129e-05
6.82094e-05
6.83031e-05
6.83946e-05
6.84846e-05
6.85737e-05
6.86623e-05
6.87508e-05
6.88392e-05
6.89277e-05
6.90163e-05
6.91047e-05
6.91929e-05
6.92806e-05
6.93675e-05
6.94534e-05
6.95379e-05
6.96208e-05
6.97018e-05
6.97808e-05
6.98576e-05
6.99321e-05
7.00042e-05
7.00739e-05
7.01412e-05
7.02064e-05
7.02694e-05
7.03304e-05
7.03893e-05
7.04461e-05
7.0501e-05
7.05539e-05
7.06048e-05
7.06535e-05
7.07001e-05
7.07444e-05
7.07863e-05
7.08256e-05
7.0862e-05
7.08954e-05
7.09251e-05
7.0951e-05
7.09739e-05
7.09943e-05
7.1012e-05
7.1027e-05
7.1039e-05
7.10475e-05
7.10529e-05
7.10556e-05
7.10557e-05
7.10535e-05
7.10487e-05
7.10416e-05
7.10326e-05
7.10219e-05
7.10099e-05
7.09975e-05
7.09853e-05
7.09717e-05
7.09551e-05
7.09357e-05
7.09136e-05
7.08892e-05
7.08631e-05
7.08359e-05
7.08074e-05
7.07761e-05
7.0742e-05
7.07051e-05
7.06655e-05
7.06231e-05
7.05779e-05
7.05297e-05
7.04782e-05
7.04229e-05
7.03634e-05
7.03006e-05
7.02351e-05
7.01666e-05
7.00951e-05
7.00205e-05
6.99427e-05
6.98612e-05
6.97755e-05
6.96861e-05
6.95935e-05
6.94975e-05
6.9398e-05
6.92949e-05
6.91882e-05
6.90777e-05
6.89634e-05
6.88453e-05
6.87236e-05
6.85984e-05
6.66843e-05
6.67381e-05
6.68002e-05
6.68718e-05
6.6954e-05
6.70445e-05
6.71431e-05
6.72503e-05
6.73649e-05
6.74859e-05
6.76129e-05
6.7745e-05
6.78815e-05
6.80215e-05
6.81608e-05
6.82997e-05
6.84378e-05
6.85734e-05
6.87051e-05
6.88317e-05
6.89524e-05
6.90663e-05
6.91731e-05
6.92727e-05
6.93651e-05
6.94507e-05
6.953e-05
6.96037e-05
6.96726e-05
6.97374e-05
6.97991e-05
6.98582e-05
6.99155e-05
6.99715e-05
7.00267e-05
7.00814e-05
7.01358e-05
7.01902e-05
7.02445e-05
7.02987e-05
7.03526e-05
7.0406e-05
7.04586e-05
7.05102e-05
7.05603e-05
7.06088e-05
7.06553e-05
7.06996e-05
7.07415e-05
7.07806e-05
7.08169e-05
7.08499e-05
7.08793e-05
7.09048e-05
7.09271e-05
7.09467e-05
7.09636e-05
7.09778e-05
7.09889e-05
7.09967e-05
7.10018e-05
7.10043e-05
7.10045e-05
7.10023e-05
7.09978e-05
7.09911e-05
7.09826e-05
7.09724e-05
7.09612e-05
7.09496e-05
7.09382e-05
7.0925e-05
7.09089e-05
7.08904e-05
7.08696e-05
7.08471e-05