/*--------------------------------*- C++ -*----------------------------------*\
| =========                 |                                                 |
| \\      /  F ield         | OpenFOAM: The Open Source CFD Toolbox           |
|  \\    /   O peration     | Version:  v1706                                 |
|   \\  /    A nd           | Web:      www.OpenFOAM.com                      |
|    \\/     M anipulation  |                                                 |
\*---------------------------------------------------------------------------*/
FoamFile
{
    version     2.0;
    format      ascii;
    class       volScalarField;
    location    "3e-06";
    object      kappatr;
}
// * * * * * * * * * * * * * * * * * * * * * * * * * * * * * * * * * * * * * //

dimensions      [1 1 -3 -1 0 0 0];


internalField   nonuniform List<scalar> 
29871
(
0.014593
0.014593
0.014593
0.014593
0.014593
0.014593
0.014593
0.014593
0.014593
0.014593
0.014593
0.014593
0.014593
0.014593
0.014593
0.014593
0.014593
0.014593
0.014593
0.014593
0.014593
0.014593
0.014593
0.014593
0.014593
0.014593
0.014593
0.014593
0.014593
0.014593
0.014593
0.014593
0.014593
0.014593
0.014593
0.014593
0.014593
0.014593
0.014593
0.014593
0.014593
0.014593
0.014593
0.014593
0.014593
0.014593
0.014593
0.014593
0.014593
0.014593
0.014593
0.014593
0.014593
0.014593
0.014593
0.014593
0.014593
0.014593
0.014593
0.014593
0.014593
0.014593
0.014593
0.014593
0.014593
0.014593
0.014593
0.014593
0.014593
0.014593
0.014593
0.014593
0.014593
0.014593
0.014593
0.014593
0.014593
0.014593
0.014593
0.014593
0.014593
0.014593
0.014593
0.014593
0.014593
0.014593
0.014593
0.014593
0.014593
0.014593
0.014593
0.014593
0.014593
0.014593
0.014593
0.014593
0.014593
0.014593
0.014593
0.014593
0.014593
0.014593
0.014593
0.014593
0.014593
0.014593
0.014593
0.014593
0.014593
0.014593
0.014593
0.014593
0.014593
0.014593
0.014593
0.014593
0.014593
0.014593
0.014593
0.014593
0.014593
0.014593
0.014593
0.014593
0.014593
0.014593
0.014593
0.014593
0.014593
0.014593
0.014593
0.014593
0.014593
0.014593
0.014593
0.014593
0.014593
0.014593
0.014593
0.014593
0.014593
0.014593
0.014593
0.014593
0.014593
0.014593
0.014593
0.014593
0.014593
0.014593
0.014593
0.014593
0.014593
0.014593
0.014593
0.014593
0.014593
0.014593
0.014593
0.014593
0.014593
0.014593
0.014593
0.014593
0.014593
0.014593
0.014593
0.014593
0.014593
0.014593
0.014593
0.0145931
0.0145931
0.0145931
0.0145931
0.0145931
0.0145931
0.0145931
0.0145931
0.0145931
0.0145931
0.0145931
0.0145931
0.0145931
0.0145931
0.0145931
0.0145931
0.0145931
0.0145931
0.0145931
0.0145931
0.0145931
0.0145931
0.0145931
0.0145931
0.0145931
0.0145931
0.0145931
0.0145931
0.0145931
0.0145931
0.0145931
0.0145931
0.0145931
0.0145931
0.0145931
0.0145931
0.0145931
0.0145931
0.0145931
0.014593
0.014593
0.014593
0.014593
0.014593
0.014593
0.014593
0.014593
0.0145931
0.0145931
0.0145931
0.0145931
0.0145931
0.0145931
0.0145931
0.0145931
0.0145931
0.0145931
0.0145931
0.0145931
0.0145931
0.0145931
0.0145931
0.0145931
0.0145931
0.0145931
0.0145931
0.0145931
0.0145931
0.0145931
0.0145931
0.0145931
0.0145931
0.0145931
0.0145931
0.0145931
0.0145931
0.0145931
0.0145931
0.0145931
0.0145931
0.0145931
0.0145932
0.0145932
0.0145932
0.0145932
0.0145932
0.0145932
0.0145932
0.0145932
0.0145932
0.0145932
0.0145932
0.0145932
0.0145932
0.0145932
0.0145932
0.0145932
0.0145932
0.0145932
0.0145933
0.0145933
0.0145933
0.0145933
0.0145933
0.0145933
0.0145933
0.0145933
0.0145933
0.0145933
0.0145933
0.0145933
0.0145934
0.0145934
0.0145934
0.0145934
0.0145934
0.0145934
0.0145934
0.0145934
0.0145935
0.0145935
0.0145935
0.0145935
0.0145935
0.0145935
0.0145936
0.0145936
0.0145936
0.0145936
0.0145936
0.0145936
0.0145937
0.0145937
0.0145937
0.0145937
0.0145937
0.0145938
0.0145938
0.0145938
0.0145938
0.0145939
0.0145939
0.0145939
0.014594
0.014594
0.0145932
0.0145932
0.0145932
0.0145932
0.0145932
0.0145932
0.0145932
0.0145932
0.0145933
0.0145933
0.0145933
0.0145933
0.0145933
0.0145933
0.0145933
0.0145933
0.0145934
0.0145934
0.0145934
0.0145934
0.0145934
0.0145934
0.0145934
0.0145935
0.0145935
0.0145935
0.0145935
0.0145935
0.0145935
0.0145936
0.0145936
0.0145936
0.0145936
0.0145936
0.0145937
0.0145937
0.0145937
0.0145937
0.0145937
0.0145938
0.0145938
0.0145938
0.0145938
0.0145939
0.0145939
0.0145939
0.014594
0.014594
0.014594
0.014594
0.0145941
0.0145941
0.0145941
0.0145942
0.0145942
0.0145943
0.0145943
0.0145943
0.0145944
0.0145944
0.0145945
0.0145945
0.0145946
0.0145946
0.0145947
0.0145947
0.0145948
0.0145948
0.0145949
0.014595
0.014595
0.0145951
0.0145952
0.0145952
0.0145953
0.0145954
0.0145954
0.0145955
0.0145956
0.0145957
0.0145958
0.0145959
0.014596
0.0145961
0.0145962
0.0145963
0.0145964
0.0145965
0.0145966
0.0145967
0.0145968
0.014597
0.0145971
0.0145972
0.0145974
0.0145975
0.0145977
0.0145978
0.014598
0.0145982
0.0145984
0.0145985
0.0145987
0.0145989
0.0145991
0.0145994
0.0145939
0.014594
0.014594
0.014594
0.014594
0.0145941
0.0145941
0.0145942
0.0145942
0.0145943
0.0145944
0.0145944
0.0145945
0.0145946
0.0145946
0.0145947
0.0145948
0.0145949
0.014595
0.014595
0.0145951
0.0145952
0.0145953
0.0145954
0.0145955
0.0145955
0.0145956
0.0145957
0.0145958
0.0145959
0.014596
0.0145961
0.0145962
0.0145963
0.0145965
0.0145966
0.0145967
0.0145968
0.0145969
0.0145971
0.0145972
0.0145973
0.0145975
0.0145976
0.0145978
0.0145979
0.0145981
0.0145983
0.0145984
0.0145986
0.0145988
0.014599
0.0145992
0.0145994
0.0145996
0.0145998
0.0146001
0.0146003
0.0146005
0.0146008
0.0146011
0.0146013
0.0146016
0.0146019
0.0146022
0.0146025
0.0146029
0.0146032
0.0146036
0.0146039
0.0146043
0.0146047
0.0146051
0.0146055
0.014606
0.0146064
0.0146069
0.0146074
0.0146079
0.0146084
0.014609
0.0146095
0.0146101
0.0146107
0.0146113
0.014612
0.0146126
0.0146133
0.0146141
0.0146148
0.0146156
0.0146163
0.0146172
0.014618
0.0146189
0.0146198
0.0146208
0.0146217
0.0146227
0.0146238
0.0146249
0.014626
0.0146272
0.0146284
0.0146297
0.014631
0.0146324
0.0145976
0.0145977
0.0145978
0.014598
0.0145982
0.0145984
0.0145987
0.014599
0.0145992
0.0145996
0.0145999
0.0146003
0.0146006
0.014601
0.0146014
0.0146018
0.0146022
0.0146026
0.014603
0.0146035
0.0146039
0.0146044
0.0146048
0.0146053
0.0146058
0.0146062
0.0146067
0.0146073
0.0146078
0.0146083
0.0146089
0.0146095
0.0146101
0.0146107
0.0146113
0.0146119
0.0146126
0.0146133
0.014614
0.0146147
0.0146155
0.0146163
0.0146171
0.0146179
0.0146188
0.0146197
0.0146207
0.0146216
0.0146227
0.0146237
0.0146248
0.0146259
0.0146271
0.0146283
0.0146295
0.0146308
0.0146321
0.0146335
0.014635
0.0146365
0.014638
0.0146396
0.0146413
0.014643
0.0146448
0.0146466
0.0146485
0.0146505
0.0146526
0.0146547
0.014657
0.0146593
0.0146617
0.0146642
0.0146668
0.0146695
0.0146723
0.0146752
0.0146782
0.0146814
0.0146846
0.014688
0.0146915
0.0146952
0.014699
0.0147029
0.014707
0.0147112
0.0147156
0.0147201
0.0147248
0.0147296
0.0147347
0.0147399
0.0147453
0.0147509
0.0147567
0.0147627
0.014769
0.0147755
0.0147822
0.0147892
0.0147965
0.014804
0.0148119
0.01482
0.0148285
0.0146138
0.0146141
0.0146145
0.014615
0.0146157
0.0146165
0.0146174
0.0146185
0.0146197
0.014621
0.0146225
0.014624
0.0146257
0.0146275
0.0146293
0.0146312
0.0146332
0.0146353
0.0146374
0.0146396
0.0146418
0.014644
0.0146463
0.0146486
0.014651
0.0146534
0.0146559
0.0146584
0.014661
0.0146637
0.0146665
0.0146693
0.0146722
0.0146752
0.0146783
0.0146815
0.0146848
0.0146882
0.0146917
0.0146953
0.014699
0.0147029
0.0147069
0.014711
0.0147153
0.0147198
0.0147244
0.0147293
0.0147343
0.0147395
0.0147448
0.0147504
0.0147562
0.0147623
0.0147685
0.014775
0.0147817
0.0147887
0.0147959
0.0148034
0.0148111
0.0148192
0.0148275
0.0148362
0.0148451
0.0148544
0.0148641
0.0148741
0.0148845
0.0148953
0.0149065
0.0149181
0.0149302
0.0149428
0.0149559
0.0149696
0.0149838
0.0149985
0.0150139
0.0150299
0.0150466
0.015064
0.0150822
0.015101
0.0151207
0.0151411
0.0151624
0.0151846
0.0152076
0.0152316
0.0152565
0.0152823
0.0153091
0.0153369
0.0153657
0.0153955
0.0154264
0.0154583
0.0154913
0.0155253
0.0155605
0.0155968
0.0156342
0.0156728
0.0157126
0.0157537
0.0157961
0.0158398
0.0158849
0.0159315
0.0146906
0.0146922
0.0146946
0.0146976
0.0147013
0.0147056
0.0147105
0.0147161
0.0147223
0.0147291
0.0147364
0.0147443
0.0147528
0.0147617
0.014771
0.0147808
0.0147908
0.0148012
0.0148118
0.0148226
0.0148336
0.0148449
0.0148564
0.0148682
0.0148802
0.0148925
0.0149052
0.0149182
0.0149316
0.0149454
0.0149595
0.0149741
0.0149891
0.0150045
0.0150204
0.0150368
0.0150537
0.0150711
0.015089
0.0151076
0.0151269
0.0151468
0.0151675
0.0151889
0.0152112
0.0152343
0.0152584
0.0152834
0.0153094
0.0153365
0.0153646
0.0153938
0.0154242
0.0154557
0.0154885
0.0155225
0.0155577
0.0155942
0.0156321
0.0156713
0.0157119
0.0157538
0.0157972
0.0158421
0.0158884
0.0159362
0.0159856
0.0160365
0.016089
0.0161432
0.0161991
0.0162568
0.0163163
0.0163777
0.016441
0.0165065
0.0165741
0.016644
0.0167164
0.0167913
0.0168688
0.0169492
0.0170325
0.0171189
0.0172085
0.0173016
0.0173981
0.0174983
0.0176023
0.0177101
0.0178219
0.0179378
0.0180577
0.0181819
0.0183101
0.0184425
0.0185791
0.0187196
0.0188642
0.0190126
0.0191648
0.0193205
0.0194797
0.0196422
0.0198078
0.0199764
0.0201478
0.0203219
0.0204986
0.0206778
0.0150357
0.0150456
0.0150584
0.0150742
0.0150929
0.0151145
0.0151389
0.0151661
0.015196
0.0152287
0.0152639
0.0153016
0.0153415
0.0153835
0.0154274
0.0154729
0.0155199
0.0155681
0.0156174
0.0156677
0.015719
0.0157713
0.0158247
0.0158792
0.0159349
0.015992
0.0160506
0.0161106
0.0161723
0.0162355
0.0163003
0.0163667
0.0164347
0.0165043
0.0165755
0.0166483
0.0167228
0.0167991
0.0168773
0.0169575
0.0170398
0.0171245
0.0172115
0.0173012
0.0173936
0.017489
0.0175874
0.017689
0.017794
0.0179025
0.0180146
0.0181305
0.0182503
0.0183741
0.018502
0.018634
0.0187703
0.0189109
0.0190558
0.019205
0.0193586
0.0195164
0.0196785
0.0198447
0.020015
0.0201892
0.0203673
0.0205491
0.0207344
0.0209231
0.0211152
0.0213103
0.0215085
0.0217097
0.0219138
0.0221209
0.0223309
0.022544
0.0227602
0.02298
0.0232033
0.0234307
0.0236624
0.0238988
0.0241404
0.0243875
0.0246408
0.0249006
0.0251676
0.0254423
0.0257251
0.0260165
0.026317
0.0266268
0.0269465
0.027276
0.0276157
0.0279654
0.028325
0.0286942
0.0290727
0.0294598
0.0298549
0.0302569
0.0306648
0.0310775
0.0314936
0.0319117
0.0323303
0.0327479
0.0164633
0.0165108
0.0165697
0.0166401
0.0167215
0.0168136
0.016916
0.0170282
0.0171498
0.0172803
0.0174189
0.0175648
0.017717
0.0178746
0.0180367
0.0182024
0.0183709
0.0185416
0.0187141
0.0188881
0.0190636
0.0192408
0.0194201
0.0196018
0.0197863
0.0199737
0.0201644
0.0203586
0.0205562
0.0207571
0.0209612
0.0211683
0.0213779
0.02159
0.0218043
0.0220207
0.022239
0.0224592
0.0226814
0.0229057
0.0231322
0.023361
0.0235923
0.0238263
0.0240634
0.0243037
0.0245474
0.0247949
0.0250466
0.0253026
0.0255635
0.0258295
0.026101
0.0263783
0.0266619
0.0269521
0.0272492
0.0275535
0.0278654
0.0281849
0.0285122
0.0288474
0.0291905
0.0295412
0.0298993
0.0302645
0.0306363
0.031014
0.0313969
0.0317841
0.0321747
0.0325675
0.0329615
0.0333554
0.0337479
0.0341378
0.0345239
0.0349049
0.0352797
0.0356473
0.0360068
0.0363577
0.0366998
0.0370325
0.0373553
0.037668
0.0379703
0.0382623
0.0385441
0.0388158
0.0390778
0.0393303
0.0395738
0.0398088
0.0400356
0.0402548
0.0404669
0.0406723
0.0408714
0.0410646
0.0412522
0.0414346
0.041612
0.0417846
0.0419526
0.0421164
0.042276
0.0424319
0.0425843
0.0427337
0.0209855
0.02114
0.0213245
0.0215375
0.0217772
0.0220415
0.0223277
0.0226336
0.0229569
0.0232949
0.0236446
0.0240029
0.0243666
0.0247328
0.0250991
0.0254637
0.0258251
0.0261825
0.0265357
0.026885
0.0272311
0.0275755
0.0279195
0.0282644
0.0286111
0.0289607
0.0293139
0.0296712
0.030033
0.0303989
0.0307687
0.0311417
0.0315173
0.0318947
0.0322732
0.032652
0.0330303
0.0334077
0.0337833
0.0341565
0.0345267
0.0348932
0.0352553
0.0356124
0.0359637
0.0363085
0.0366463
0.0369764
0.0372982
0.0376114
0.0379162
0.0382122
0.0384991
0.0387768
0.0390453
0.0393045
0.0395546
0.0397959
0.0400285
0.0402529
0.0404693
0.0406782
0.0408798
0.0410746
0.041263
0.0414452
0.0416216
0.0417925
0.0419582
0.0421188
0.0422746
0.0424259
0.042573
0.042716
0.0428555
0.0429917
0.0431251
0.0432564
0.0433859
0.043514
0.0436429
0.043785
0.0439256
0.0440636
0.0441998
0.0443348
0.0444693
0.044604
0.0447395
0.0448749
0.0450101
0.0451454
0.0452811
0.0454177
0.0455554
0.0456944
0.0458347
0.0459764
0.0461195
0.046264
0.0464099
0.0465571
0.0467056
0.0468553
0.0470062
0.0471582
0.0473113
0.0474654
0.0476205
0.0477766
0.029695
0.029941
0.0302346
0.0305727
0.0309502
0.0313626
0.0318055
0.0322741
0.0327631
0.0332677
0.033783
0.0343031
0.0348218
0.0353331
0.035832
0.0363141
0.0367757
0.0372142
0.0376281
0.0380171
0.0383813
0.0387223
0.0390434
0.0393467
0.0396328
0.0399029
0.0401594
0.040404
0.0406376
0.0408609
0.0410745
0.041279
0.0414749
0.0416627
0.0418426
0.042015
0.0421804
0.0423392
0.0424916
0.0426382
0.0427792
0.0429152
0.0430468
0.0431743
0.0432984
0.0434198
0.0435389
0.0436565
0.0437728
0.0438888
0.0440141
0.0441416
0.044267
0.0443908
0.0445135
0.0446357
0.0447578
0.0448806
0.0450045
0.0451288
0.0452534
0.0453783
0.045504
0.0456306
0.0457582
0.045887
0.046017
0.0461481
0.0462805
0.0464141
0.0465488
0.0466846
0.0468216
0.0469596
0.0470987
0.0472388
0.0473798
0.0475218
0.0476646
0.0478082
0.0479522
0.048096
0.0482267
0.0483541
0.0484806
0.0486061
0.0487305
0.048854
0.0489762
0.0490971
0.0492193
0.0493444
0.0494722
0.0496027
0.0497359
0.0498716
0.0500098
0.0501502
0.0502927
0.0504372
0.0505835
0.0507315
0.0508808
0.0510313
0.0511828
0.051335
0.0514876
0.0516403
0.0517928
0.0519447
0.0520957
0.0396734
0.0399095
0.0401714
0.0404461
0.0407263
0.0410093
0.041295
0.0415806
0.0418608
0.0421305
0.042387
0.0426282
0.0428526
0.0430598
0.0432502
0.0434251
0.043586
0.0437352
0.0438751
0.0440075
0.0441343
0.0442662
0.0443978
0.0445241
0.0446468
0.0447676
0.0448876
0.0450076
0.0451288
0.0452515
0.045375
0.0454992
0.045624
0.0457496
0.0458758
0.0460026
0.0461298
0.0462573
0.0463852
0.0465133
0.0466416
0.0467703
0.0468994
0.0470289
0.0471589
0.0472894
0.0474204
0.047552
0.0476837
0.0478158
0.0479396
0.0480578
0.0481752
0.048292
0.0484083
0.0485242
0.0486398
0.0487547
0.0488687
0.0489838
0.0491014
0.0492216
0.0493442
0.049469
0.0495961
0.0497253
0.0498564
0.0499894
0.050124
0.05026
0.0503974
0.0505359
0.0506752
0.050815
0.0509552
0.0510954
0.0512353
0.0513745
0.0515125
0.0516493
0.0517846
0.0519181
0.0520513
0.0521864
0.0523236
0.0524632
0.0526055
0.0527507
0.0528995
0.0530523
0.053208
0.0533653
0.0535244
0.0536852
0.0538475
0.0540112
0.0541762
0.0543423
0.0545094
0.0546774
0.0548461
0.0550153
0.0551849
0.0553548
0.0555249
0.0556952
0.0558655
0.056036
0.0562067
0.0563777
0.0565492
0.0567216
0.0568953
0.0440584
0.0442407
0.0444255
0.0446111
0.0448049
0.0450043
0.0452036
0.045403
0.0456016
0.0457976
0.0459898
0.0461776
0.0463617
0.0465423
0.0467187
0.0468904
0.0470575
0.0472197
0.0473769
0.0475288
0.0476758
0.047809
0.047931
0.0480485
0.0481643
0.0482793
0.0483934
0.0485067
0.0486192
0.0487315
0.048846
0.0489634
0.0490834
0.0492057
0.0493301
0.0494562
0.0495838
0.0497126
0.0498422
0.0499726
0.0501034
0.0502344
0.0503654
0.0504962
0.0506265
0.0507561
0.0508846
0.051012
0.0511383
0.051263
0.0513866
0.0515115
0.0516383
0.0517669
0.0518976
0.0520306
0.0521661
0.0523047
0.0524468
0.0525914
0.0527378
0.0528856
0.053035
0.0531857
0.0533377
0.0534907
0.0536448
0.0537996
0.0539551
0.0541112
0.0542677
0.0544245
0.0545816
0.0547388
0.0548962
0.0550538
0.0552117
0.0553701
0.0555292
0.0556894
0.0558511
0.0560147
0.0561807
0.0563492
0.0565202
0.0566935
0.056869
0.0570465
0.0572257
0.0574061
0.0575874
0.0577693
0.0579518
0.0581348
0.0583182
0.058502
0.0586861
0.0588705
0.0590551
0.0592399
0.0594249
0.0596101
0.0597956
0.0599815
0.0601677
0.0603544
0.0605417
0.0607298
0.0609187
0.0611086
0.0612995
0.0614915
0.0616847
0.0471529
0.047289
0.047438
0.0475991
0.0477606
0.0479288
0.0481038
0.0482841
0.0484671
0.0486493
0.048832
0.0490164
0.0492015
0.0493859
0.0495692
0.0497506
0.0499285
0.0501015
0.0502685
0.0504285
0.0505809
0.0507258
0.0508632
0.050994
0.0511219
0.0512487
0.0513754
0.0515027
0.0516312
0.0517616
0.051895
0.0520319
0.0521711
0.0523121
0.0524548
0.0525988
0.0527441
0.0528903
0.0530372
0.0531847
0.0533323
0.0534801
0.0536279
0.0537755
0.053923
0.0540703
0.0542175
0.0543649
0.0545126
0.0546609
0.0548102
0.054961
0.0551136
0.0552684
0.0554254
0.0555845
0.0557456
0.0559088
0.0560738
0.0562403
0.0564081
0.0565767
0.056746
0.0569159
0.0570862
0.0572571
0.0574283
0.0575999
0.0577718
0.0579441
0.0581167
0.0582897
0.0584631
0.058637
0.0588115
0.0589867
0.0591626
0.0593395
0.0595174
0.0596964
0.0598767
0.0600583
0.0602411
0.0604251
0.0606102
0.0607961
0.0609826
0.0611696
0.0613569
0.0615443
0.0617316
0.0619189
0.0621059
0.0622929
0.0624796
0.062666
0.0628523
0.0630383
0.0632242
0.0634098
0.0635953
0.0637806
0.0639658
0.0641509
0.0643359
0.0645209
0.0647058
0.0648906
0.0650753
0.0652599
0.0654442
0.0656283
0.0658119
0.065995
0.0661774
0.0503616
0.0504868
0.0506177
0.0507612
0.050919
0.0510909
0.0512718
0.0514591
0.0516506
0.0518449
0.0520428
0.0522441
0.0524473
0.0526504
0.0528519
0.0530504
0.0532444
0.0534329
0.0536154
0.0537918
0.0539623
0.0541276
0.0542886
0.0544467
0.0546028
0.0547577
0.0549119
0.0550661
0.055221
0.0553769
0.0555342
0.0556926
0.0558519
0.0560121
0.0561731
0.0563349
0.0564973
0.0566603
0.0568237
0.0569876
0.0571518
0.0573162
0.057481
0.0576462
0.0578118
0.0579779
0.0581447
0.0583123
0.0584808
0.0586503
0.058821
0.0589928
0.0591656
0.0593395
0.0595142
0.0596896
0.0598657
0.0600421
0.0602189
0.0603959
0.0605729
0.0607501
0.0609272
0.0611045
0.0612818
0.0614591
0.0616365
0.0618141
0.0619918
0.0621696
0.0623477
0.0625261
0.0627047
0.0628837
0.0630629
0.0632425
0.0634223
0.0636025
0.0637828
0.0639632
0.0641436
0.064324
0.064504
0.0646838
0.064863
0.0650416
0.0652196
0.0653968
0.0655733
0.0657489
0.0659238
0.0660979
0.0662711
0.0664436
0.0666152
0.066786
0.066956
0.0671252
0.0672935
0.067461
0.0676276
0.0677933
0.0679581
0.0681218
0.0682846
0.0684462
0.0686066
0.0687657
0.0689235
0.0690799
0.0692348
0.0693881
0.0695398
0.0696898
0.0698381
0.0699845
0.0533177
0.0533594
0.0534113
0.0534745
0.0535496
0.0536368
0.0537387
0.0538534
0.0539726
0.0541064
0.0542575
0.054426
0.0546076
0.0547962
0.0549905
0.055191
0.0553974
0.0556088
0.0558237
0.0560406
0.0562574
0.0564727
0.0566851
0.0568937
0.0570979
0.0572971
0.0574915
0.0576809
0.0578656
0.058046
0.0582224
0.0583956
0.0585659
0.0587343
0.0589012
0.0590674
0.0592334
0.0593995
0.059566
0.059733
0.0599006
0.060069
0.060238
0.0604078
0.0605782
0.0607492
0.0609207
0.0610927
0.061265
0.0614378
0.0616107
0.061784
0.0619574
0.062131
0.0623047
0.0624785
0.0626524
0.0628263
0.0630001
0.0631737
0.0633472
0.0635204
0.0636933
0.0638659
0.0640381
0.0642099
0.0643813
0.0645523
0.064723
0.0648933
0.0650632
0.0652327
0.0654019
0.0655706
0.065739
0.065907
0.0660746
0.0662418
0.0664084
0.0665746
0.0667401
0.066905
0.0670692
0.0672326
0.067395
0.0675565
0.067717
0.0678763
0.0680344
0.0681913
0.0683469
0.0685012
0.0686541
0.0688057
0.0689559
0.0691047
0.0692521
0.0693982
0.0695428
0.069686
0.0698278
0.0699681
0.070107
0.0702444
0.0703802
0.0705145
0.0706472
0.0707783
0.0709076
0.0710351
0.0711608
0.0712845
0.0714063
0.0715261
0.0716437
0.0717591
0.0718723
0.0719833
0.0720919
0.0721982
0.0723021
0.0724037
0.0725029
0.0570314
0.0570761
0.0571304
0.0571958
0.0572727
0.0573618
0.0574673
0.0575784
0.0577015
0.0578415
0.0579982
0.0581706
0.0583543
0.0585443
0.0587404
0.0589436
0.0591536
0.059369
0.0595877
0.0598079
0.0600282
0.060247
0.0604631
0.0606755
0.0608835
0.0610862
0.0612833
0.0614747
0.0616602
0.0618404
0.0620157
0.0621868
0.0623546
0.0625198
0.0626834
0.0628459
0.063008
0.0631702
0.0633328
0.0634959
0.0636597
0.0638241
0.0639892
0.0641548
0.064321
0.0644874
0.0646541
0.0648207
0.0649872
0.0651533
0.065319
0.0654841
0.0656485
0.0658121
0.0659749
0.0661369
0.0662979
0.0664581
0.0666173
0.0667757
0.0669331
0.0670897
0.0672453
0.0674001
0.067554
0.067707
0.0678591
0.0680102
0.0681604
0.0683097
0.068458
0.0686052
0.0687514
0.0688965
0.0690405
0.0691833
0.0693248
0.069465
0.0696039
0.0697414
0.0698774
0.0700119
0.0701448
0.0702761
0.0704058
0.0705338
0.0706601
0.0707846
0.0709075
0.0710286
0.071148
0.0712655
0.0713813
0.0714952
0.0716073
0.0717175
0.0718257
0.0719319
0.0720361
0.0721382
0.0722382
0.072336
0.0724315
0.0725247
0.0726156
0.0727043
0.0727907
0.072875
0.072957
0.0730367
0.0731141
0.0731891
0.0732617
0.0733319
0.0733995
0.0734645
0.0735267
0.073586
0.0736421
0.0736949
0.073744
0.0737889
0.0738294
0.0606841
0.0607335
0.0607924
0.0608617
0.060942
0.0610353
0.0611421
0.061255
0.0613827
0.0615258
0.0616831
0.0618534
0.0620347
0.0622218
0.0624143
0.0626136
0.0628193
0.0630294
0.0632419
0.0634548
0.0636667
0.0638761
0.0640818
0.0642828
0.064478
0.0646669
0.0648491
0.0650249
0.0651944
0.0653583
0.0655174
0.0656725
0.0658245
0.0659743
0.0661227
0.0662703
0.0664176
0.066565
0.0667127
0.0668608
0.0670093
0.0671583
0.0673075
0.0674569
0.0676062
0.0677553
0.0679038
0.0680517
0.0681986
0.0683444
0.0684889
0.0686321
0.0687739
0.0689141
0.0690529
0.0691901
0.0693259
0.0694602
0.069593
0.0697245
0.0698545
0.0699831
0.0701103
0.0702361
0.0703604
0.0704833
0.0706048
0.0707247
0.0708431
0.0709599
0.0710752
0.0711888
0.0713008
0.0714111
0.0715197
0.0716264
0.0717314
0.0718344
0.0719354
0.0720345
0.0721315
0.0722263
0.0723191
0.0724096
0.0724978
0.0725839
0.0726676
0.0727491
0.0728285
0.0729057
0.0729809
0.0730539
0.0731247
0.0731934
0.0732599
0.0733241
0.073386
0.0734454
0.0735023
0.0735564
0.0736075
0.0736555
0.0737
0.0737406
0.0737768
0.0738084
0.0738367
0.0738621
0.0738844
0.0739037
0.0739197
0.0739323
0.0739412
0.073946
0.0739473
0.0739457
0.0739412
0.073934
0.0739243
0.0739125
0.0738989
0.0738842
0.0738691
0.0640364
0.0640902
0.0641531
0.0642258
0.0643093
0.0644072
0.0645135
0.0646295
0.0647595
0.0649021
0.0650558
0.06522
0.0653944
0.0655737
0.0657567
0.0659452
0.0661383
0.0663337
0.0665295
0.0667239
0.0669154
0.0671028
0.0672849
0.0674608
0.0676299
0.0677919
0.067947
0.0680955
0.068238
0.0683753
0.0685083
0.0686378
0.0687647
0.0688897
0.0690136
0.0691368
0.0692598
0.0693828
0.069506
0.0696293
0.0697528
0.0698763
0.0699997
0.0701227
0.070245
0.0703665
0.0704869
0.0706059
0.0707233
0.070839
0.0709528
0.0710648
0.0711748
0.0712829
0.071389
0.0714933
0.0715957
0.0716962
0.0717949
0.0718918
0.0719868
0.0720799
0.0721712
0.0722605
0.0723479
0.0724332
0.0725164
0.0725975
0.0726764
0.0727531
0.0728276
0.0729001
0.0729705
0.0730389
0.0731051
0.0731692
0.0732312
0.073291
0.0733486
0.0734039
0.0734568
0.0735072
0.0735549
0.0735998
0.0736416
0.0736799
0.0737144
0.0737446
0.0737713
0.0737952
0.0738163
0.0738344
0.0738495
0.0738612
0.0738692
0.0738736
0.0738751
0.073874
0.07387
0.0738634
0.0738545
0.0738435
0.073831
0.0738173
0.0738034
0.0737897
0.0737733
0.0737536
0.0737306
0.0737046
0.0736758
0.0736447
0.0736119
0.0735782
0.0735425
0.0735036
0.0734616
0.0734166
0.0733684
0.0733171
0.0732624
0.073204
0.0731414
0.073074
0.0730027
0.0669296
0.0669857
0.0670507
0.0671253
0.0672114
0.0673096
0.067415
0.0675316
0.0676591
0.067796
0.0679414
0.0680948
0.0682561
0.0684215
0.0685886
0.0687585
0.0689304
0.0691021
0.0692718
0.0694381
0.0695996
0.0697554
0.0699045
0.0700465
0.0701812
0.0703087
0.0704292
0.0705436
0.0706524
0.0707565
0.0708568
0.070954
0.0710491
0.0711426
0.0712352
0.0713273
0.0714191
0.071511
0.0716029
0.0716949
0.0717868
0.0718784
0.0719695
0.0720598
0.072149
0.0722368
0.0723229
0.0724071
0.0724891
0.0725689
0.0726463
0.0727212
0.0727936
0.0728636
0.0729312
0.0729967
0.07306
0.0731212
0.0731803
0.0732373
0.0732923
0.0733451
0.0733957
0.0734441
0.0734901
0.0735336
0.0735745
0.0736123
0.073647
0.0736779
0.0737047
0.0737286
0.0737497
0.0737682
0.0737837
0.0737961
0.073805
0.0738106
0.0738134
0.0738136
0.0738112
0.0738062
0.0737989
0.0737895
0.0737784
0.073766
0.073753
0.0737404
0.0737262
0.073709
0.0736888
0.0736659
0.0736406
0.0736134
0.0735852
0.0735556
0.0735231
0.0734877
0.0734494
0.0734082
0.0733642
0.0733172
0.0732671
0.0732136
0.0731562
0.0730943
0.0730292
0.072961
0.0728899
0.0728157
0.0727382
0.0726573
0.0725726
0.0724836
0.0723908
0.0722945
0.0721948
0.0720915
0.0719844
0.0718735
0.0717587
0.07164
0.0715173
0.0713909
0.0712609
0.0692724
0.0693283
0.0693928
0.0694672
0.0695526
0.0696467
0.0697491
0.0698604
0.0699794
0.0701052
0.070237
0.0703743
0.0705162
0.0706615
0.0708063
0.0709506
0.071094
0.0712349
0.0713717
0.0715032
0.0716285
0.0717469
0.0718579
0.0719613
0.0720573
0.0721462
0.0722286
0.0723051
0.0723767
0.0724441
0.0725081
0.0725695
0.0726291
0.0726872
0.0727446
0.0728014
0.0728579
0.0729144
0.0729708
0.0730271
0.0730831
0.0731386
0.0731933
0.0732468
0.0732989
0.0733493
0.0733976
0.0734436
0.0734871
0.0735278
0.0735654
0.0735997
0.0736303
0.0736567
0.0736799
0.0737003
0.0737179
0.0737326
0.0737441
0.0737522
0.0737575
0.0737602
0.0737603
0.0737581
0.0737534
0.0737464
0.0737375
0.073727
0.0737154
0.0737033
0.0736915
0.0736777
0.0736611
0.0736418
0.0736202
0.0735968
0.0735725
0.0735466
0.0735181
0.0734869
0.0734529
0.0734163
0.073377
0.073335
0.0732902
0.0732425
0.0731913
0.0731361
0.0730775
0.0730162
0.072952
0.072885
0.072815
0.0727416
0.0726645
0.0725836
0.0724995
0.0724124
0.072322
0.0722282
0.072131
0.0720302
0.0719258
0.0718177
0.0717059
0.0715907
0.0714721
0.0713502
0.0712248
0.0710959
0.0709632
0.0708269
0.0706868
0.0705431
0.0703959
0.0702452
0.070091
0.0699332
0.0697719
0.0696071
0.0694387
0.0692669
0.0690917
0.0689131
0.0687311
0.0709826
0.0710278
0.0710807
0.0711421
0.0712128
0.0712925
0.0713794
0.0714734
0.0715735
0.0716787
0.0717883
0.0719016
0.0720178
0.0721358
0.0722544
0.0723713
0.0724861
0.0725963
0.0727016
0.0728012
0.072894
0.0729793
0.0730568
0.0731265
0.0731885
0.0732432
0.0732912
0.0733332
0.0733701
0.0734026
0.0734316
0.0734578
0.073482
0.0735047
0.0735262
0.0735468
0.0735664
0.0735847
0.0736018
0.0736185
0.0736344
0.0736491
0.073662
0.0736728
0.0736818
0.0736886
0.0736931
0.0736951
0.0736947
0.0736917
0.0736864
0.0736789
0.0736699
0.07366
0.07365
0.0736384
0.0736239
0.0736068
0.0735877
0.073567
0.0735454
0.0735216
0.0734951
0.0734661
0.0734345
0.0734004
0.0733639
0.0733248
0.0732831
0.0732385
0.0731908
0.0731392
0.0730848
0.0730278
0.0729682
0.0729058
0.0728404
0.0727715
0.0726991
0.0726239
0.0725458
0.0724648
0.0723806
0.0722933
0.0722028
0.0721089
0.0720116
0.0719108
0.0718067
0.0716995
0.0715892
0.0714756
0.0713587
0.0712384
0.0711147
0.0709875
0.070857
0.0707233
0.0705862
0.0704458
0.0703021
0.070155
0.0700044
0.0698505
0.0696933
0.0695328
0.069369
0.0692018
0.0690314
0.0688576
0.0686805
0.0685002
0.0683166
0.0681299
0.06794
0.067747
0.067551
0.0673519
0.0671499
0.0669449
0.066737
0.0665262
0.0663126
0.0660963
0.0658773
0.0656557
0.0721592
0.0721989
0.0722459
0.0723007
0.0723634
0.0724328
0.0725079
0.0725877
0.0726712
0.0727577
0.0728462
0.072936
0.0730263
0.0731161
0.073204
0.0732886
0.0733689
0.0734438
0.0735114
0.0735712
0.0736231
0.0736658
0.0736991
0.0737239
0.073741
0.0737508
0.0737539
0.0737512
0.0737427
0.0737301
0.0737148
0.0736973
0.0736786
0.0736593
0.0736401
0.0736216
0.0736043
0.073589
0.0735753
0.0735613
0.0735465
0.0735314
0.0735161
0.0735001
0.0734821
0.0734617
0.0734389
0.0734134
0.0733853
0.0733545
0.073321
0.0732846
0.0732454
0.0732029
0.0731568
0.0731075
0.0730557
0.0730013
0.0729441
0.0728839
0.0728203
0.0727539
0.0726848
0.072613
0.0725384
0.0724609
0.0723805
0.0722971
0.0722105
0.0721208
0.0720278
0.0719318
0.0718329
0.071731
0.071626
0.0715179
0.0714066
0.0712921
0.0711746
0.071054
0.0709303
0.0708036
0.0706736
0.0705405
0.0704042
0.0702647
0.070122
0.0699762
0.0698272
0.0696752
0.0695199
0.0693615
0.0692
0.0690353
0.0688675
0.0686966
0.0685226
0.0683456
0.0681656
0.0679825
0.0677964
0.0676073
0.0674153
0.0672203
0.0670225
0.0668218
0.0666183
0.0664121
0.066203
0.0659913
0.065777
0.0655602
0.0653408
0.065119
0.0648948
0.0646683
0.0644396
0.0642087
0.0639757
0.0637407
0.0635038
0.063265
0.0630245
0.0627823
0.0625385
0.0622933
0.0620468
0.061799
0.0727793
0.0728108
0.0728488
0.072893
0.0729428
0.0729968
0.073054
0.0731133
0.0731739
0.0732348
0.0732953
0.0733546
0.0734117
0.0734656
0.0735154
0.0735598
0.073598
0.0736295
0.0736533
0.0736699
0.0736789
0.0736817
0.0736796
0.0736701
0.0736529
0.0736292
0.0736006
0.0735686
0.0735341
0.0734966
0.0734566
0.0734152
0.0733728
0.0733298
0.0732864
0.0732428
0.0731988
0.0731538
0.0731076
0.0730607
0.0730127
0.0729631
0.0729112
0.0728566
0.0727998
0.0727404
0.0726782
0.0726131
0.072545
0.0724738
0.0723995
0.0723218
0.072241
0.0721568
0.0720695
0.0719793
0.0718863
0.0717902
0.0716912
0.0715891
0.0714841
0.0713763
0.0712656
0.0711521
0.0710356
0.0709162
0.0707938
0.0706684
0.0705399
0.0704085
0.0702742
0.0701369
0.0699966
0.0698534
0.0697071
0.0695579
0.0694057
0.0692506
0.0690925
0.0689314
0.0687674
0.0686005
0.0684306
0.0682578
0.0680821
0.0679036
0.0677222
0.0675379
0.0673509
0.067161
0.0669684
0.0667731
0.0665751
0.0663744
0.0661711
0.0659652
0.0657568
0.0655458
0.0653324
0.0651166
0.0648984
0.0646779
0.0644552
0.0642303
0.0640033
0.0637742
0.0635431
0.0633102
0.0630754
0.0628389
0.0626007
0.062361
0.0621199
0.0618774
0.0616336
0.0613886
0.0611426
0.0608957
0.0606479
0.0603994
0.0601503
0.0599008
0.0596509
0.0594008
0.0591507
0.0589007
0.058651
0.0584017
0.0728375
0.0728578
0.0728836
0.0729145
0.0729501
0.0729893
0.0730307
0.0730731
0.0731152
0.0731563
0.0731955
0.073232
0.0732651
0.0732937
0.073317
0.0733342
0.0733444
0.0733469
0.0733421
0.0733288
0.0733068
0.0732764
0.0732375
0.0731914
0.0731389
0.0730809
0.073018
0.0729506
0.0728794
0.0728058
0.0727305
0.0726542
0.072577
0.0724991
0.0724207
0.0723416
0.0722617
0.0721808
0.0720988
0.0720153
0.0719301
0.0718427
0.071753
0.0716607
0.0715657
0.0714679
0.0713671
0.0712632
0.0711561
0.0710459
0.0709326
0.0708161
0.0706966
0.0705741
0.0704487
0.0703204
0.0701891
0.070055
0.0699181
0.0697783
0.0696358
0.0694904
0.0693422
0.0691912
0.0690374
0.0688808
0.0687214
0.0685592
0.0683942
0.0682265
0.0680561
0.0678829
0.067707
0.0675284
0.0673471
0.0671631
0.0669766
0.0667873
0.0665955
0.0664011