/*--------------------------------*- C++ -*----------------------------------*\
| =========                 |                                                 |
| \\      /  F ield         | OpenFOAM: The Open Source CFD Toolbox           |
|  \\    /   O peration     | Version:  v1706                                 |
|   \\  /    A nd           | Web:      www.OpenFOAM.com                      |
|    \\/     M anipulation  |                                                 |
\*---------------------------------------------------------------------------*/
FoamFile
{
    version     2.0;
    format      ascii;
    class       volScalarField;
    location    "3e-06";
    object      kappave;
}
// * * * * * * * * * * * * * * * * * * * * * * * * * * * * * * * * * * * * * //

dimensions      [1 1 -3 -1 0 0 0];


internalField   nonuniform List<scalar> 
29871
(
1.46038e-10
1.46038e-10
1.46038e-10
1.46038e-10
1.46038e-10
1.46038e-10
1.46038e-10
1.46038e-10
1.46038e-10
1.46038e-10
1.46038e-10
1.46038e-10
1.46038e-10
1.46038e-10
1.46038e-10
1.46038e-10
1.46038e-10
1.46038e-10
1.46038e-10
1.46038e-10
1.46038e-10
1.46038e-10
1.46038e-10
1.46038e-10
1.46038e-10
1.46038e-10
1.46038e-10
1.46038e-10
1.46038e-10
1.46038e-10
1.46038e-10
1.46038e-10
1.46038e-10
1.46038e-10
1.46038e-10
1.46038e-10
1.46038e-10
1.46038e-10
1.46038e-10
1.46038e-10
1.46038e-10
1.46038e-10
1.46038e-10
1.46038e-10
1.46038e-10
1.46038e-10
1.46038e-10
1.46038e-10
1.46038e-10
1.46038e-10
1.46038e-10
1.46038e-10
1.46038e-10
1.46038e-10
1.46038e-10
1.46038e-10
1.46038e-10
1.46038e-10
1.46038e-10
1.46038e-10
1.46038e-10
1.46038e-10
1.46038e-10
1.46038e-10
1.46038e-10
1.46038e-10
1.46038e-10
1.46038e-10
1.46038e-10
1.46038e-10
1.46038e-10
1.46038e-10
1.46038e-10
1.46038e-10
1.46038e-10
1.46038e-10
1.46038e-10
1.46038e-10
1.46038e-10
1.46038e-10
1.46038e-10
1.46038e-10
1.46038e-10
1.46038e-10
1.46038e-10
1.46038e-10
1.46038e-10
1.46038e-10
1.46038e-10
1.46038e-10
1.46038e-10
1.46038e-10
1.46038e-10
1.46038e-10
1.46038e-10
1.46038e-10
1.46038e-10
1.46038e-10
1.46038e-10
1.46038e-10
1.46038e-10
1.46038e-10
1.46038e-10
1.46038e-10
1.46038e-10
1.46038e-10
1.46038e-10
1.46038e-10
1.46038e-10
1.46038e-10
1.46038e-10
1.46038e-10
1.46038e-10
1.46038e-10
1.46038e-10
1.46038e-10
1.46038e-10
1.46038e-10
1.46038e-10
1.46038e-10
1.46038e-10
1.46038e-10
1.46038e-10
1.46038e-10
1.46038e-10
1.46038e-10
1.46038e-10
1.46038e-10
1.46038e-10
1.46038e-10
1.46038e-10
1.46038e-10
1.46038e-10
1.46038e-10
1.46038e-10
1.46038e-10
1.46038e-10
1.46038e-10
1.46038e-10
1.46038e-10
1.46038e-10
1.46038e-10
1.46038e-10
1.46038e-10
1.46038e-10
1.46038e-10
1.46038e-10
1.46038e-10
1.46038e-10
1.46038e-10
1.46038e-10
1.46038e-10
1.46038e-10
1.46038e-10
1.46038e-10
1.46038e-10
1.46038e-10
1.46038e-10
1.46038e-10
1.46038e-10
1.46038e-10
1.46038e-10
1.46038e-10
1.46038e-10
1.46038e-10
1.46038e-10
1.46038e-10
1.46038e-10
1.46038e-10
1.46038e-10
1.46038e-10
1.46038e-10
1.46038e-10
1.46038e-10
1.46038e-10
1.46038e-10
1.46038e-10
1.46038e-10
1.46038e-10
1.46038e-10
1.46038e-10
1.46038e-10
1.46038e-10
1.46038e-10
1.46038e-10
1.46038e-10
1.46038e-10
1.46038e-10
1.46039e-10
1.46039e-10
1.46039e-10
1.46039e-10
1.46039e-10
1.46039e-10
1.46039e-10
1.46039e-10
1.46039e-10
1.46039e-10
1.46039e-10
1.46039e-10
1.46039e-10
1.46039e-10
1.46039e-10
1.46039e-10
1.46039e-10
1.46039e-10
1.46039e-10
1.46039e-10
1.46039e-10
1.46039e-10
1.46038e-10
1.46038e-10
1.46038e-10
1.46038e-10
1.46038e-10
1.46038e-10
1.46038e-10
1.46038e-10
1.46038e-10
1.46038e-10
1.46038e-10
1.46038e-10
1.46038e-10
1.46038e-10
1.46038e-10
1.46038e-10
1.46038e-10
1.46038e-10
1.46038e-10
1.46038e-10
1.46038e-10
1.46039e-10
1.46039e-10
1.46039e-10
1.46039e-10
1.46039e-10
1.46039e-10
1.46039e-10
1.46039e-10
1.46039e-10
1.46039e-10
1.46039e-10
1.46039e-10
1.46039e-10
1.46039e-10
1.46039e-10
1.46039e-10
1.46039e-10
1.46039e-10
1.46039e-10
1.46039e-10
1.46039e-10
1.46039e-10
1.46039e-10
1.46039e-10
1.46039e-10
1.46039e-10
1.4604e-10
1.4604e-10
1.4604e-10
1.4604e-10
1.4604e-10
1.4604e-10
1.4604e-10
1.4604e-10
1.4604e-10
1.4604e-10
1.4604e-10
1.4604e-10
1.4604e-10
1.4604e-10
1.46041e-10
1.46041e-10
1.46041e-10
1.46041e-10
1.46041e-10
1.46041e-10
1.46041e-10
1.46041e-10
1.46041e-10
1.46042e-10
1.46042e-10
1.46042e-10
1.46042e-10
1.46042e-10
1.46042e-10
1.46042e-10
1.46042e-10
1.46043e-10
1.46043e-10
1.46043e-10
1.46043e-10
1.46043e-10
1.46044e-10
1.46044e-10
1.46044e-10
1.46044e-10
1.46044e-10
1.46045e-10
1.46045e-10
1.46045e-10
1.46045e-10
1.46046e-10
1.46046e-10
1.46046e-10
1.46046e-10
1.46047e-10
1.46047e-10
1.46047e-10
1.46048e-10
1.46048e-10
1.46048e-10
1.46049e-10
1.46049e-10
1.4605e-10
1.4605e-10
1.4604e-10
1.4604e-10
1.4604e-10
1.4604e-10
1.4604e-10
1.4604e-10
1.4604e-10
1.4604e-10
1.4604e-10
1.4604e-10
1.46041e-10
1.46041e-10
1.46041e-10
1.46041e-10
1.46041e-10
1.46041e-10
1.46042e-10
1.46042e-10
1.46042e-10
1.46042e-10
1.46042e-10
1.46042e-10
1.46043e-10
1.46043e-10
1.46043e-10
1.46043e-10
1.46043e-10
1.46044e-10
1.46044e-10
1.46044e-10
1.46044e-10
1.46044e-10
1.46045e-10
1.46045e-10
1.46045e-10
1.46045e-10
1.46046e-10
1.46046e-10
1.46046e-10
1.46046e-10
1.46047e-10
1.46047e-10
1.46047e-10
1.46048e-10
1.46048e-10
1.46048e-10
1.46049e-10
1.46049e-10
1.46049e-10
1.4605e-10
1.4605e-10
1.4605e-10
1.46051e-10
1.46051e-10
1.46052e-10
1.46052e-10
1.46053e-10
1.46053e-10
1.46054e-10
1.46054e-10
1.46055e-10
1.46056e-10
1.46056e-10
1.46057e-10
1.46058e-10
1.46058e-10
1.46059e-10
1.4606e-10
1.4606e-10
1.46061e-10
1.46062e-10
1.46063e-10
1.46064e-10
1.46065e-10
1.46066e-10
1.46067e-10
1.46068e-10
1.46069e-10
1.4607e-10
1.46071e-10
1.46072e-10
1.46073e-10
1.46075e-10
1.46076e-10
1.46077e-10
1.46079e-10
1.4608e-10
1.46082e-10
1.46084e-10
1.46085e-10
1.46087e-10
1.46089e-10
1.46091e-10
1.46093e-10
1.46095e-10
1.46097e-10
1.46099e-10
1.46101e-10
1.46104e-10
1.46106e-10
1.46109e-10
1.46112e-10
1.46115e-10
1.46118e-10
1.46121e-10
1.46124e-10
1.46048e-10
1.46048e-10
1.46048e-10
1.46049e-10
1.46049e-10
1.4605e-10
1.4605e-10
1.46051e-10
1.46051e-10
1.46052e-10
1.46053e-10
1.46054e-10
1.46054e-10
1.46055e-10
1.46056e-10
1.46057e-10
1.46058e-10
1.46059e-10
1.4606e-10
1.46061e-10
1.46062e-10
1.46063e-10
1.46064e-10
1.46065e-10
1.46066e-10
1.46067e-10
1.46068e-10
1.46069e-10
1.4607e-10
1.46072e-10
1.46073e-10
1.46074e-10
1.46075e-10
1.46077e-10
1.46078e-10
1.4608e-10
1.46081e-10
1.46083e-10
1.46084e-10
1.46086e-10
1.46088e-10
1.46089e-10
1.46091e-10
1.46093e-10
1.46095e-10
1.46097e-10
1.46099e-10
1.46101e-10
1.46104e-10
1.46106e-10
1.46109e-10
1.46111e-10
1.46114e-10
1.46117e-10
1.46119e-10
1.46122e-10
1.46126e-10
1.46129e-10
1.46132e-10
1.46136e-10
1.46139e-10
1.46143e-10
1.46147e-10
1.46151e-10
1.46155e-10
1.4616e-10
1.46165e-10
1.46169e-10
1.46174e-10
1.4618e-10
1.46185e-10
1.46191e-10
1.46197e-10
1.46203e-10
1.46209e-10
1.46216e-10
1.46223e-10
1.4623e-10
1.46238e-10
1.46246e-10
1.46254e-10
1.46262e-10
1.46271e-10
1.4628e-10
1.4629e-10
1.463e-10
1.4631e-10
1.46321e-10
1.46332e-10
1.46344e-10
1.46356e-10
1.46369e-10
1.46382e-10
1.46396e-10
1.4641e-10
1.46425e-10
1.46441e-10
1.46457e-10
1.46474e-10
1.46492e-10
1.4651e-10
1.46529e-10
1.4655e-10
1.46571e-10
1.46593e-10
1.46616e-10
1.4664e-10
1.46089e-10
1.46091e-10
1.46093e-10
1.46095e-10
1.46097e-10
1.461e-10
1.46103e-10
1.46106e-10
1.4611e-10
1.46114e-10
1.46118e-10
1.46123e-10
1.46127e-10
1.46132e-10
1.46137e-10
1.46142e-10
1.46148e-10
1.46153e-10
1.46158e-10
1.46164e-10
1.4617e-10
1.46175e-10
1.46181e-10
1.46187e-10
1.46194e-10
1.462e-10
1.46207e-10
1.46214e-10
1.46221e-10
1.46228e-10
1.46236e-10
1.46243e-10
1.46251e-10
1.4626e-10
1.46268e-10
1.46277e-10
1.46286e-10
1.46296e-10
1.46306e-10
1.46316e-10
1.46327e-10
1.46338e-10
1.46349e-10
1.46362e-10
1.46374e-10
1.46387e-10
1.46401e-10
1.46415e-10
1.4643e-10
1.46445e-10
1.46461e-10
1.46478e-10
1.46495e-10
1.46513e-10
1.46532e-10
1.46551e-10
1.46572e-10
1.46593e-10
1.46615e-10
1.46638e-10
1.46662e-10
1.46687e-10
1.46713e-10
1.4674e-10
1.46769e-10
1.46798e-10
1.46829e-10
1.46861e-10
1.46895e-10
1.4693e-10
1.46967e-10
1.47005e-10
1.47045e-10
1.47087e-10
1.47131e-10
1.47177e-10
1.47225e-10
1.47275e-10
1.47327e-10
1.47382e-10
1.47439e-10
1.47499e-10
1.47561e-10
1.47627e-10
1.47695e-10
1.47766e-10
1.47841e-10
1.47919e-10
1.48e-10
1.48085e-10
1.48174e-10
1.48266e-10
1.48363e-10
1.48464e-10
1.48569e-10
1.4868e-10
1.48795e-10
1.48915e-10
1.49041e-10
1.49173e-10
1.4931e-10
1.49454e-10
1.49605e-10
1.49763e-10
1.49928e-10
1.50101e-10
1.50284e-10
1.46286e-10
1.46289e-10
1.46294e-10
1.46301e-10
1.4631e-10
1.46321e-10
1.46333e-10
1.46348e-10
1.46364e-10
1.46381e-10
1.46401e-10
1.46422e-10
1.46445e-10
1.46469e-10
1.46495e-10
1.46522e-10
1.46549e-10
1.46578e-10
1.46608e-10
1.46639e-10
1.4667e-10
1.46702e-10
1.46735e-10
1.46768e-10
1.46802e-10
1.46838e-10
1.46874e-10
1.46911e-10
1.4695e-10
1.4699e-10
1.47031e-10
1.47073e-10
1.47117e-10
1.47163e-10
1.4721e-10
1.47258e-10
1.47309e-10
1.47362e-10
1.47416e-10
1.47473e-10
1.47532e-10
1.47593e-10
1.47657e-10
1.47724e-10
1.47794e-10
1.47867e-10
1.47943e-10
1.48022e-10
1.48105e-10
1.48192e-10
1.48283e-10
1.48377e-10
1.48476e-10
1.4858e-10
1.48687e-10
1.488e-10
1.48918e-10
1.49041e-10
1.49169e-10
1.49303e-10
1.49444e-10
1.4959e-10
1.49743e-10
1.49902e-10
1.50069e-10
1.50243e-10
1.50425e-10
1.50616e-10
1.50815e-10
1.51023e-10
1.51241e-10
1.51469e-10
1.51708e-10
1.51958e-10
1.5222e-10
1.52495e-10
1.52784e-10
1.53086e-10
1.53404e-10
1.53737e-10
1.54088e-10
1.54456e-10
1.54842e-10
1.55248e-10
1.55675e-10
1.56124e-10
1.56595e-10
1.5709e-10
1.57611e-10
1.58157e-10
1.58732e-10
1.59334e-10
1.59967e-10
1.60631e-10
1.61328e-10
1.62058e-10
1.62823e-10
1.63625e-10
1.64464e-10
1.65343e-10
1.66263e-10
1.67226e-10
1.68233e-10
1.69287e-10
1.70388e-10
1.71541e-10
1.72746e-10
1.74008e-10
1.75328e-10
1.76718e-10
1.47295e-10
1.47319e-10
1.47353e-10
1.47397e-10
1.4745e-10
1.47513e-10
1.47586e-10
1.47669e-10
1.47762e-10
1.47864e-10
1.47976e-10
1.48098e-10
1.48228e-10
1.48368e-10
1.48515e-10
1.4867e-10
1.48831e-10
1.48998e-10
1.49171e-10
1.49349e-10
1.49531e-10
1.49718e-10
1.4991e-10
1.50107e-10
1.5031e-10
1.50519e-10
1.50735e-10
1.50958e-10
1.5119e-10
1.5143e-10
1.51679e-10
1.51937e-10
1.52205e-10
1.52482e-10
1.52771e-10
1.5307e-10
1.53382e-10
1.53706e-10
1.54043e-10
1.54395e-10
1.54762e-10
1.55145e-10
1.55546e-10
1.55966e-10
1.56405e-10
1.56865e-10
1.57348e-10
1.57854e-10
1.58385e-10
1.58943e-10
1.59527e-10
1.60141e-10
1.60785e-10
1.61461e-10
1.6217e-10
1.62913e-10
1.63694e-10
1.64512e-10
1.6537e-10
1.66269e-10
1.67211e-10
1.68199e-10
1.69233e-10
1.70316e-10
1.71449e-10
1.72636e-10
1.73878e-10
1.75177e-10
1.76537e-10
1.77959e-10
1.79447e-10
1.81005e-10
1.82635e-10
1.84341e-10
1.86128e-10
1.88001e-10
1.89963e-10
1.92022e-10
1.94182e-10
1.9645e-10
1.98834e-10
2.01341e-10
2.0398e-10
2.06758e-10
2.09686e-10
2.12773e-10
2.16029e-10
2.19466e-10
2.23096e-10
2.2693e-10
2.3098e-10
2.3526e-10
2.39783e-10
2.44561e-10
2.49608e-10
2.54938e-10
2.60564e-10
2.665e-10
2.72757e-10
2.79351e-10
2.86292e-10
2.93593e-10
3.01266e-10
3.09324e-10
3.17776e-10
3.26634e-10
3.35911e-10
3.45618e-10
3.55765e-10
3.6641e-10
1.52426e-10
1.5259e-10
1.52805e-10
1.53072e-10
1.53391e-10
1.53762e-10
1.54187e-10
1.54667e-10
1.55201e-10
1.55791e-10
1.56436e-10
1.57135e-10
1.57886e-10
1.58688e-10
1.59536e-10
1.60428e-10
1.6136e-10
1.62329e-10
1.63331e-10
1.64365e-10
1.65429e-10
1.66525e-10
1.67655e-10
1.6882e-10
1.70024e-10
1.7127e-10
1.72563e-10
1.73905e-10
1.75302e-10
1.76754e-10
1.78264e-10
1.79836e-10
1.81469e-10
1.83167e-10
1.84933e-10
1.86768e-10
1.88677e-10
1.90664e-10
1.92734e-10
1.94891e-10
1.97142e-10
1.99493e-10
2.01951e-10
2.04523e-10
2.07216e-10
2.1004e-10
2.13002e-10
2.1611e-10
2.19376e-10
2.22807e-10
2.26415e-10
2.30211e-10
2.34205e-10
2.38411e-10
2.42839e-10
2.47505e-10
2.52419e-10
2.57598e-10
2.63054e-10
2.68802e-10
2.74856e-10
2.81232e-10
2.87944e-10
2.95007e-10
3.02435e-10
3.10243e-10
3.18446e-10
3.27058e-10
3.36092e-10
3.45564e-10
3.55488e-10
3.65876e-10
3.76745e-10
3.8811e-10
3.99986e-10
4.12393e-10
4.2535e-10
4.38879e-10
4.53006e-10
4.6776e-10
4.83173e-10
4.99281e-10
5.16125e-10
5.33751e-10
5.52209e-10
5.71557e-10
5.91859e-10
6.13184e-10
6.35612e-10
6.59227e-10
6.84121e-10
7.10393e-10
7.3815e-10
7.67504e-10
7.98573e-10
8.31483e-10
8.6636e-10
9.03336e-10
9.42542e-10
9.8411e-10
1.02817e-09
1.07485e-09
1.12426e-09
1.17651e-09
1.23171e-09
1.28992e-09
1.35123e-09
1.41568e-09
1.48329e-09
1.55421e-09
1.78467e-10
1.79489e-10
1.8078e-10
1.82347e-10
1.84195e-10
1.8633e-10
1.88756e-10
1.91479e-10
1.94503e-10
1.97831e-10
2.01461e-10
2.05387e-10
2.09599e-10
2.14081e-10
2.18817e-10
2.23786e-10
2.2897e-10
2.34349e-10
2.3991e-10
2.45643e-10
2.51549e-10
2.57634e-10
2.63913e-10
2.70405e-10
2.77134e-10
2.84124e-10
2.91402e-10
2.98993e-10
3.0692e-10
3.15202e-10
3.23853e-10
3.32885e-10
3.4231e-10
3.52136e-10
3.62376e-10
3.73041e-10
3.84148e-10
3.95711e-10
4.07751e-10
4.20289e-10
4.33348e-10
4.46953e-10
4.61131e-10
4.75911e-10
4.91323e-10
5.07398e-10
5.24173e-10
5.41683e-10
5.59969e-10
5.79077e-10
5.99054e-10
6.19953e-10
6.41833e-10
6.64757e-10
6.88794e-10
7.14019e-10
7.40515e-10
7.68368e-10
7.9767e-10
8.2852e-10
8.61018e-10
8.95272e-10
9.31392e-10
9.69487e-10
1.00967e-09
1.05205e-09
1.09674e-09
1.14383e-09
1.19343e-09
1.24562e-09
1.30049e-09
1.35809e-09
1.41848e-09
1.48169e-09
1.54775e-09
1.61667e-09
1.68843e-09
1.76302e-09
1.8404e-09
1.92054e-09
2.00339e-09
2.08892e-09
2.17711e-09
2.26789e-09
2.36123e-09
2.45706e-09
2.55532e-09
2.65599e-09
2.75904e-09
2.86445e-09
2.97223e-09
3.08239e-09
3.19498e-09
3.31004e-09
3.42767e-09
3.54794e-09
3.67099e-09
3.79695e-09
3.92595e-09
4.05817e-09
4.19376e-09
4.33291e-09
4.4758e-09
4.62261e-09
4.77354e-09
4.92878e-09
5.08853e-09
5.253e-09
5.42239e-09
5.59715e-09
3.04012e-10
3.09768e-10
3.16866e-10
3.25349e-10
3.35257e-10
3.46621e-10
3.5947e-10
3.73831e-10
3.89728e-10
4.07168e-10
4.26127e-10
4.46547e-10
4.68342e-10
4.91404e-10
5.15603e-10
5.40801e-10
5.6686e-10
5.93655e-10
6.21091e-10
6.49105e-10
6.77688e-10
7.06888e-10
7.36789e-10
7.67495e-10
7.99139e-10
8.31875e-10
8.65859e-10
9.01241e-10
9.38157e-10
9.76724e-10
1.01704e-09
1.05919e-09
1.10323e-09
1.14923e-09
1.19726e-09
1.24737e-09
1.29963e-09
1.35409e-09
1.41083e-09
1.46988e-09
1.53132e-09
1.59517e-09
1.66149e-09
1.73028e-09
1.80156e-09
1.87531e-09
1.95153e-09
2.03018e-09
2.11123e-09
2.19465e-09
2.28044e-09
2.36855e-09
2.45895e-09
2.55159e-09
2.64644e-09
2.74347e-09
2.84266e-09
2.94402e-09
3.04757e-09
3.15333e-09
3.26135e-09
3.37168e-09
3.48442e-09
3.59965e-09
3.71749e-09
3.83805e-09
3.96149e-09
4.08793e-09
4.21753e-09
4.35045e-09
4.48685e-09
4.6269e-09
4.77078e-09
4.91865e-09
5.07071e-09
5.22716e-09
5.3882e-09
5.55406e-09
5.72491e-09
5.90093e-09
6.08269e-09
6.27391e-09
6.47049e-09
6.67205e-09
6.87879e-09
7.09086e-09
7.30841e-09
7.5316e-09
7.76064e-09
7.99545e-09
8.23606e-09
8.48264e-09
8.73531e-09
8.99427e-09
9.25973e-09
9.53186e-09
9.81088e-09
1.0097e-08
1.03904e-08
1.06914e-08
1.10003e-08
1.13172e-08
1.16426e-08
1.19766e-08
1.23196e-08
1.26718e-08
1.30337e-08
1.34056e-08
1.37878e-08
1.4181e-08
8.16158e-10
8.37257e-10
8.63607e-10
8.95414e-10
9.32773e-10
9.7582e-10
1.02471e-09
1.07953e-09
1.14034e-09
1.20715e-09
1.27995e-09
1.35858e-09
1.44273e-09
1.53194e-09
1.62565e-09
1.72316e-09
1.82368e-09
1.92635e-09
2.03039e-09
2.13508e-09
2.2398e-09
2.34424e-09
2.44844e-09
2.55242e-09
2.65619e-09
2.75997e-09
2.8642e-09
2.96927e-09
3.07543e-09
3.18291e-09
3.2919e-09
3.40256e-09
3.515e-09
3.62932e-09
3.74562e-09
3.86401e-09
3.98461e-09
4.10758e-09
4.23307e-09
4.36126e-09
4.49235e-09
4.62653e-09
4.76402e-09
4.90506e-09
5.04986e-09
5.19864e-09
5.35164e-09
5.50904e-09
5.67099e-09
5.83773e-09
6.0119e-09
6.19176e-09
6.37603e-09
6.56486e-09
6.75835e-09
6.95663e-09
7.15983e-09
7.3681e-09
7.58161e-09
7.80033e-09
8.02429e-09
8.25361e-09
8.48846e-09
8.72901e-09
8.97541e-09
9.22787e-09
9.48657e-09
9.75174e-09
1.00236e-08
1.03023e-08
1.05882e-08
1.08815e-08
1.11825e-08
1.14913e-08
1.18084e-08
1.2134e-08
1.24684e-08
1.28119e-08
1.31648e-08
1.35273e-08
1.38997e-08
1.42822e-08
1.46749e-08
1.50758e-08
1.54853e-08
1.59034e-08
1.63304e-08
1.67662e-08
1.72108e-08
1.76644e-08
1.8128e-08
1.86025e-08
1.90882e-08
1.95852e-08
2.00939e-08
2.06147e-08
2.11478e-08
2.16936e-08
2.22524e-08
2.28245e-08
2.34103e-08
2.40101e-08
2.46242e-08
2.5253e-08
2.58966e-08
2.65554e-08
2.72296e-08
2.79194e-08
2.86251e-08
2.93466e-08
3.00846e-08
2.51306e-09
2.58049e-09
2.66203e-09
2.75692e-09
2.86448e-09
2.9845e-09
3.11713e-09
3.262e-09
3.41801e-09
3.58394e-09
3.75876e-09
3.94138e-09
4.13054e-09
4.32502e-09
4.52364e-09
4.72529e-09
4.9289e-09
5.13354e-09
5.33837e-09
5.54269e-09
5.74603e-09
5.9506e-09
6.15505e-09
6.35826e-09
6.56086e-09
6.76375e-09
6.96799e-09
7.17456e-09
7.38427e-09
7.59772e-09
7.81519e-09
8.0369e-09
8.26307e-09
8.49384e-09
8.72932e-09
8.96967e-09
9.21505e-09
9.46566e-09
9.72173e-09
9.98351e-09
1.02513e-08
1.05254e-08
1.08061e-08
1.10939e-08
1.13889e-08
1.16916e-08
1.20022e-08
1.23209e-08
1.26479e-08
1.29835e-08
1.33278e-08
1.36795e-08
1.40385e-08
1.44051e-08
1.47793e-08
1.51614e-08
1.55513e-08
1.59492e-08
1.6355e-08
1.67696e-08
1.71937e-08
1.76275e-08
1.80713e-08
1.85253e-08
1.89898e-08
1.94651e-08
1.99515e-08
2.04493e-08
2.09588e-08
2.14802e-08
2.20138e-08
2.25598e-08
2.31185e-08
2.36901e-08
2.42747e-08
2.48725e-08
2.54837e-08
2.61082e-08
2.67463e-08
2.73978e-08
2.80629e-08
2.87415e-08
2.94338e-08
3.01403e-08
3.08615e-08
3.15979e-08
3.235e-08
3.31185e-08
3.3904e-08
3.47075e-08
3.55284e-08
3.63666e-08
3.72226e-08
3.80967e-08
3.89895e-08
3.99011e-08
4.08321e-08
4.17827e-08
4.27533e-08
4.37442e-08
4.47556e-08
4.57877e-08
4.68409e-08
4.79153e-08
4.90111e-08
5.01284e-08
5.12674e-08
5.24283e-08
5.36113e-08
5.48168e-08
5.60441e-08
5.72953e-08
5.85716e-08
5.82589e-09
5.97293e-09
6.14429e-09
6.33945e-09
6.56024e-09
6.80606e-09
7.07523e-09
7.36664e-09
7.67852e-09
8.00864e-09
8.35491e-09
8.71528e-09
9.08772e-09
9.46993e-09
9.85939e-09
1.02536e-08
1.06503e-08
1.10472e-08
1.14426e-08
1.18349e-08
1.22232e-08
1.26072e-08
1.2986e-08
1.33604e-08
1.37325e-08
1.41043e-08
1.44776e-08
1.4854e-08
1.52349e-08
1.56211e-08
1.60144e-08
1.64154e-08
1.68244e-08
1.72416e-08
1.76673e-08
1.81016e-08
1.85448e-08
1.8997e-08
1.94586e-08
1.99298e-08
2.04109e-08
2.09023e-08
2.14041e-08
2.19167e-08
2.24403e-08
2.2975e-08
2.3521e-08
2.40782e-08
2.46469e-08
2.5227e-08
2.58184e-08
2.64217e-08
2.70372e-08
2.76653e-08
2.83064e-08
2.89609e-08
2.96294e-08
3.03125e-08
3.10107e-08
3.1724e-08
3.24521e-08
3.31953e-08
3.39541e-08
3.47287e-08
3.55195e-08
3.63266e-08
3.71505e-08
3.79912e-08
3.88491e-08
3.97244e-08
4.06173e-08
4.15278e-08
4.24562e-08
4.34026e-08
4.43672e-08
4.535e-08
4.63514e-08
4.73715e-08
4.84107e-08
4.94693e-08
5.05478e-08
5.16466e-08
5.27665e-08
5.3908e-08
5.50717e-08
5.62579e-08
5.7467e-08
5.86993e-08
5.99549e-08
6.1234e-08
6.25365e-08
6.38626e-08
6.52128e-08
6.65871e-08
6.79858e-08
6.94091e-08
7.08572e-08
7.23302e-08
7.38284e-08
7.53518e-08
7.69006e-08
7.84749e-08
8.00749e-08
8.17006e-08
8.33523e-08
8.503e-08
8.6734e-08
8.84646e-08
9.02219e-08
9.20063e-08
9.38179e-08
9.5657e-08
9.75249e-08
1.13988e-08
1.16044e-08
1.18486e-08
1.21338e-08
1.24582e-08
1.28244e-08
1.32335e-08
1.36841e-08
1.41737e-08
1.46984e-08
1.52553e-08
1.58412e-08
1.64525e-08
1.70855e-08
1.77363e-08
1.84007e-08
1.9074e-08
1.97512e-08
2.04279e-08
2.10998e-08
2.17636e-08
2.24169e-08
2.30588e-08
2.36895e-08
2.43109e-08
2.49258e-08
2.55372e-08
2.61487e-08
2.67638e-08
2.73856e-08
2.80164e-08
2.86582e-08
2.93114e-08
2.99764e-08
3.06538e-08
3.13436e-08
3.20463e-08
3.27618e-08
3.34905e-08
3.42324e-08
3.49879e-08
3.57572e-08
3.65406e-08
3.73382e-08
3.81505e-08
3.89777e-08
3.982e-08
4.06778e-08
4.15512e-08
4.24407e-08
4.33466e-08
4.42691e-08
4.5209e-08
4.61668e-08
4.7143e-08
4.81379e-08
4.91518e-08
5.01852e-08
5.12382e-08
5.2311e-08
5.34037e-08
5.45164e-08
5.56491e-08
5.68021e-08
5.79756e-08
5.91698e-08
6.03848e-08
6.16209e-08
6.28783e-08
6.41571e-08
6.54574e-08
6.67795e-08
6.81236e-08
6.94897e-08
7.08782e-08
7.22892e-08
7.3723e-08
7.51799e-08
7.66603e-08
7.81644e-08
7.96926e-08
8.12453e-08
8.28228e-08
8.44253e-08
8.6053e-08
8.77061e-08
8.93844e-08
9.10881e-08
9.28171e-08
9.45714e-08
9.63509e-08
9.81555e-08
9.99854e-08
1.0184e-07
1.03721e-07
1.05626e-07
1.07556e-07
1.09511e-07
1.11492e-07
1.13496e-07
1.15526e-07
1.1758e-07
1.19659e-07
1.21762e-07
1.2389e-07
1.26041e-07
1.28217e-07
1.30416e-07
1.32639e-07
1.34884e-07
1.37153e-07
1.39444e-07
1.41758e-07
1.44093e-07
1.46449e-07
2.09497e-08
2.13297e-08
2.17662e-08
2.22653e-08
2.28284e-08
2.34571e-08
2.41494e-08
2.49019e-08
2.57102e-08
2.65699e-08
2.74761e-08
2.84233e-08
2.9405e-08
3.04143e-08
3.14445e-08
3.24881e-08
3.3538e-08
3.45867e-08
3.56279e-08
3.66561e-08
3.76677e-08
3.8661e-08
3.96363e-08
4.05958e-08
4.1543e-08
4.24821e-08
4.34178e-08
4.43548e-08
4.52977e-08
4.62502e-08
4.72151e-08
4.81941e-08
4.91882e-08
5.0198e-08
5.12241e-08
5.22665e-08
5.33255e-08
5.44012e-08
5.54937e-08
5.66034e-08
5.77303e-08
5.8875e-08
6.00376e-08
6.12185e-08
6.24182e-08
6.3637e-08
6.48752e-08
6.61334e-08
6.74118e-08
6.87108e-08
7.00308e-08
7.13722e-08
7.27351e-08
7.41198e-08
7.55265e-08
7.69552e-08
7.84061e-08
7.98792e-08
8.13744e-08
8.28919e-08
8.44316e-08
8.59936e-08
8.7578e-08
8.91848e-08
9.0814e-08
9.24658e-08
9.41402e-08
9.58372e-08
9.7557e-08
9.92997e-08
1.01065e-07
1.02854e-07
1.04665e-07
1.065e-07
1.08358e-07
1.10239e-07
1.12143e-07
1.1407e-07
1.1602e-07
1.17993e-07
1.19989e-07
1.22007e-07
1.24048e-07
1.26111e-07
1.28196e-07
1.30301e-07
1.32428e-07
1.34576e-07
1.36743e-07
1.38931e-07
1.41138e-07
1.43365e-07
1.4561e-07
1.47874e-07
1.50156e-07
1.52455e-07
1.54772e-07
1.57105e-07
1.59454e-07
1.61818e-07
1.64198e-07
1.66591e-07
1.68998e-07
1.71418e-07
1.73849e-07
1.76292e-07
1.78745e-07
1.81207e-07
1.83677e-07
1.86155e-07
1.88639e-07
1.91129e-07
1.93623e-07
1.9612e-07
1.98617e-07
2.0112e-07
3.30833e-08
3.32402e-08
3.34529e-08
3.37266e-08
3.40664e-08
3.44763e-08
3.49624e-08
3.55302e-08
3.61769e-08
3.691e-08
3.7732e-08
3.86434e-08
3.96416e-08
4.07208e-08
4.18761e-08
4.31029e-08
4.43952e-08
4.57452e-08
4.71438e-08
4.85809e-08
5.00459e-08
5.15286e-08
5.30188e-08
5.45071e-08
5.59848e-08
5.74449e-08
5.88823e-08
6.0294e-08
6.16796e-08
6.3041e-08
6.43817e-08
6.57067e-08
6.70216e-08
6.83324e-08
6.9645e-08
7.09645e-08
7.22952e-08
7.36403e-08
7.50016e-08
7.63806e-08
7.77779e-08
7.91939e-08
8.06287e-08
8.20824e-08
8.35553e-08
8.50474e-08
8.65588e-08
8.80898e-08
8.96406e-08
9.12113e-08
9.28023e-08
9.44137e-08
9.60456e-08
9.76984e-08
9.9372e-08
1.01067e-07
1.02782e-07
1.04519e-07
1.06277e-07
1.08055e-07
1.09855e-07
1.11675e-07
1.13516e-07
1.15377e-07
1.17259e-07
1.1916e-07
1.21082e-07
1.23023e-07
1.24984e-07
1.26965e-07
1.28965e-07
1.30984e-07
1.33021e-07
1.35078e-07
1.37153e-07
1.39245e-07
1.41356e-07
1.43484e-07
1.4563e-07
1.47792e-07
1.4997e-07
1.52164e-07
1.54374e-07
1.56598e-07
1.58836e-07
1.61088e-07
1.63353e-07
1.65629e-07
1.67918e-07
1.70217e-07
1.72526e-07
1.74844e-07
1.77171e-07
1.79506e-07
1.81848e-07
1.84197e-07
1.8655e-07
1.88909e-07
1.91272e-07
1.93637e-07
1.96005e-07
1.98374e-07
2.00743e-07
2.03112e-07
2.05478e-07
2.07841e-07
2.102e-07
2.12554e-07
2.149e-07
2.17237e-07
2.19565e-07
2.2188e-07
2.24182e-07
2.26469e-07
2.28739e-07
2.3099e-07
2.33221e-07
2.3543e-07
2.37616e-07
2.39776e-07
2.41909e-07
2.44013e-07
2.46086e-07
5.17034e-08
5.20744e-08
5.25228e-08
5.30544e-08
5.36743e-08
5.43861e-08
5.51985e-08
5.6111e-08
5.71325e-08
5.82668e-08
5.95111e-08
6.08631e-08
6.2317e-08
6.38636e-08
6.54957e-08
6.72063e-08
6.89868e-08
7.08262e-08
7.27122e-08
7.46313e-08
7.657e-08
7.85154e-08
8.04555e-08
8.23799e-08
8.42798e-08
8.61487e-08
8.79824e-08
8.97797e-08
9.1542e-08
9.32729e-08
9.4978e-08
9.6664e-08
9.83381e-08
1.00008e-07
1.01679e-07
1.03358e-07
1.05048e-07
1.06754e-07
1.08477e-07
1.10218e-07
1.11977e-07
1.13755e-07
1.15551e-07
1.17366e-07
1.19199e-07
1.2105e-07
1.22918e-07
1.24803e-07
1.26705e-07
1.28624e-07
1.3056e-07
1.32512e-07
1.34479e-07
1.36463e-07
1.38462e-07
1.40476e-07
1.42505e-07
1.44549e-07
1.46607e-07
1.48679e-07
1.50765e-07
1.52864e-07
1.54977e-07
1.57101e-07
1.59238e-07
1.61387e-07
1.63546e-07
1.65716e-07
1.67896e-07
1.70086e-07
1.72284e-07
1.7449e-07
1.76703e-07
1.78924e-07
1.8115e-07
1.83381e-07
1.85617e-07
1.87856e-07
1.90097e-07
1.92341e-07
1.94585e-07
1.96828e-07
1.99071e-07
2.01312e-07
2.03549e-07
2.05783e-07
2.08012e-07
2.10234e-07
2.1245e-07
2.14658e-07
2.16856e-07
2.19044e-07
2.21219e-07
2.23382e-07
2.2553e-07
2.27661e-07
2.29775e-07
2.3187e-07
2.33943e-07
2.35994e-07
2.38021e-07
2.40022e-07
2.41996e-07
2.4394e-07
2.45854e-07
2.47737e-07
2.49588e-07
2.51405e-07
2.53188e-07
2.54937e-07
2.56649e-07
2.58322e-07
2.59954e-07
2.61542e-07
2.63084e-07
2.64575e-07
2.66013e-07
2.67394e-07
2.68714e-07
2.69966e-07
2.71147e-07
2.72249e-07
2.73264e-07
7.57395e-08
7.64229e-08
7.72047e-08
7.8091e-08
7.9086e-08
8.01935e-08
8.14199e-08
8.2765e-08
8.42406e-08
8.58434e-08
8.75663e-08
8.94035e-08
9.13482e-08
9.3386e-08
9.55052e-08
9.76967e-08
9.9949e-08
1.02248e-07
1.04578e-07
1.06924e-07
1.0927e-07
1.11603e-07
1.13909e-07
1.16179e-07
1.18405e-07
1.20583e-07
1.22711e-07
1.2479e-07
1.26826e-07
1.28824e-07
1.30792e-07
1.32739e-07
1.34673e-07
1.36601e-07
1.38531e-07
1.40468e-07
1.42415e-07
1.44375e-07
1.4635e-07
1.48339e-07
1.50343e-07
1.52362e-07
1.54393e-07
1.56436e-07
1.58491e-07
1.60556e-07
1.6263e-07
1.64713e-07
1.66802e-07
1.68898e-07
1.71e-07
1.73107e-07
1.75219e-07
1.77335e-07
1.79454e-07
1.81576e-07
1.83701e-07
1.85828e-07
1.87956e-07
1.90086e-07
1.92215e-07
1.94344e-07
1.96471e-07
1.98597e-07
2.0072e-07
2.02838e-07
2.04953e-07
2.07061e-07
2.09163e-07
2.11258e-07
2.13344e-07
2.15421e-07
2.17487e-07
2.19542e-07
2.21583e-07
2.2361e-07
2.25622e-07
2.27616e-07
2.29591e-07
2.31547e-07
2.33481e-07
2.35392e-07
2.37278e-07
2.39138e-07
2.40971e-07
2.42776e-07
2.4455e-07
2.46293e-07
2.48004e-07
2.49684e-07
2.5133e-07
2.52943e-07
2.54523e-07
2.56066e-07
2.57571e-07
2.59037e-07
2.6046e-07
2.61837e-07
2.63166e-07
2.64444e-07
2.65665e-07
2.66827e-07
2.67923e-07
2.68949e-07
2.69898e-07
2.70764e-07
2.71547e-07
2.72243e-07
2.72867e-07
2.7343e-07
2.73932e-07
2.74371e-07
2.74747e-07
2.7506e-07
2.75312e-07
2.75508e-07
2.75648e-07
2.75735e-07
2.75774e-07
2.75769e-07
2.75727e-07
2.75655e-07
2.75558e-07
1.04326e-07
1.0539e-07
1.06571e-07
1.07873e-07
1.09299e-07
1.10853e-07
1.12532e-07
1.14343e-07
1.16289e-07
1.18361e-07
1.20547e-07
1.2284e-07
1.2523e-07
1.27698e-07
1.30228e-07
1.32807e-07
1.35423e-07
1.38057e-07
1.40693e-07
1.43314e-07
1.45905e-07
1.48453e-07
1.50946e-07
1.53378e-07
1.55743e-07
1.58042e-07
1.60276e-07
1.62451e-07
1.64575e-07
1.66657e-07
1.68706e-07
1.70732e-07
1.72743e-07
1.74747e-07
1.7675e-07
1.78756e-07
1.80768e-07
1.82788e-07
1.84816e-07
1.8685e-07
1.8889e-07
1.90934e-07
1.92981e-07
1.95027e-07
1.97072e-07
1.99113e-07
2.01149e-07
2.03178e-07
2.05199e-07
2.07211e-07
2.09212e-07
2.11202e-07
2.1318e-07
2.15146e-07
2.17099e-07
2.19038e-07
2.20963e-07
2.22873e-07
2.24767e-07
2.26643e-07
2.28502e-07
2.30341e-07
2.32159e-07
2.33956e-07
2.35728e-07
2.37476e-07
2.39197e-07
2.4089e-07
2.42555e-07
2.44189e-07
2.45792e-07
2.47363e-07
2.48902e-07
2.50407e-07
2.51881e-07
2.53321e-07
2.54725e-07
2.56093e-07
2.57422e-07
2.5871e-07
2.59955e-07
2.61154e-07
2.62304e-07
2.63401e-07
2.64442e-07
2.65421e-07
2.66333e-07
2.67172e-07
2.67936e-07
2.68623e-07
2.69232e-07
2.69781e-07
2.70273e-07
2.70708e-07
2.71083e-07
2.714e-07
2.71663e-07
2.71871e-07
2.72028e-07
2.72135e-07
2.72195e-07
2.72212e-07
2.72193e-07
2.72144e-07
2.72073e-07
2.71988e-07
2.71887e-07
2.71777e-07
2.71626e-07
2.71411e-07
2.71134e-07
2.70799e-07
2.70408e-07
2.69966e-07
2.6947e-07
2.68915e-07
2.68302e-07
2.67633e-07
2.66907e-07
2.66123e-07
2.6528e-07
2.64376e-07
2.63405e-07
2.62357e-07
2.61232e-07
1.3558e-07
1.37039e-07
1.38624e-07
1.40339e-07
1.42184e-07
1.44159e-07
1.46255e-07
1.48478e-07
1.50822e-07
1.53273e-07
1.55816e-07
1.5844e-07
1.61133e-07
1.63875e-07
1.66641e-07
1.69419e-07
1.72194e-07
1.74946e-07
1.77659e-07
1.80317e-07
1.82909e-07
1.85422e-07
1.87852e-07
1.90194e-07
1.92449e-07
1.94622e-07
1.96718e-07
1.98748e-07
2.00721e-07
2.02648e-07
2.0454e-07
2.06406e-07
2.08255e-07
2.10093e-07
2.11925e-07
2.13755e-07
2.15583e-07
2.17409e-07
2.19233e-07
2.21052e-07
2.22865e-07
2.24667e-07
2.26457e-07
2.28231e-07
2.29986e-07
2.31719e-07
2.33428e-07
2.35111e-07
2.36766e-07
2.38392e-07
2.39986e-07
2.41549e-07
2.43078e-07
2.44575e-07
2.46038e-07
2.47468e-07
2.48865e-07
2.5023e-07
2.51561e-07
2.52859e-07
2.54122e-07
2.55348e-07
2.56535e-07
2.57683e-07
2.58787e-07
2.59846e-07
2.60856e-07
2.61814e-07
2.62714e-07
2.63553e-07
2.64324e-07
2.65026e-07
2.65657e-07
2.66214e-07
2.66716e-07
2.67164e-07
2.67557e-07
2.67895e-07
2.68181e-07
2.68417e-07
2.68602e-07
2.68739e-07
2.68831e-07
2.6888e-07
2.6889e-07
2.68868e-07
2.6882e-07
2.68757e-07
2.68675e-07
2.6858e-07
2.68474e-07
2.68315e-07
2.68099e-07
2.67829e-07
2.67509e-07
2.67138e-07
2.66713e-07
2.66232e-07
2.65698e-07
2.65111e-07
2.64471e-07
2.63777e-07
2.63029e-07
2.62223e-07
2.61355e-07
2.60419e-07
2.59415e-07
2.58335e-07
2.5719e-07
2.55991e-07
2.54739e-07
2.53431e-07
2.52066e-07
2.50642e-07
2.49161e-07
2.47625e-07
2.46031e-07
2.4438e-07
2.42672e-07
2.40904e-07
2.39078e-07
2.37194e-07
2.35252e-07
2.33252e-07
2.31198e-07
1.66809e-07
1.68603e-07
1.70525e-07
1.72572e-07
1.74742e-07
1.77023e-07
1.79412e-07
1.81902e-07
1.84479e-07
1.87128e-07
1.89832e-07
1.92577e-07
1.95346e-07
1.9812e-07
2.00872e-07
2.03586e-07
2.06247e-07
2.08839e-07
2.11346e-07
2.13759e-07
2.16067e-07
2.18267e-07
2.20356e-07
2.22338e-07
2.24218e-07
2.26005e-07
2.27709e-07
2.29342e-07
2.30915e-07
2.3244e-07
2.33928e-07
2.35386e-07
2.36823e-07
2.38242e-07
2.39646e-07
2.41038e-07
2.42416e-07
2.43779e-07
2.45126e-07
2.46454e-07
2.47759e-07
2.4904e-07
2.50294e-07
2.51517e-07
2.52705e-07
2.53856e-07
2.54967e-07
2.56034e-07
2.57055e-07
2.58029e-07
2.5895e-07
2.59817e-07
2.60625e-07
2.61369e-07
2.62049e-07
2.62661e-07
2.63203e-07
2.63686e-07
2.64118e-07
2.64498e-07
2.64828e-07
2.65109e-07
2.65342e-07
2.65528e-07
2.65667e-07
2.65763e-07
2.65818e-07
2.65836e-07
2.65823e-07
2.65785e-07
2.65731e-07
2.65658e-07
2.65571e-07
2.65474e-07
2.65328e-07
2.6513e-07
2.64884e-07