/*--------------------------------*- C++ -*----------------------------------*\
| =========                 |                                                 |
| \\      /  F ield         | OpenFOAM: The Open Source CFD Toolbox           |
|  \\    /   O peration     | Version:  v1706                                 |
|   \\  /    A nd           | Web:      www.OpenFOAM.com                      |
|    \\/     M anipulation  |                                                 |
\*---------------------------------------------------------------------------*/
FoamFile
{
    version     2.0;
    format      ascii;
    class       volScalarField;
    location    "3e-06";
    object      Mach;
}
// * * * * * * * * * * * * * * * * * * * * * * * * * * * * * * * * * * * * * //

dimensions      [0 0 0 0 0 0 0];


internalField   nonuniform List<scalar> 
29871
(
11.2859
11.2859
11.2859
11.2859
11.2859
11.2859
11.2859
11.2859
11.2859
11.2859
11.2859
11.2859
11.2859
11.2859
11.2859
11.2859
11.2859
11.2859
11.2859
11.2859
11.2859
11.2859
11.2859
11.2859
11.2859
11.2859
11.2859
11.2859
11.2859
11.2859
11.2859
11.2859
11.2859
11.2859
11.2859
11.2859
11.2859
11.2859
11.2859
11.2859
11.2859
11.2859
11.2859
11.2859
11.2859
11.2859
11.2859
11.2859
11.2859
11.2859
11.2859
11.2859
11.2859
11.2859
11.2859
11.2859
11.2859
11.2859
11.2859
11.2859
11.2859
11.2859
11.2859
11.2859
11.2859
11.2859
11.2859
11.2859
11.2859
11.2859
11.2859
11.2859
11.2859
11.2859
11.2859
11.2859
11.2859
11.2859
11.2859
11.2859
11.2859
11.2859
11.2859
11.2859
11.2859
11.2859
11.2859
11.2859
11.2859
11.2859
11.2859
11.2859
11.2859
11.2859
11.2859
11.2859
11.2859
11.2859
11.2859
11.2859
11.2859
11.2859
11.2859
11.2859
11.2859
11.2859
11.2859
11.2859
11.2859
11.2859
11.2859
11.2859
11.2859
11.2859
11.2859
11.2859
11.2859
11.2859
11.2859
11.2859
11.2859
11.2859
11.2859
11.2859
11.2859
11.2859
11.2859
11.2859
11.2859
11.2859
11.2859
11.2859
11.2859
11.2858
11.2858
11.2858
11.2858
11.2858
11.2858
11.2858
11.2858
11.2858
11.2858
11.2858
11.2858
11.2858
11.2858
11.2858
11.2858
11.2858
11.2858
11.2858
11.2858
11.2858
11.2858
11.2858
11.2858
11.2858
11.2858
11.2858
11.2858
11.2858
11.2858
11.2858
11.2858
11.2858
11.2858
11.2858
11.2858
11.2858
11.2858
11.2858
11.2858
11.2858
11.2858
11.2858
11.2858
11.2858
11.2858
11.2858
11.2858
11.2858
11.2858
11.2858
11.2858
11.2858
11.2858
11.2858
11.2858
11.2858
11.2858
11.2858
11.2858
11.2858
11.2858
11.2858
11.2858
11.2858
11.2858
11.2858
11.2858
11.2858
11.2858
11.2858
11.2858
11.2858
11.2858
11.2858
11.2858
11.2858
11.2858
11.2858
11.2858
11.2858
11.2858
11.2858
11.2858
11.2858
11.2858
11.2858
11.2858
11.2858
11.2858
11.2858
11.2858
11.2858
11.2858
11.2858
11.2858
11.2858
11.2858
11.2858
11.2858
11.2858
11.2858
11.2858
11.2858
11.2858
11.2858
11.2858
11.2858
11.2858
11.2858
11.2858
11.2858
11.2858
11.2858
11.2858
11.2858
11.2858
11.2858
11.2858
11.2858
11.2858
11.2858
11.2858
11.2858
11.2858
11.2858
11.2858
11.2858
11.2858
11.2857
11.2857
11.2857
11.2857
11.2857
11.2857
11.2857
11.2857
11.2857
11.2857
11.2857
11.2857
11.2857
11.2857
11.2857
11.2857
11.2857
11.2857
11.2857
11.2857
11.2857
11.2857
11.2856
11.2856
11.2856
11.2856
11.2856
11.2856
11.2856
11.2856
11.2856
11.2856
11.2856
11.2856
11.2856
11.2855
11.2855
11.2855
11.2855
11.2855
11.2855
11.2855
11.2855
11.2854
11.2854
11.2854
11.2854
11.2854
11.2854
11.2854
11.2853
11.2853
11.2853
11.2853
11.2858
11.2857
11.2857
11.2857
11.2857
11.2857
11.2857
11.2857
11.2857
11.2857
11.2857
11.2857
11.2857
11.2857
11.2857
11.2857
11.2857
11.2856
11.2856
11.2856
11.2856
11.2856
11.2856
11.2856
11.2856
11.2856
11.2856
11.2856
11.2856
11.2855
11.2855
11.2855
11.2855
11.2855
11.2855
11.2855
11.2855
11.2855
11.2854
11.2854
11.2854
11.2854
11.2854
11.2854
11.2854
11.2853
11.2853
11.2853
11.2853
11.2853
11.2853
11.2852
11.2852
11.2852
11.2852
11.2851
11.2851
11.2851
11.2851
11.2851
11.285
11.285
11.285
11.2849
11.2849
11.2849
11.2848
11.2848
11.2848
11.2847
11.2847
11.2847
11.2846
11.2846
11.2846
11.2845
11.2845
11.2844
11.2844
11.2843
11.2843
11.2842
11.2842
11.2841
11.2841
11.284
11.2839
11.2839
11.2838
11.2838
11.2837
11.2836
11.2835
11.2835
11.2834
11.2833
11.2832
11.2831
11.2831
11.283
11.2829
11.2828
11.2827
11.2826
11.2824
11.2823
11.2853
11.2853
11.2853
11.2853
11.2853
11.2852
11.2852
11.2852
11.2852
11.2851
11.2851
11.2851
11.285
11.285
11.2849
11.2849
11.2848
11.2848
11.2848
11.2847
11.2847
11.2846
11.2846
11.2845
11.2845
11.2844
11.2844
11.2843
11.2843
11.2842
11.2841
11.2841
11.284
11.284
11.2839
11.2838
11.2838
11.2837
11.2836
11.2836
11.2835
11.2834
11.2833
11.2832
11.2832
11.2831
11.283
11.2829
11.2828
11.2827
11.2826
11.2825
11.2824
11.2822
11.2821
11.282
11.2819
11.2817
11.2816
11.2815
11.2813
11.2812
11.281
11.2808
11.2807
11.2805
11.2803
11.2801
11.2799
11.2797
11.2795
11.2793
11.2791
11.2789
11.2786
11.2784
11.2781
11.2779
11.2776
11.2773
11.277
11.2767
11.2763
11.276
11.2757
11.2753
11.2749
11.2745
11.2741
11.2737
11.2733
11.2728
11.2723
11.2719
11.2714
11.2708
11.2703
11.2697
11.2691
11.2685
11.2679
11.2673
11.2666
11.2659
11.2652
11.2644
11.2637
11.2833
11.2832
11.2831
11.283
11.2829
11.2828
11.2826
11.2825
11.2823
11.2821
11.282
11.2818
11.2815
11.2813
11.2811
11.2809
11.2807
11.2804
11.2802
11.2799
11.2797
11.2794
11.2792
11.2789
11.2787
11.2784
11.2781
11.2778
11.2775
11.2772
11.2769
11.2766
11.2763
11.276
11.2756
11.2753
11.2749
11.2745
11.2741
11.2737
11.2733
11.2729
11.2724
11.2719
11.2715
11.271
11.2704
11.2699
11.2693
11.2687
11.2681
11.2675
11.2669
11.2662
11.2655
11.2647
11.264
11.2632
11.2624
11.2615
11.2607
11.2598
11.2588
11.2579
11.2568
11.2558
11.2547
11.2536
11.2524
11.2512
11.2499
11.2486
11.2473
11.2459
11.2444
11.2429
11.2413
11.2397
11.238
11.2362
11.2344
11.2325
11.2305
11.2285
11.2264
11.2242
11.222
11.2196
11.2172
11.2147
11.2121
11.2094
11.2066
11.2037
11.2008
11.1977
11.1945
11.1912
11.1878
11.1843
11.1807
11.1769
11.173
11.169
11.1648
11.1604
11.1559
11.2742
11.274
11.2738
11.2735
11.2731
11.2727
11.2721
11.2715
11.2709
11.2701
11.2693
11.2685
11.2675
11.2666
11.2655
11.2645
11.2634
11.2622
11.261
11.2599
11.2586
11.2574
11.2561
11.2548
11.2535
11.2522
11.2508
11.2493
11.2479
11.2464
11.2448
11.2432
11.2416
11.2399
11.2382
11.2364
11.2345
11.2326
11.2307
11.2287
11.2266
11.2244
11.2222
11.2199
11.2174
11.215
11.2124
11.2097
11.2069
11.204
11.2011
11.198
11.1948
11.1914
11.188
11.1844
11.1807
11.1769
11.1729
11.1688
11.1646
11.1602
11.1557
11.151
11.1461
11.1411
11.1358
11.1304
11.1249
11.1191
11.1131
11.1069
11.1004
11.0938
11.0869
11.0797
11.0722
11.0645
11.0565
11.0481
11.0394
11.0304
11.021
11.0113
11.0012
10.9906
10.9797
10.9683
10.9565
10.9442
10.9315
10.9183
10.9046
10.8904
10.8758
10.8606
10.8449
10.8287
10.8119
10.7946
10.7768
10.7585
10.7396
10.7201
10.7001
10.6795
10.6583
10.6365
10.6141
10.5911
11.2317
11.2307
11.2293
11.2276
11.2256
11.2231
11.2204
11.2172
11.2138
11.21
11.2059
11.2015
11.1968
11.1918
11.1867
11.1813
11.1757
11.1701
11.1642
11.1583
11.1523
11.1461
11.1398
11.1335
11.1269
11.1202
11.1134
11.1064
11.0992
11.0918
11.0842
11.0764
11.0684
11.0602
11.0517
11.0431
11.0342
11.025
11.0156
11.0059
10.9959
10.9855
10.9748
10.9637
10.9523
10.9404
10.9281
10.9153
10.9021
10.8883
10.8741
10.8594
10.8441
10.8283
10.8119
10.795
10.7774
10.7593
10.7405
10.7212
10.7012
10.6806
10.6593
10.6374
10.6148
10.5916
10.5677
10.5431
10.5178
10.4918
10.4652
10.4378
10.4097
10.3808
10.3511
10.3207
10.2895
10.2574
10.2244
10.1905
10.1557
10.12
10.0832
10.0454
10.0066
9.96667
9.92567
9.88356
9.84034
9.796
9.75054
9.70398
9.65635
9.60768
9.558
9.50737
9.45585
9.4035
9.35039
9.29661
9.24223
9.18733
9.13201
9.07634
9.02041
8.96427
8.908
8.85164
8.79524
8.73881
11.0441
11.0387
11.0318
11.0233
11.0133
11.0018
10.9888
10.9745
10.9587
10.9417
10.9234
10.9039
10.8834
10.862
10.8397
10.8168
10.7932
10.7692
10.7449
10.7201
10.695
10.6696
10.6438
10.6175
10.5908
10.5635
10.5357
10.5073
10.4783
10.4487
10.4185
10.3877
10.3563
10.3244
10.2919
10.2589
10.2253
10.1911
10.1563
10.1208
10.0846
10.0477
10.0099
9.97142
9.93204
9.89178
9.85059
9.80846
9.76536
9.72127
9.67619
9.63011
9.58302
9.53492
9.48583
9.43577
9.38475
9.33281
9.27998
9.22632
9.17187
9.11669
9.06084
9.00439
8.94742
8.88999
8.83218
8.77407
8.71571
8.65719
8.59855
8.53985
8.48113
8.42242
8.36373
8.30508
8.24646
8.18784
8.12919
8.07046
8.01161
7.95256
7.89326
7.83364
7.77362
7.71314
7.65215
7.59057
7.52836
7.46549
7.40192
7.33766
7.27271
7.20709
7.14087
7.0741
7.00688
6.93931
6.87153
6.80367
6.7359
6.66838
6.60129
6.53481
6.46914
6.40444
6.34087
6.2786
6.21777
6.15847
10.3454
10.3231
10.2957
10.2634
10.2263
10.1848
10.1392
10.0897
10.0367
9.98059
9.92171
9.86057
9.79765
9.73343
9.66835
9.60284
9.53722
9.47178
9.40669
9.34205
9.27785
9.21401
9.15043
9.087
9.02363
8.96025
8.8968
8.83326
8.76965
8.70604
8.64251
8.57916
8.51609
8.45336
8.39104
8.32915
8.26773
8.20676
8.14623
8.08609
8.02631
7.96684
7.90762
7.8486
7.78971
7.7309
7.67211
7.61328
7.55435
7.49528
7.436
7.37646
7.31664
7.25649
7.19599
7.13513
7.07391
7.01233
6.95043
6.88825
6.82584
6.76328
6.70066
6.63809
6.57568
6.51356
6.45186
6.39074
6.33034
6.27081
6.21228
6.1549
6.09879
6.04407
5.99082
5.93913
5.88904
5.84061
5.79384
5.74872
5.70524
5.66332
5.62292
5.58396
5.54637
5.51009
5.47503
5.44111
5.40826
5.37638
5.34538
5.3152
5.28574
5.25693
5.2287
5.20099
5.17374
5.14691
5.12045
5.09433
5.06851
5.04298
5.0177
4.99268
4.96791
4.94335
4.91903
4.89494
4.87106
4.8474
8.64408
8.59472
8.53692
8.47152
8.39949
8.32188
8.23976
8.15407
8.06574
7.97571
7.88497
7.79444
7.70495
7.61715
7.5315
7.44834
7.36783
7.28997
7.21467
7.14171
7.07079
7.00154
6.9336
6.86673
6.80075
6.73547
6.67079
6.60667
6.54312
6.48022
6.41809
6.35687
6.29668
6.23766
6.1799
6.1235
6.06852
6.01504
5.96308
5.91267
5.86385
5.81661
5.77096
5.7269
5.68442
5.64349
5.60409
5.56618
5.52969
5.49457
5.46072
5.42807
5.39655
5.36608
5.33659
5.30801
5.28024
5.25323
5.2269
5.20118
5.176
5.15131
5.12704
5.10314
5.07959
5.05633
5.03333
5.01057
4.98804
4.9657
4.94356
4.92161
4.89981
4.87818
4.85671
4.83539
4.81422
4.79319
4.77233
4.75165
4.73118
4.71008
4.68963
4.67008
4.65127
4.63316
4.61571
4.59892
4.58276
4.56697
4.55147
4.53626
4.52134
4.50676
4.49251
4.4786
4.46504
4.45181
4.43891
4.42635
4.41412
4.40221
4.3906
4.37929
4.36826
4.35749
4.34697
4.33669
4.32664
4.31681
6.62899
6.58097
6.52517
6.46266
6.39479
6.32275
6.24766
6.17064
6.09271
6.01484
5.93799
5.86321
5.79147
5.72354
5.65997
5.60105
5.54691
5.49747
5.45244
5.41142
5.37396
5.33952
5.30743
5.27721
5.24858
5.2213
5.19511
5.16976
5.14513
5.12113
5.09772
5.07485
5.05247
5.03056
5.00906
4.98795
4.96718
4.94671
4.92653
4.90659
4.88685
4.86731
4.84791
4.82865
4.80949
4.79044
4.77148
4.75262
4.73387
4.71531
4.69636
4.67759
4.6596
4.64226
4.62551
4.60933
4.5937
4.57864
4.56413
4.54997
4.53608
4.52248
4.50917
4.49616
4.48346
4.47107
4.459
4.44723
4.43577
4.4246
4.41371
4.4031
4.39275
4.38264
4.37276
4.3631
4.35366
4.34441
4.33538
4.32651
4.31772
4.30913
4.30086
4.29214
4.28295
4.2733
4.26318
4.2526
4.24153
4.22998
4.21838
4.20691
4.19553
4.18425
4.17306
4.16194
4.15088
4.13986
4.12888
4.11793
4.10697
4.09601
4.08501
4.07397
4.06285
4.05165
4.04033
4.02888
4.01728
4.0055
3.99351
5.29553
5.26164
5.22465
5.18627
5.14787
5.11002
5.07276
5.03611
5.00032
4.96577
4.93268
4.90114
4.87124
4.84304
4.81647
4.79138
4.76768
4.74522
4.72383
4.7033
4.6835
4.66398
4.6453
4.62769
4.61096
4.59508
4.57997
4.56551
4.55168
4.53842
4.5255
4.5129
4.50064
4.48872
4.47714
4.46588
4.45494
4.4443
4.43396
4.42388
4.41407
4.40449
4.39514
4.38599
4.37704
4.36828
4.35972
4.35133
4.34299
4.33481
4.32701
4.31897
4.31054
4.30174
4.29258
4.28305
4.27317
4.2629
4.25222
4.24149
4.23086
4.22033
4.20988
4.19949
4.18917
4.17888
4.16863
4.15839
4.14816
4.1379
4.12762
4.11728
4.10686
4.09636
4.08574
4.07499
4.06408
4.05299
4.04169
4.03019
4.0185
4.00661
3.9946
3.98259
3.97059
3.95862
3.94668
3.93482
3.92306
3.91144
3.89981
3.88806
3.87619
3.86421
3.85211
3.83988
3.82753
3.81503
3.8024
3.78963
3.77671
3.76365
3.75044
3.7371
3.72362
3.71
3.69627
3.68243
3.66848
3.65446
3.64038
3.62625
3.6121
4.6995
4.67697
4.65027
4.6262
4.60273
4.57846
4.55447
4.53219
4.51032
4.48909
4.46902
4.4504
4.4333
4.41756
4.40308
4.38978
4.37761
4.36648
4.3563
4.34688
4.33809
4.33004
4.32212
4.31408
4.3058
4.2972
4.28831
4.27913
4.26959
4.2597
4.24987
4.24012
4.23045
4.22084
4.21126
4.20171
4.19217
4.18263
4.17306
4.16345
4.15379
4.14405
4.13422
4.12427
4.11419
4.10396
4.09355
4.08297
4.07225
4.06133
4.05025
4.03914
4.02801
4.01687
4.00573
3.99459
3.98349
3.97246
3.96154
3.95059
3.93953
3.92835
3.91706
3.90564
3.8941
3.88243
3.87062
3.85868
3.8466
3.83437
3.82202
3.80952
3.7969
3.78416
3.7713
3.75833
3.74528
3.73215
3.71897
3.70575
3.69251
3.67927
3.66604
3.65281
3.63956
3.62629
3.61298
3.59962
3.58619
3.57265
3.55901
3.54524
3.53136
3.51738
3.50328
3.48909
3.4748
3.46041
3.44595
3.43141
3.4168
3.40214
3.38742
3.37265
3.35786
3.34303
3.32819
3.31333
3.29846
3.28358
3.26869
3.2538
3.23889
4.42769
4.41312
4.39808
4.38212
4.3649
4.34761
4.32975
4.31108
4.29199
4.27353
4.25598
4.239
4.22249
4.2066
4.19137
4.17675
4.16268
4.14912
4.13602
4.1233
4.11091
4.09886
4.08706
4.07549
4.06427
4.05334
4.04263
4.03208
4.02165
4.01131
4.00108
3.99096
3.98075
3.97041
3.95994
3.94933
3.93858
3.92768
3.91665
3.90547
3.89414
3.88268
3.87108
3.85934
3.84748
3.83551
3.82343
3.81126
3.79902
3.78672
3.77438
3.76201
3.74964
3.73725
3.72484
3.7124
3.69993
3.6874
3.67481
3.66215
3.64938
3.63651
3.62351
3.61041
3.5972
3.58389
3.57048
3.55697
3.54339
3.52972
3.51599
3.50218
3.48833
3.47442
3.46047
3.44649
3.43248
3.41844
3.40438
3.3903
3.3762
3.36208
3.34792
3.33372
3.31948
3.30519
3.29084
3.27643
3.26195
3.24742
3.23282
3.21817
3.20346
3.18871
3.17391
3.15908
3.14422
3.12933
3.11442
3.09949
3.08454
3.06958
3.05461
3.03963
3.02464
3.00965
2.99465
2.97964
2.96462
2.94959
2.93454
2.91947
2.90437
2.88925
2.87411
4.1485
4.13505
4.12164
4.10796
4.09344
4.07817
4.06192
4.04554
4.029
4.01235
3.99578
3.97927
3.96279
3.9464
3.93014
3.91408
3.89826
3.88271
3.86749
3.85264
3.8382
3.82418
3.8106
3.79745
3.78466
3.77216
3.75988
3.74779
3.7358
3.72386
3.71191
3.6999
3.6878
3.6756
3.66331
3.65092
3.63843
3.62586
3.6132
3.60046
3.58765
3.57476
3.56181
3.5488
3.53574
3.52262
3.50947
3.49627
3.48303
3.46976
3.45644
3.44308
3.42966
3.4162
3.40267
3.38908
3.37543
3.36171
3.34793
3.33408
3.32017
3.30621
3.29221
3.27815
3.26406
3.24994
3.23578
3.2216
3.2074
3.19317
3.17893
3.16467
3.1504
3.13611
3.12181
3.10749
3.09315
3.0788
3.06442
3.05002
3.03559
3.02113
3.00664
2.99212
2.97757
2.96299
2.94839
2.93376
2.91911
2.90445
2.88977
2.87508
2.86039
2.84568
2.83097
2.81625
2.80153
2.78681
2.77208
2.75735
2.74262
2.72788
2.71313
2.69838
2.68362
2.66886
2.65408
2.63929
2.6245
2.60969
2.59488
2.58006
2.56523
2.55039
2.53555
2.52072
3.90411
3.89906
3.89325
3.88664
3.87914
3.87078
3.86183
3.85086
3.83918
3.82789
3.81562
3.80231
3.78776
3.77245
3.75688
3.74107
3.72489
3.70835
3.69155
3.6746
3.6576
3.64063
3.62379
3.60715
3.59078
3.57471
3.559
3.54366
3.52869
3.51408
3.4998
3.48581
3.47205
3.4585
3.4451
3.43181
3.41859
3.4054
3.39223
3.37906
3.36587
3.35268
3.33946
3.32622
3.31295
3.29966
3.28633
3.27297
3.25957
3.24614
3.23266
3.21914
3.20558
3.19198
3.17833
3.16465
3.15092
3.13716
3.12335
3.10951
3.09563
3.08173
3.06779
3.05383
3.03984
3.02584
3.01182
2.99779
2.98374
2.96969
2.95563
2.94156
2.92749
2.91341
2.89933
2.88524
2.87114
2.85703
2.84291
2.82879
2.81465
2.8005
2.78634
2.77216
2.75797
2.74377
2.72956
2.71533
2.7011
2.68685
2.6726
2.65834
2.64408
2.62982
2.61555
2.60129
2.58704
2.57278
2.55853
2.54428
2.53004
2.5158
2.50156
2.48733
2.47311
2.4589
2.44469
2.43049
2.41631
2.40213
2.38797
2.37383
2.35971
2.34561
2.33153
2.31749
2.30348
2.2895
2.27557
2.26167
2.24782
2.23402
2.22026
3.59152
3.58634
3.58058
3.57414
3.56697
3.55922
3.5509
3.54018
3.53021
3.51957
3.50794
3.49537
3.48166
3.46728
3.45264
3.43769
3.42229
3.40644
3.39025
3.37383
3.35729
3.34073
3.32421
3.30779
3.29155
3.2755
3.2597
3.24416
3.22891
3.21394
3.19924
3.18481
3.17061
3.15662
3.1428
3.12913
3.11558
3.10211
3.08872
3.07537
3.06206
3.04877
3.03549
3.02222
3.00894
2.99565
2.98234
2.969
2.95563
2.94223
2.9288
2.91533
2.90183
2.8883
2.87474
2.86116
2.84756
2.83394
2.8203
2.80666
2.79301
2.77935
2.76568
2.75202
2.73835
2.72468
2.71101
2.69733
2.68366
2.66999
2.65631
2.64263
2.62895
2.61527
2.60159
2.5879
2.57421
2.56052
2.54683
2.53313
2.51943
2.50574
2.49204
2.47835
2.46466
2.45097
2.4373
2.42363
2.40997
2.39633
2.3827
2.36909
2.3555
2.34193
2.32838
2.31486
2.30136
2.28789
2.27446
2.26105
2.24768
2.23435
2.22105
2.2078
2.19458
2.1814
2.16825
2.15514
2.14207
2.12903
2.11603
2.10307
2.09014
2.07725
2.06441
2.05161
2.03886
2.02615
2.01349
2.00089
1.98833
1.97583
1.96338
3.28537
3.27991
3.27398
3.26748
3.26045
3.25313
3.24461
3.23513
3.22572
3.21547
3.20443
3.19274
3.18023
3.16693
3.15336
3.13949
3.12516
3.11039
3.09525
3.07986
3.06429
3.04861
3.03289
3.01719
3.00156
2.98607
2.97074
2.95562
2.94074
2.92609
2.91169
2.89753
2.88359
2.86984
2.85627
2.84284
2.82953
2.81633
2.80321
2.79015
2.77713
2.76415
2.75119
2.73824
2.72529
2.71233
2.69936
2.68636
2.67334
2.6603
2.64723
2.63414
2.62103
2.60791
2.59477
2.58162
2.56847
2.55531
2.54216
2.529
2.51585
2.5027
2.48955
2.47641
2.46328
2.45015
2.43703
2.42391
2.4108
2.3977
2.38461
2.37153
2.35846
2.3454
2.33235
2.31932
2.30631
2.29332
2.28035
2.2674
2.25448
2.24159
2.22873
2.2159
2.20311
2.19036
2.17764
2.16496
2.15231
2.1397
2.12712
2.11457
2.10206
2.08957
2.07712
2.06471
2.05234
2.04
2.0277
2.01545
2.00323
1.99106
1.97893
1.96685
1.95482
1.94284
1.9309
1.91899
1.90711
1.89526
1.88342
1.8716
1.85978
1.84796
1.83616
1.82439
1.81267
1.80098
1.78933
1.77771
1.76614
1.7546
1.74309
2.99835
2.99263
2.9865
2.97995
2.97308
2.96602
2.95749
2.94882
2.93971
2.9299
2.91951
2.9086
2.89722
2.885
2.87244
2.85958
2.8463
2.83261
2.81857
2.80427
2.78977
2.77512
2.76039
2.74563
2.73091
2.71628
2.70178
2.68744
2.67329
2.65933
2.64557
2.63201
2.61863
2.60542
2.59236
2.57943
2.56661
2.55389
2.54125
2.52867
2.51613
2.50364
2.49117
2.47871
2.46626
2.4538
2.44134
2.42886
2.41638
2.40388
2.39137
2.37885
2.36633
2.3538
2.34128
2.32876
2.31625
2.30375
2.29126
2.2788
2.26635
2.25392
2.24151
2.22913
2.21678
2.20445
2.19215
2.17988
2.16764
2.15543
2.14326
2.13111
2.11899
2.1069
2.09484
2.0828
2.0708
2.05882
2.04688
2.03497
2.02311
2.01127
1.99948
1.98772
1.97601
1.96433
1.9527
1.94112
1.92957
1.91806
1.90657
1.8951
1.88364
1.87219
1.86074
1.8493
1.8379
1.82653
1.81519
1.80389
1.79263
1.78141
1.77023
1.75908
1.74797
1.7369
1.72589
1.71495
1.7041
1.69333
1.68266
1.67211
1.66168
1.65138
1.64117
1.63102
1.62093
1.61091
1.60095
1.59107
1.58127
1.57154
1.5619
1.55234
1.54288
2.73578
2.72987
2.72365
2.71716
2.71055
2.70332
2.69522
2.68692
2.6781
2.66875
2.65894
2.64872
2.63816
2.62691
2.61521
2.60322
2.59086
2.57814
2.56511
2.55183
2.53835
2.52473
2.51101
2.49725
2.4835
2.46982
2.45623
2.44276
2.42944
2.41627
2.40327
2.39042
2.37772
2.36517
2.35276
2.34046
2.32827
2.31618
2.30417
2.29222
2.28033
2.26848
2.25667
2.24488
2.2331
2.22134
2.20959
2.19785
2.18611
2.17438
2.16267
2.15096
2.13928
2.12761
2.11596
2.10433
2.09272
2.08113
2.06957
2.05802
2.04651
2.03502
2.02357
2.01215
2.00076
1.9894
1.97808
1.96679
1.95554
1.94432
1.93315
1.92201
1.9109
1.8998
1.88872
1.87764
1.86656
1.8555
1.84446
1.83346
1.82249
1.81156
1.80067
1.78981
1.77899
1.76821
1.75747
1.74675
1.73609
1.72551
1.715
1.70458
1.69425
1.68404
1.67395
1.66396
1.65402
1.64414
1.63431
1.62455
1.61484
1.60521
1.59564
1.58614
1.57673
1.56739
1.55813
1.54894
1.53983
1.53079
1.52183
1.51293
1.50411
1.49535
1.48667
1.47811
1.46964
1.46129
1.45304
1.44491
1.43688
1.42897
1.42118
1.41351
1.40596
2.49827
2.49228
2.48609
2.47976
2.47318
2.46589
2.4582
2.45014
2.44164
2.43273
2.42344
2.41378
2.40377
2.39343
2.38248
2.37123
2.35969
2.34785
2.33575
2.32343
2.31093
2.2983
2.28558
2.27283
2.26008
2.24737
2.23474
2.22221
2.2098
2.19752
2.18538
2.17339
2.16154
2.14983
2.13825
2.12679
2.11544
2.10419
2.09303
2.08193
2.07088
2.05988
2.04892
2.03798
2.02707
2.01618
2.0053
1.99443
1.98358
1.97273
1.96191
1.9511
1.94032
1.92956
1.91883
1.90811
1.89741
1.88671
1.87601
1.86532
1.85464
1.84399
1.83337
1.82279
1.81224
1.80172
1.79124
1.7808
1.77039
1.76002
1.74968
1.7394
1.72919
1.71906
1.70902
1.69908
1.68925
1.67952
1.66983
1.66019
1.6506
1.64107
1.63159
1.62217
1.61282
1.60353
1.5943
1.58515
1.57606
1.56705
1.55809
1.54921
1.54038
1.53161
1.52289
1.51424
1.50568
1.49721
1.48884
1.48055
1.47236
1.46427
1.45628
1.44839
1.4406
1.43291
1.42532
1.41784
1.41047
1.40321
1.39606
1.38903
1.38213
1.37535
1.3687
1.36219
1.35581
1.34957
1.34347
1.33752
1.33172
1.32606
1.32056
1.31521
1.31002
2.29028
2.28451
2.27858
2.27252
2.2663
2.25969
2.25263
2.24523
2.23747
2.22936
2.2209
2.21212
2.20303
2.19361
2.18388
2.1738
2.16343
2.15269
2.14175
2.13061
2.11929
2.10783
2.09626
2.08461
2.07293
2.06125
2.04959
2.03799
2.02647
2.01505
2.00374
1.99256
1.98151
1.97058
1.95979
1.94911
1.93854
1.92808
1.91771
1.9074
1.89715
1.88693
1.87672
1.86653
1.85636
1.84621
1.83608
1.82596
1.81586
1.80578
1.79571
1.78567
1.77565
1.76565
1.75568
1.74576
1.73589
1.72611
1.7164
1.7068
1.6973
1.68785
1.67844
1.66908
1.65976
1.6505
1.64129
1.63213
1.62303
1.61399
1.60501
1.59609
1.58723
1.57843
1.56969
1.56099
1.55235
1.54375
1.53521
1.52675
1.51837
1.51007
1.50186
1.49372
1.48567
1.47771
1.46983
1.46204
1.45435
1.44674
1.43922
1.4318
1.42447
1.41724
1.41012
1.4031
1.3962
1.38941
1.38273
1.37618
1.36974
1.36343
1.35724
1.35119
1.34526
1.33946
1.33381
1.32829
1.32291
1.31767
1.31259
1.30765
1.30287
1.29825
1.29379
1.28948
1.28535
1.28138
1.27757
1.27395
1.2705
1.26722
1.26413
1.26122
1.2585
1.25596
2.09914
2.09351
2.08777
2.08191
2.07582
2.06941
2.06268
2.05564
2.0483
2.04067
2.03276
2.02457
2.01611
2.00737
1.99835
1.98906
1.97951
1.96973
1.95965
1.94942
1.93904
1.92854
1.91796
1.90731
1.89661
1.8859
1.8752
1.8645
1.85385
1.84328
1.83282
1.82247
1.81223
1.80212
1.79212
1.78225
1.77247
1.7628
1.75322
1.74374
1.73436
1.72508
1.7159
1.7068
1.69773
1.68869
1.67968
1.6707
1.66175
1.65284
1.64396
1.63513
1.62633
1.61759
1.6089
1.60026
1.59167
1.58312
1.57462
1.56616
1.55773
1.54938
1.54109
1.53287
1.52473
1.51665
1.50866
1.50073
1.49288
1.48511
1.47742
1.46981
1.46227
1.45482
1.44745
1.44016
1.43296
1.42586
1.41885
1.41194
1.40514
1.39844
1.39184
1.38535
1.37897
1.3727
1.36654
1.3605
1.35458
1.34877
1.3431
1.33754
1.33212
1.32683
1.32167
1.31665
1.31177
1.30703
1.30243
1.29798
1.29368
1.28953
1.28554
1.2817
1.27802
1.27451
1.27116
1.26797
1.26495
1.26211
1.25944
1.25695
1.25463
1.2525
1.25055
1.24878
1.2472
1.24582
1.24462
1.24362
1.24282
1.24221
1.2418
1.2416
1.2416
1.24181
1.24223
1.24286
1.92974
1.92435
1.91884
1.9132
1.90733
1.90121
1.89483
1.88817
1.88126
1.87409
1.86668
1.85902
1.85111
1.84296
1.83457
1.82593
1.81707
1.80799
1.79869
1.78926
1.77965
1.76994
1.76014
1.75031
1.74049
1.73072
1.72104
1.71149
1.70207
1.69275
1.68352
1.67442
1.66542
1.65654
1.64777
1.63911
1.63056
1.62209
1.61371
1.60539
1.59713
1.58891
1.58073
1.57258
1.56449
1.55645
1.54846
1.54052
1.53263
1.5248
1.51703
1.50931
1.50166
1.49407
1.48655
1.4791
1.47171
1.4644
1.45716
1.45
1.44293
1.43594
1.42904
1.42222
1.4155
1.40887
1.40234
1.3959
1.38956
1.38332
1.37718
1.37115
1.36522
1.35941
1.3537
1.34811
1.34263
1.33728
1.33204
1.32693
1.32194
1.31709
1.31236
1.30776
1.3033
1.29898
1.2948
1.29075
1.28686
1.28311
1.27951
1.27605
1.27276
1.26962
1.26663
1.26381
1.26114
1.25865
1.25631
1.25415
1.25216
1.25033
1.24869
1.24722
1.24593
1.24482
1.24389
1.24315
1.24259
1.24222
1.24204
1.24206
1.24226
1.24267
1.24327
1.24407
1.24507
1.24628
1.24769
1.2493
1.25113
1.25317
1.25542
1.25789
1.26058
1.26348
1.26662
1.26997
1.77954
1.77442
1.76919
1.76382
1.75826
1.75249
1.74652
1.74035
1.73396
1.72736
1.72056
1.71355
1.70634
1.69893
1.69133
1.68354
1.67557
1.66744
1.65915
1.65075
1.64225
1.63369
1.62509
1.61648
1.60787
1.59929
1.59075
1.58226
1.57384
1.56554
1.55736
1.5493
1.54137
1.53356
1.52586
1.51827
1.51079
1.50339
1.49608
1.48885
1.48169
1.4746
1.46758
1.46062
1.45374
1.44691
1.44016
1.43348
1.42687
1.42033
1.41388
1.4075
1.40121
1.395
1.38889
1.38286
1.37694
1.37111
1.36538
1.35975
1.35423
1.34881
1.34351
1.33831
1.33323
1.32826
1.32341
1.31868
1.31407
1.30958
1.30522
1.30099
1.29689
1.29292
1.28908
1.28538
1.28182
1.2784
1.27513
1.27199
1.26901
1.26617
1.26348
1.26095
1.25857
1.25634
1.25428
1.25238
1.25063
1.24905
1.24764
1.2464
1.24532
1.24441
1.24368
1.24312
1.24274
1.24254
1.24251
1.24267
1.24301
1.24353
1.24424
1.24513
1.24622
1.2475
1.24897
1.25063
1.25249
1.25455
1.25681
1.25927
1.26194
1.26481
1.26789
1.27118
1.27469
1.27841
1.28235
1.2865
1.29088
1.29547
1.30027
1.30528
1.31048
1.31587
1.32143
1.32712
1.64987
1.64514
1.64031
1.63535
1.63023
1.62495
1.61949
1.61384
1.60802
1.60202
1.59584
1.5895
1.58298
1.5763
1.56946
1.56246
1.55532
1.54805
1.54068
1.53322
1.5257
1.51814
1.51057
1.50301
1.49548
1.48801
1.48061
1.4733
1.4661
1.45902
1.45207
1.44525
1.43855
1.43198
1.42553
1.41919
1.41296
1.40683
1.4008
1.39487
1.38902
1.38326
1.37758
1.37199
1.36649
1.36107
1.35574
1.3505
1.34536
1.34031
1.33537
1.33053
1.32579
1.32116
1.31665
1.31225
1.30796
1.30379
1.29975
1.29583
1.29203
1.28836
1.28481
1.2814
1.27812
1.27498
1.27197
1.2691
1.26637
1.26378
1.26133
1.25903
1.25688
1.25487
1.25302
1.25131
1.24976
1.24837
1.24713
1.24605
1.24513
1.24437
1.24377
1.24334
1.24307
1.24298
1.24305
1.24329
1.2437
1.24428
1.24504
1.24598
1.24709
1.24838
1.24986
1.25151
1.25335
1.25537
1.25758
1.25998
1.26256
1.26534
1.26832
1.27149
1.27486
1.27843
1.2822
1.28618
1.29036
1.29475
1.29935
1.30415
1.30915
1.31434
1.31971
1.32524
1.33092
1.33671
1.34258
1.3485
1.35441
1.36026
1.366
1.37156
1.3769
1.38197
1.38673
1.39116
1.39523
1.53344
1.52912
1.52469
1.52013
1.51543
1.51059
1.50561
1.50048
1.49521
1.4898
1.48425
1.47856
1.47274
1.46679
1.46072
1.45456
1.4483
1.44198
1.4356
1.4292
1.4228
1.41643
1.41009
1.40382
1.39764
1.39155
1.38558
1.37974
1.37402
1.36845
1.363
1.35769
1.35252
1.34747
1.34254
1.33773
1.33303
1.32844
1.32396
1.31958
1.3153
1.31113
1.30706
1.30309
1.29923
1.29548
1.29184
1.28832
1.28491
1.28162
1.27845
1.27541
1.2725
1.26971
1.26705
1.26453
1.26214
1.25989
1.25777
1.2558
1.25396
1.25227
1.25072
1.24932
1.24806
1.24695
1.24599
1.24518
1.24452
1.24402
1.24367
1.24347
1.24344
1.24356
1.24384
1.24428
1.24488
1.24565
1.24658
1.24768
1.24894
1.25038
1.25198
1.25375
1.2557
1.25781
1.26011
1.26258
1.26523
1.26806
1.27107
1.27426
1.27764
1.28121
1.28497
1.28892
1.29306
1.29739
1.30193
1.30665
1.31157
1.31667
1.32196
1.32741
1.333
1.33873
1.34455
1.35044
1.35634
1.36222
1.36801
1.37366
1.37911
1.38431
1.38922
1.39381
1.39804
1.40191
1.40541
1.40853
1.4113
1.41378
1.41603
1.41819
1.42037
1.4226
1.4248
1.42692
1.43971
1.43604
1.43228
1.42842
1.42445
1.42038
1.41619
1.41189
1.40748
1.40296
1.39833
1.3936
1.38877
1.38385
1.37885
1.37379
1.36868
1.36355
1.3584
1.35327
1.34818
1.34314
1.33818
1.33331
1.32855
1.32391
1.3194
1.31503
1.31081
1.30672
1.30278
1.29898
1.29532
1.29179
1.28839
1.28512
1.28197
1.27893
1.27602
1.27322
1.27053
1.26797
1.26552
1.26319
1.26099
1.25891
1.25695
1.25512
1.25343
1.25186
1.25043
1.24914
1.24798
1.24696
1.24608
1.24535
1.24476
1.24431
1.24401
1.24385
1.24384
1.24398
1.24427
1.24471
1.2453
1.24604
1.24694
1.24799
1.2492
1.25057
1.25209
1.25377
1.25561
1.25761
1.25978
1.26211
1.2646
1.26726
1.27009
1.27308
1.27625
1.27959
1.28311
1.2868
1.29067
1.29472
1.29895
1.30336
1.30796
1.31274
1.31771
1.32284
1.32815
1.33361
1.33921
1.34493
1.35074
1.3566
1.36247
1.3683
1.37403
1.37962
1.38499
1.3901
1.39492
1.3994
1.40352
1.40728
1.41065
1.41366
1.41633
1.41873
1.42094
1.42309
1.42528
1.42748
1.42964
1.43167
1.43356
1.43528
1.43682
1.43816
1.43925
1.43995
1.44011
1.43969
1.43874
1.43726
1.36129
1.35834
1.35531
1.35221
1.34903
1.34577
1.34242
1.33899
1.33549
1.33191
1.32826
1.32455
1.32079
1.31698
1.31316
1.30932
1.3055
1.30171
1.29796
1.29429
1.2907
1.28722
1.28385
1.28061
1.27751
1.27455
1.27174
1.26908
1.26657
1.2642
1.26198
1.25989
1.25794
1.25613
1.25445
1.25289
1.25146
1.25015
1.24897
1.24792
1.24699
1.24619
1.24552
1.24498
1.24457
1.24429
1.24415
1.24415
1.24429
1.24456
1.24497
1.24553
1.24623
1.24707
1.24806
1.24919
1.25047
1.25189
1.25346
1.25518
1.25705
1.25908
1.26125
1.26357
1.26605
1.26869
1.27148
1.27442
1.27753
1.28079
1.28422
1.28781
1.29156
1.29549
1.29958
1.30384
1.30827
1.31288
1.31765
1.3226
1.32771
1.33299
1.33841
1.34397
1.34964
1.35539
1.3612
1.36702
1.3728
1.3785
1.38404
1.38938
1.39446
1.39924
1.40369
1.40778
1.4115
1.41484
1.41782
1.42047
1.42284
1.42504
1.42718
1.42937
1.43154
1.43365
1.43564
1.43747
1.43913
1.44062
1.4419
1.44289
1.44345
1.44344
1.44292
1.44188
1.44032
1.43822
1.43554
1.43218
1.42803
1.42296
1.41687
1.40966
1.40119
1.39132
1.37994
1.30283
1.30076
1.29864
1.29646
1.29423
1.29194
1.28961
1.28722
1.28479
1.28233
1.27984
1.27733
1.27482
1.27232
1.26985
1.26742
1.26506
1.26278
1.2606
1.25852
1.25657
1.25475
1.25307
1.25153
1.25014
1.24891
1.24782
1.24688
1.24608
1.24543
1.24491
1.24453
1.24429
1.24417
1.24418
1.24433
1.2446
1.24499
1.24552
1.24617
1.24696
1.24788
1.24893
1.25011
1.25143
1.25288
1.25448
1.25621
1.25808
1.26009
1.26224
1.26453
1.26697
1.26955
1.27228
1.27515
1.27817
1.28133
1.28465
1.28811
1.29173
1.2955
1.29943
1.30352
1.30776
1.31216
1.31673
1.32145
1.32634
1.33138
1.33658
1.34192
1.3474
1.35298
1.35866
1.36439
1.37015
1.37589
1.38155
1.38708
1.39242
1.39751
1.40232
1.4068
1.41094
1.4147
1.41809
1.42112
1.4238
1.4262
1.42841
1.43055
1.43271
1.43486
1.43694
1.43891
1.44072
1.44238
1.44385
1.44512
1.44609
1.44663
1.44662
1.44612
1.44512
1.44363
1.44161
1.439
1.43572
1.43164
1.42666
1.42066
1.41356
1.40519
1.39543
1.38417
1.37126
1.35654
1.33986
1.32108
1.30006
1.2767
1.25091
1.22261
1.19177
1.1584
1.12253
1.08426
1.26537
1.26433
1.26327
1.26217
1.26105
1.25989
1.25872
1.25752
1.2563
1.25508
1.25386
1.25266
1.25149
1.25036
1.24928
1.24828
1.24737
1.24656
1.24586
1.24529
1.24485
1.24454
1.24438
1.24437
1.2445
1.24478
1.2452
1.24576
1.24646
1.2473
1.24827
1.24937
1.2506
1.25196
1.25345
1.25506
1.2568
1.25866