/*--------------------------------*- C++ -*----------------------------------*\
| =========                 |                                                 |
| \\      /  F ield         | OpenFOAM: The Open Source CFD Toolbox           |
|  \\    /   O peration     | Version:  v1706                                 |
|   \\  /    A nd           | Web:      www.OpenFOAM.com                      |
|    \\/     M anipulation  |                                                 |
\*---------------------------------------------------------------------------*/
FoamFile
{
    version     2.0;
    format      ascii;
    class       volScalarField;
    location    "3e-06";
    object      mu;
}
// * * * * * * * * * * * * * * * * * * * * * * * * * * * * * * * * * * * * * //

dimensions      [1 -1 -1 0 0 0 0];


internalField   nonuniform List<scalar> 
29871
(
1.0351e-05
1.0351e-05
1.0351e-05
1.0351e-05
1.0351e-05
1.0351e-05
1.0351e-05
1.0351e-05
1.0351e-05
1.0351e-05
1.0351e-05
1.0351e-05
1.0351e-05
1.0351e-05
1.0351e-05
1.0351e-05
1.0351e-05
1.0351e-05
1.0351e-05
1.0351e-05
1.0351e-05
1.0351e-05
1.0351e-05
1.0351e-05
1.0351e-05
1.0351e-05
1.0351e-05
1.0351e-05
1.0351e-05
1.0351e-05
1.0351e-05
1.0351e-05
1.0351e-05
1.0351e-05
1.0351e-05
1.0351e-05
1.0351e-05
1.0351e-05
1.0351e-05
1.0351e-05
1.0351e-05
1.0351e-05
1.0351e-05
1.0351e-05
1.0351e-05
1.0351e-05
1.0351e-05
1.0351e-05
1.0351e-05
1.0351e-05
1.0351e-05
1.0351e-05
1.0351e-05
1.0351e-05
1.0351e-05
1.0351e-05
1.0351e-05
1.0351e-05
1.0351e-05
1.0351e-05
1.0351e-05
1.0351e-05
1.0351e-05
1.0351e-05
1.0351e-05
1.0351e-05
1.0351e-05
1.0351e-05
1.0351e-05
1.0351e-05
1.0351e-05
1.0351e-05
1.0351e-05
1.0351e-05
1.0351e-05
1.0351e-05
1.0351e-05
1.0351e-05
1.0351e-05
1.0351e-05
1.0351e-05
1.0351e-05
1.0351e-05
1.0351e-05
1.0351e-05
1.0351e-05
1.0351e-05
1.0351e-05
1.0351e-05
1.0351e-05
1.0351e-05
1.0351e-05
1.0351e-05
1.0351e-05
1.0351e-05
1.0351e-05
1.0351e-05
1.0351e-05
1.0351e-05
1.0351e-05
1.0351e-05
1.0351e-05
1.0351e-05
1.0351e-05
1.0351e-05
1.0351e-05
1.0351e-05
1.0351e-05
1.0351e-05
1.0351e-05
1.0351e-05
1.0351e-05
1.0351e-05
1.0351e-05
1.0351e-05
1.0351e-05
1.0351e-05
1.0351e-05
1.0351e-05
1.0351e-05
1.0351e-05
1.0351e-05
1.0351e-05
1.0351e-05
1.0351e-05
1.0351e-05
1.0351e-05
1.0351e-05
1.0351e-05
1.0351e-05
1.0351e-05
1.0351e-05
1.0351e-05
1.0351e-05
1.0351e-05
1.0351e-05
1.0351e-05
1.0351e-05
1.0351e-05
1.0351e-05
1.0351e-05
1.0351e-05
1.0351e-05
1.0351e-05
1.0351e-05
1.0351e-05
1.0351e-05
1.0351e-05
1.0351e-05
1.0351e-05
1.0351e-05
1.0351e-05
1.0351e-05
1.0351e-05
1.0351e-05
1.0351e-05
1.0351e-05
1.0351e-05
1.0351e-05
1.0351e-05
1.0351e-05
1.0351e-05
1.0351e-05
1.0351e-05
1.0351e-05
1.0351e-05
1.0351e-05
1.0351e-05
1.0351e-05
1.0351e-05
1.0351e-05
1.0351e-05
1.0351e-05
1.0351e-05
1.0351e-05
1.0351e-05
1.0351e-05
1.0351e-05
1.0351e-05
1.0351e-05
1.0351e-05
1.0351e-05
1.0351e-05
1.0351e-05
1.0351e-05
1.0351e-05
1.03511e-05
1.03511e-05
1.03511e-05
1.03511e-05
1.03511e-05
1.03511e-05
1.03511e-05
1.03511e-05
1.03511e-05
1.03511e-05
1.03511e-05
1.03511e-05
1.03511e-05
1.03511e-05
1.03511e-05
1.03511e-05
1.03511e-05
1.03511e-05
1.03511e-05
1.03511e-05
1.03511e-05
1.03511e-05
1.03511e-05
1.03511e-05
1.0351e-05
1.0351e-05
1.0351e-05
1.0351e-05
1.0351e-05
1.0351e-05
1.0351e-05
1.0351e-05
1.0351e-05
1.0351e-05
1.0351e-05
1.0351e-05
1.0351e-05
1.0351e-05
1.0351e-05
1.0351e-05
1.0351e-05
1.0351e-05
1.03511e-05
1.03511e-05
1.03511e-05
1.03511e-05
1.03511e-05
1.03511e-05
1.03511e-05
1.03511e-05
1.03511e-05
1.03511e-05
1.03511e-05
1.03511e-05
1.03511e-05
1.03511e-05
1.03511e-05
1.03511e-05
1.03511e-05
1.03511e-05
1.03511e-05
1.03511e-05
1.03511e-05
1.03511e-05
1.03511e-05
1.03511e-05
1.03511e-05
1.03511e-05
1.03511e-05
1.03511e-05
1.03511e-05
1.03511e-05
1.03511e-05
1.03511e-05
1.03511e-05
1.03511e-05
1.03511e-05
1.03511e-05
1.03511e-05
1.03512e-05
1.03512e-05
1.03512e-05
1.03512e-05
1.03512e-05
1.03512e-05
1.03512e-05
1.03512e-05
1.03512e-05
1.03512e-05
1.03512e-05
1.03512e-05
1.03512e-05
1.03512e-05
1.03512e-05
1.03512e-05
1.03512e-05
1.03513e-05
1.03513e-05
1.03513e-05
1.03513e-05
1.03513e-05
1.03513e-05
1.03513e-05
1.03513e-05
1.03513e-05
1.03513e-05
1.03513e-05
1.03514e-05
1.03514e-05
1.03514e-05
1.03514e-05
1.03514e-05
1.03514e-05
1.03514e-05
1.03514e-05
1.03515e-05
1.03515e-05
1.03515e-05
1.03515e-05
1.03515e-05
1.03515e-05
1.03515e-05
1.03516e-05
1.03516e-05
1.03516e-05
1.03516e-05
1.03516e-05
1.03517e-05
1.03517e-05
1.03517e-05
1.03511e-05
1.03511e-05
1.03511e-05
1.03511e-05
1.03512e-05
1.03512e-05
1.03512e-05
1.03512e-05
1.03512e-05
1.03512e-05
1.03512e-05
1.03512e-05
1.03512e-05
1.03512e-05
1.03512e-05
1.03512e-05
1.03513e-05
1.03513e-05
1.03513e-05
1.03513e-05
1.03513e-05
1.03513e-05
1.03513e-05
1.03513e-05
1.03513e-05
1.03514e-05
1.03514e-05
1.03514e-05
1.03514e-05
1.03514e-05
1.03514e-05
1.03514e-05
1.03514e-05
1.03515e-05
1.03515e-05
1.03515e-05
1.03515e-05
1.03515e-05
1.03515e-05
1.03515e-05
1.03516e-05
1.03516e-05
1.03516e-05
1.03516e-05
1.03516e-05
1.03517e-05
1.03517e-05
1.03517e-05
1.03517e-05
1.03517e-05
1.03518e-05
1.03518e-05
1.03518e-05
1.03518e-05
1.03519e-05
1.03519e-05
1.03519e-05
1.03519e-05
1.0352e-05
1.0352e-05
1.0352e-05
1.03521e-05
1.03521e-05
1.03521e-05
1.03522e-05
1.03522e-05
1.03523e-05
1.03523e-05
1.03523e-05
1.03524e-05
1.03524e-05
1.03525e-05
1.03525e-05
1.03526e-05
1.03526e-05
1.03527e-05
1.03527e-05
1.03528e-05
1.03528e-05
1.03529e-05
1.0353e-05
1.0353e-05
1.03531e-05
1.03532e-05
1.03532e-05
1.03533e-05
1.03534e-05
1.03535e-05
1.03536e-05
1.03536e-05
1.03537e-05
1.03538e-05
1.03539e-05
1.0354e-05
1.03541e-05
1.03542e-05
1.03543e-05
1.03544e-05
1.03546e-05
1.03547e-05
1.03548e-05
1.03549e-05
1.03551e-05
1.03552e-05
1.03554e-05
1.03555e-05
1.03517e-05
1.03517e-05
1.03517e-05
1.03517e-05
1.03517e-05
1.03518e-05
1.03518e-05
1.03518e-05
1.03519e-05
1.03519e-05
1.0352e-05
1.0352e-05
1.03521e-05
1.03521e-05
1.03522e-05
1.03522e-05
1.03523e-05
1.03523e-05
1.03524e-05
1.03524e-05
1.03525e-05
1.03526e-05
1.03526e-05
1.03527e-05
1.03527e-05
1.03528e-05
1.03529e-05
1.03529e-05
1.0353e-05
1.03531e-05
1.03531e-05
1.03532e-05
1.03533e-05
1.03534e-05
1.03534e-05
1.03535e-05
1.03536e-05
1.03537e-05
1.03538e-05
1.03539e-05
1.0354e-05
1.03541e-05
1.03542e-05
1.03543e-05
1.03544e-05
1.03545e-05
1.03546e-05
1.03547e-05
1.03549e-05
1.0355e-05
1.03551e-05
1.03552e-05
1.03554e-05
1.03555e-05
1.03557e-05
1.03558e-05
1.0356e-05
1.03562e-05
1.03564e-05
1.03565e-05
1.03567e-05
1.03569e-05
1.03571e-05
1.03573e-05
1.03575e-05
1.03578e-05
1.0358e-05
1.03582e-05
1.03585e-05
1.03588e-05
1.0359e-05
1.03593e-05
1.03596e-05
1.03599e-05
1.03602e-05
1.03605e-05
1.03609e-05
1.03612e-05
1.03616e-05
1.03619e-05
1.03623e-05
1.03627e-05
1.03631e-05
1.03636e-05
1.0364e-05
1.03645e-05
1.03649e-05
1.03654e-05
1.03659e-05
1.03665e-05
1.0367e-05
1.03676e-05
1.03681e-05
1.03687e-05
1.03694e-05
1.037e-05
1.03707e-05
1.03714e-05
1.03721e-05
1.03728e-05
1.03736e-05
1.03744e-05
1.03752e-05
1.03761e-05
1.0377e-05
1.03779e-05
1.03789e-05
1.03542e-05
1.03543e-05
1.03544e-05
1.03545e-05
1.03547e-05
1.03548e-05
1.0355e-05
1.03552e-05
1.03554e-05
1.03557e-05
1.03559e-05
1.03561e-05
1.03564e-05
1.03567e-05
1.03569e-05
1.03572e-05
1.03575e-05
1.03578e-05
1.03581e-05
1.03584e-05
1.03587e-05
1.03591e-05
1.03594e-05
1.03597e-05
1.036e-05
1.03604e-05
1.03607e-05
1.03611e-05
1.03615e-05
1.03619e-05
1.03623e-05
1.03627e-05
1.03631e-05
1.03635e-05
1.0364e-05
1.03644e-05
1.03649e-05
1.03654e-05
1.03659e-05
1.03664e-05
1.03669e-05
1.03675e-05
1.03681e-05
1.03687e-05
1.03693e-05
1.037e-05
1.03706e-05
1.03713e-05
1.0372e-05
1.03728e-05
1.03735e-05
1.03743e-05
1.03752e-05
1.0376e-05
1.03769e-05
1.03778e-05
1.03788e-05
1.03797e-05
1.03808e-05
1.03818e-05
1.03829e-05
1.0384e-05
1.03852e-05
1.03864e-05
1.03877e-05
1.0389e-05
1.03904e-05
1.03918e-05
1.03933e-05
1.03948e-05
1.03964e-05
1.0398e-05
1.03997e-05
1.04015e-05
1.04033e-05
1.04053e-05
1.04072e-05
1.04093e-05
1.04115e-05
1.04137e-05
1.0416e-05
1.04184e-05
1.04209e-05
1.04235e-05
1.04262e-05
1.04289e-05
1.04318e-05
1.04348e-05
1.04379e-05
1.04411e-05
1.04445e-05
1.04479e-05
1.04515e-05
1.04552e-05
1.0459e-05
1.0463e-05
1.04671e-05
1.04714e-05
1.04758e-05
1.04804e-05
1.04852e-05
1.04902e-05
1.04953e-05
1.05007e-05
1.05062e-05
1.0512e-05
1.05181e-05
1.03658e-05
1.03659e-05
1.03662e-05
1.03666e-05
1.03671e-05
1.03676e-05
1.03683e-05
1.03691e-05
1.03699e-05
1.03709e-05
1.03719e-05
1.0373e-05
1.03742e-05
1.03754e-05
1.03768e-05
1.03781e-05
1.03795e-05
1.0381e-05
1.03825e-05
1.0384e-05
1.03856e-05
1.03872e-05
1.03888e-05
1.03904e-05
1.03921e-05
1.03938e-05
1.03956e-05
1.03974e-05
1.03993e-05
1.04012e-05
1.04031e-05
1.04051e-05
1.04072e-05
1.04093e-05
1.04115e-05
1.04138e-05
1.04161e-05
1.04185e-05
1.0421e-05
1.04235e-05
1.04262e-05
1.04289e-05
1.04318e-05
1.04347e-05
1.04378e-05
1.04409e-05
1.04442e-05
1.04476e-05
1.04512e-05
1.04549e-05
1.04587e-05
1.04627e-05
1.04668e-05
1.04711e-05
1.04755e-05
1.04801e-05
1.04848e-05
1.04898e-05
1.04949e-05
1.05002e-05
1.05057e-05
1.05114e-05
1.05173e-05
1.05235e-05
1.05298e-05
1.05364e-05
1.05433e-05
1.05504e-05
1.05577e-05
1.05654e-05
1.05734e-05
1.05816e-05
1.05902e-05
1.05991e-05
1.06084e-05
1.06181e-05
1.06282e-05
1.06386e-05
1.06496e-05
1.06609e-05
1.06728e-05
1.06851e-05
1.0698e-05
1.07113e-05
1.07253e-05
1.07398e-05
1.07549e-05
1.07706e-05
1.0787e-05
1.0804e-05
1.08216e-05
1.08399e-05
1.0859e-05
1.08787e-05
1.08991e-05
1.09202e-05
1.09421e-05
1.09648e-05
1.09881e-05
1.10123e-05
1.10372e-05
1.1063e-05
1.10895e-05
1.11169e-05
1.11452e-05
1.11743e-05
1.12043e-05
1.12353e-05
1.12674e-05
1.13004e-05
1.04202e-05
1.04214e-05
1.04231e-05
1.04252e-05
1.04278e-05
1.04309e-05
1.04344e-05
1.04383e-05
1.04427e-05
1.04475e-05
1.04527e-05
1.04583e-05
1.04643e-05
1.04707e-05
1.04773e-05
1.04842e-05
1.04913e-05
1.04987e-05
1.05062e-05
1.05139e-05
1.05217e-05
1.05297e-05
1.05378e-05
1.05462e-05
1.05547e-05
1.05635e-05
1.05724e-05
1.05817e-05
1.05912e-05
1.06009e-05
1.0611e-05
1.06213e-05
1.0632e-05
1.06429e-05
1.06542e-05
1.06658e-05
1.06778e-05
1.06901e-05
1.07028e-05
1.0716e-05
1.07297e-05
1.07438e-05
1.07585e-05
1.07737e-05
1.07895e-05
1.08059e-05
1.0823e-05
1.08407e-05
1.08592e-05
1.08784e-05
1.08983e-05
1.0919e-05
1.09406e-05
1.09629e-05
1.09862e-05
1.10103e-05
1.10353e-05
1.10612e-05
1.1088e-05
1.11158e-05
1.11446e-05
1.11744e-05
1.12052e-05
1.1237e-05
1.12698e-05
1.13038e-05
1.13388e-05
1.13749e-05
1.14122e-05
1.14506e-05
1.14902e-05
1.15311e-05
1.15733e-05
1.16169e-05
1.16618e-05
1.17083e-05
1.17562e-05
1.18058e-05
1.18571e-05
1.19102e-05
1.19653e-05
1.20223e-05
1.20813e-05
1.21426e-05
1.22062e-05
1.22722e-05
1.23407e-05
1.24118e-05
1.24855e-05
1.2562e-05
1.26413e-05
1.27235e-05
1.28086e-05
1.28966e-05
1.29876e-05
1.30815e-05
1.31784e-05
1.32781e-05
1.33806e-05
1.34859e-05
1.35938e-05
1.37043e-05
1.38172e-05
1.39325e-05
1.40499e-05
1.41695e-05
1.42911e-05
1.44146e-05
1.45399e-05
1.4667e-05
1.0665e-05
1.0672e-05
1.06811e-05
1.06923e-05
1.07056e-05
1.07209e-05
1.07382e-05
1.07575e-05
1.07787e-05
1.08019e-05
1.08269e-05
1.08536e-05
1.08819e-05
1.09117e-05
1.09428e-05
1.09751e-05
1.10084e-05
1.10426e-05
1.10776e-05
1.11133e-05
1.11497e-05
1.11868e-05
1.12246e-05
1.12633e-05
1.13028e-05
1.13434e-05
1.13849e-05
1.14275e-05
1.14712e-05
1.1516e-05
1.1562e-05
1.16091e-05
1.16573e-05
1.17067e-05
1.17572e-05
1.18088e-05
1.18617e-05
1.19158e-05
1.19713e-05
1.20282e-05
1.20866e-05
1.21466e-05
1.22084e-05
1.2272e-05
1.23375e-05
1.24051e-05
1.24749e-05
1.2547e-05
1.26215e-05
1.26985e-05
1.2778e-05
1.28602e-05
1.29452e-05
1.3033e-05
1.31237e-05
1.32173e-05
1.3314e-05
1.34137e-05
1.35165e-05
1.36224e-05
1.37313e-05
1.38432e-05
1.39582e-05
1.40761e-05
1.41969e-05
1.43205e-05
1.44468e-05
1.45757e-05
1.47072e-05
1.4841e-05
1.49772e-05
1.51157e-05
1.52563e-05
1.5399e-05
1.55438e-05
1.56906e-05
1.58396e-05
1.59907e-05
1.61441e-05
1.63e-05
1.64584e-05
1.66197e-05
1.6784e-05
1.69517e-05
1.71231e-05
1.72984e-05
1.7478e-05
1.76623e-05
1.78517e-05
1.80465e-05
1.82471e-05
1.84538e-05
1.86669e-05
1.88868e-05
1.91135e-05
1.93472e-05
1.95881e-05
1.98362e-05
2.00913e-05
2.03532e-05
2.06216e-05
2.08962e-05
2.11764e-05
2.14616e-05
2.1751e-05
2.20437e-05
2.23388e-05
2.26354e-05
2.29323e-05
2.32285e-05
1.16776e-05
1.17113e-05
1.17531e-05
1.1803e-05
1.18608e-05
1.19261e-05
1.19987e-05
1.20783e-05
1.21646e-05
1.22571e-05
1.23554e-05
1.24589e-05
1.25669e-05
1.26787e-05
1.27937e-05
1.29112e-05
1.30307e-05
1.31518e-05
1.32741e-05
1.33975e-05
1.3522e-05
1.36478e-05
1.37749e-05
1.39038e-05
1.40346e-05
1.41676e-05
1.43029e-05
1.44406e-05
1.45807e-05
1.47233e-05
1.48681e-05
1.50149e-05
1.51636e-05
1.53141e-05
1.54661e-05
1.56195e-05
1.57744e-05
1.59306e-05
1.60882e-05
1.62473e-05
1.64079e-05
1.65702e-05
1.67343e-05
1.69003e-05
1.70685e-05
1.72389e-05
1.74118e-05
1.75874e-05
1.77659e-05
1.79475e-05
1.81325e-05
1.83212e-05
1.85137e-05
1.87105e-05
1.89116e-05
1.91174e-05
1.93282e-05
1.95441e-05
1.97653e-05
1.99919e-05
2.02241e-05
2.04618e-05
2.07052e-05
2.09539e-05
2.1208e-05
2.1467e-05
2.17307e-05
2.19986e-05
2.22702e-05
2.25448e-05
2.28219e-05
2.31006e-05
2.338e-05
2.36594e-05
2.39378e-05
2.42144e-05
2.44882e-05
2.47585e-05
2.50243e-05
2.5285e-05
2.554e-05
2.5789e-05
2.60316e-05
2.62676e-05
2.64966e-05
2.67184e-05
2.69328e-05
2.714e-05
2.73398e-05
2.75325e-05
2.77184e-05
2.78975e-05
2.80702e-05
2.82369e-05
2.83978e-05
2.85533e-05
2.87037e-05
2.88494e-05
2.89906e-05
2.91276e-05
2.92607e-05
2.93901e-05
2.95159e-05
2.96383e-05
2.97575e-05
2.98737e-05
2.99869e-05
3.00975e-05
3.02056e-05
3.03116e-05
1.48853e-05
1.49949e-05
1.51257e-05
1.52768e-05
1.54469e-05
1.56343e-05
1.58373e-05
1.60543e-05
1.62836e-05
1.65234e-05
1.67714e-05
1.70256e-05
1.72835e-05
1.75433e-05
1.78031e-05
1.80617e-05
1.83181e-05
1.85716e-05
1.88221e-05
1.90699e-05
1.93154e-05
1.95596e-05
1.98037e-05
2.00483e-05
2.02942e-05
2.05422e-05
2.07927e-05
2.10462e-05
2.13028e-05
2.15623e-05
2.18246e-05
2.20892e-05
2.23556e-05
2.26233e-05
2.28918e-05
2.31604e-05
2.34288e-05
2.36965e-05
2.39629e-05
2.42276e-05
2.44902e-05
2.47502e-05
2.5007e-05
2.52603e-05
2.55095e-05
2.57541e-05
2.59937e-05
2.62278e-05
2.64561e-05
2.66783e-05
2.68944e-05
2.71044e-05
2.73079e-05
2.75049e-05
2.76953e-05
2.78792e-05
2.80566e-05
2.82277e-05
2.83927e-05
2.85519e-05
2.87054e-05
2.88535e-05
2.89966e-05
2.91347e-05
2.92683e-05
2.93976e-05
2.95227e-05
2.9644e-05
2.97614e-05
2.98754e-05
2.99859e-05
3.00932e-05
3.01975e-05
3.0299e-05
3.03979e-05
3.04945e-05
3.05892e-05
3.06823e-05
3.07741e-05
3.0865e-05
3.09565e-05
3.10573e-05
3.11569e-05
3.12548e-05
3.13515e-05
3.14473e-05
3.15427e-05
3.16382e-05
3.17343e-05
3.18303e-05
3.19262e-05
3.20222e-05
3.21184e-05
3.22153e-05
3.2313e-05
3.24116e-05
3.25111e-05
3.26116e-05
3.27131e-05
3.28157e-05
3.29191e-05
3.30236e-05
3.31289e-05
3.32351e-05
3.33421e-05
3.34499e-05
3.35585e-05
3.36678e-05
3.37778e-05
3.38885e-05
2.1063e-05
2.12375e-05
2.14458e-05
2.16856e-05
2.19533e-05
2.22459e-05
2.25601e-05
2.28924e-05
2.32393e-05
2.35972e-05
2.39627e-05
2.43316e-05
2.46995e-05
2.50622e-05
2.54161e-05
2.5758e-05
2.60855e-05
2.63965e-05
2.66901e-05
2.6966e-05
2.72243e-05
2.74662e-05
2.7694e-05
2.79091e-05
2.8112e-05
2.83037e-05
2.84856e-05
2.86591e-05
2.88248e-05
2.89831e-05
2.91347e-05
2.92797e-05
2.94187e-05
2.95518e-05
2.96795e-05
2.98018e-05
2.99191e-05
3.00317e-05
3.01398e-05
3.02438e-05
3.03438e-05
3.04403e-05
3.05336e-05
3.06241e-05
3.07121e-05
3.07982e-05
3.08827e-05
3.09661e-05
3.10486e-05
3.11309e-05
3.12197e-05
3.13102e-05
3.13991e-05
3.1487e-05
3.1574e-05
3.16606e-05
3.17473e-05
3.18344e-05
3.19222e-05
3.20105e-05
3.20988e-05
3.21874e-05
3.22766e-05
3.23663e-05
3.24569e-05
3.25482e-05
3.26404e-05
3.27335e-05
3.28273e-05
3.29221e-05
3.30176e-05
3.3114e-05
3.32111e-05
3.3309e-05
3.34077e-05
3.3507e-05
3.36071e-05
3.37078e-05
3.38091e-05
3.39109e-05
3.40131e-05
3.41151e-05
3.42078e-05
3.42982e-05
3.43879e-05
3.44769e-05
3.45652e-05
3.46527e-05
3.47394e-05
3.48252e-05
3.49119e-05
3.50006e-05
3.50913e-05
3.51838e-05
3.52783e-05
3.53746e-05
3.54725e-05
3.55721e-05
3.56732e-05
3.57757e-05
3.58795e-05
3.59845e-05
3.60904e-05
3.61971e-05
3.63046e-05
3.64125e-05
3.65208e-05
3.66291e-05
3.67373e-05
3.6845e-05
3.69521e-05
2.81409e-05
2.83083e-05
2.84941e-05
2.8689e-05
2.88877e-05
2.90884e-05
2.92911e-05
2.94937e-05
2.96924e-05
2.98837e-05
3.00656e-05
3.02367e-05
3.03959e-05
3.05428e-05
3.06779e-05
3.08019e-05
3.09161e-05
3.1022e-05
3.11212e-05
3.12151e-05
3.1305e-05
3.13986e-05
3.14919e-05
3.15815e-05
3.16686e-05
3.17542e-05
3.18393e-05
3.19245e-05
3.20104e-05
3.20975e-05
3.21851e-05
3.22731e-05
3.23617e-05
3.24507e-05
3.25403e-05
3.26302e-05
3.27204e-05
3.28109e-05
3.29016e-05
3.29924e-05
3.30835e-05
3.31747e-05
3.32663e-05
3.33582e-05
3.34504e-05
3.3543e-05
3.36359e-05
3.37292e-05
3.38226e-05
3.39163e-05
3.40042e-05
3.4088e-05
3.41712e-05
3.42541e-05
3.43366e-05
3.44188e-05
3.45008e-05
3.45823e-05
3.46631e-05
3.47448e-05
3.48283e-05
3.49135e-05
3.50004e-05
3.5089e-05
3.51791e-05
3.52708e-05
3.53638e-05
3.54581e-05
3.55535e-05
3.56501e-05
3.57475e-05
3.58457e-05
3.59445e-05
3.60437e-05
3.61432e-05
3.62426e-05
3.63418e-05
3.64405e-05
3.65385e-05
3.66355e-05
3.67315e-05
3.68262e-05
3.69206e-05
3.70165e-05
3.71138e-05
3.72128e-05
3.73137e-05
3.74167e-05
3.75223e-05
3.76307e-05
3.77411e-05
3.78527e-05
3.79655e-05
3.80796e-05
3.81947e-05
3.83108e-05
3.84278e-05
3.85457e-05
3.86642e-05
3.87834e-05
3.8903e-05
3.9023e-05
3.91433e-05
3.92639e-05
3.93845e-05
3.95053e-05
3.96261e-05
3.9747e-05
3.98681e-05
3.99894e-05
4.01111e-05
4.02333e-05
4.03565e-05
3.12512e-05
3.13805e-05
3.15116e-05
3.16432e-05
3.17807e-05
3.19221e-05
3.20635e-05
3.22049e-05
3.23458e-05
3.24848e-05
3.26211e-05
3.27543e-05
3.2885e-05
3.30131e-05
3.31381e-05
3.326e-05
3.33785e-05
3.34936e-05
3.36051e-05
3.37128e-05
3.3817e-05
3.39116e-05
3.3998e-05
3.40814e-05
3.41636e-05
3.42451e-05
3.43261e-05
3.44064e-05
3.44862e-05
3.45658e-05
3.46471e-05
3.47304e-05
3.48155e-05
3.49023e-05
3.49905e-05
3.50799e-05
3.51704e-05
3.52617e-05
3.53537e-05
3.54462e-05
3.55389e-05
3.56319e-05
3.57248e-05
3.58176e-05
3.591e-05
3.60019e-05
3.60931e-05
3.61835e-05
3.6273e-05
3.63615e-05
3.64492e-05
3.65378e-05
3.66277e-05
3.67189e-05
3.68116e-05
3.69059e-05
3.70021e-05
3.71004e-05
3.72011e-05
3.73038e-05
3.74076e-05
3.75124e-05
3.76184e-05
3.77253e-05
3.78331e-05
3.79417e-05
3.80509e-05
3.81607e-05
3.82711e-05
3.83818e-05
3.84928e-05
3.8604e-05
3.87154e-05
3.88269e-05
3.89386e-05
3.90503e-05
3.91623e-05
3.92747e-05
3.93876e-05
3.95012e-05
3.96159e-05
3.97319e-05
3.98497e-05
3.99692e-05
4.00905e-05
4.02134e-05
4.03379e-05
4.04638e-05
4.05909e-05
4.07189e-05
4.08475e-05
4.09765e-05
4.11059e-05
4.12357e-05
4.13659e-05
4.14962e-05
4.16268e-05
4.17576e-05
4.18885e-05
4.20196e-05
4.21508e-05
4.22822e-05
4.24138e-05
4.25456e-05
4.26777e-05
4.28101e-05
4.2943e-05
4.30764e-05
4.32104e-05
4.33451e-05
4.34805e-05
4.36167e-05
4.37537e-05
3.34461e-05
3.35427e-05
3.36484e-05
3.37626e-05
3.38772e-05
3.39965e-05
3.41206e-05
3.42485e-05
3.43783e-05
3.45076e-05
3.46371e-05
3.47679e-05
3.48992e-05
3.503e-05
3.51601e-05
3.52887e-05
3.54149e-05
3.55376e-05
3.56561e-05
3.57696e-05
3.58777e-05
3.59805e-05
3.60779e-05
3.61707e-05
3.62614e-05
3.63513e-05
3.64412e-05
3.65315e-05
3.66227e-05
3.67152e-05
3.68097e-05
3.69069e-05
3.70056e-05
3.71057e-05
3.72068e-05
3.7309e-05
3.7412e-05
3.75158e-05
3.762e-05
3.77245e-05
3.78293e-05
3.79341e-05
3.80389e-05
3.81436e-05
3.82482e-05
3.83527e-05
3.84572e-05
3.85617e-05
3.86665e-05
3.87717e-05
3.88776e-05
3.89845e-05
3.90928e-05
3.92026e-05
3.93139e-05
3.94268e-05
3.95411e-05
3.96568e-05
3.97738e-05
3.9892e-05
4.0011e-05
4.01306e-05
4.02507e-05
4.03711e-05
4.0492e-05
4.06132e-05
4.07346e-05
4.08563e-05
4.09783e-05
4.11005e-05
4.12229e-05
4.13456e-05
4.14686e-05
4.1592e-05
4.17157e-05
4.184e-05
4.19648e-05
4.20902e-05
4.22164e-05
4.23434e-05
4.24713e-05
4.26001e-05
4.27298e-05
4.28603e-05
4.29916e-05
4.31234e-05
4.32557e-05
4.33884e-05
4.35212e-05
4.36541e-05
4.3787e-05
4.39198e-05
4.40525e-05
4.41851e-05
4.43175e-05
4.44498e-05
4.45819e-05
4.47139e-05
4.48457e-05
4.49774e-05
4.51089e-05
4.52404e-05
4.53717e-05
4.5503e-05
4.56343e-05
4.57655e-05
4.58966e-05
4.60277e-05
4.61587e-05
4.62896e-05
4.64204e-05
4.65509e-05
4.66812e-05
4.68111e-05
4.69404e-05
3.57221e-05
3.58109e-05
3.59038e-05
3.60056e-05
3.61175e-05
3.62394e-05
3.63677e-05
3.65006e-05
3.66364e-05
3.67743e-05
3.69146e-05
3.70574e-05
3.72015e-05
3.73456e-05
3.74885e-05
3.76293e-05
3.77669e-05
3.79007e-05
3.80301e-05
3.81552e-05
3.82761e-05
3.83934e-05
3.85076e-05
3.86197e-05
3.87305e-05
3.88403e-05
3.89497e-05
3.90591e-05
3.91689e-05
3.92796e-05
3.93911e-05
3.95034e-05
3.96165e-05
3.97301e-05
3.98443e-05
3.9959e-05
4.00742e-05
4.01898e-05
4.03058e-05
4.0422e-05
4.05385e-05
4.06551e-05
4.0772e-05
4.08892e-05
4.10066e-05
4.11244e-05
4.12427e-05
4.13616e-05
4.14811e-05
4.16014e-05
4.17225e-05
4.18443e-05
4.19669e-05
4.20902e-05
4.22142e-05
4.23386e-05
4.24635e-05
4.25886e-05
4.2714e-05
4.28396e-05
4.29651e-05
4.30908e-05
4.32165e-05
4.33422e-05
4.34679e-05
4.35937e-05
4.37196e-05
4.38455e-05
4.39715e-05
4.40977e-05
4.4224e-05
4.43505e-05
4.44772e-05
4.46042e-05
4.47313e-05
4.48587e-05
4.49863e-05
4.5114e-05
4.52419e-05
4.53699e-05
4.54979e-05
4.56258e-05
4.57535e-05
4.5881e-05
4.60081e-05
4.61348e-05
4.62611e-05
4.63868e-05
4.6512e-05
4.66366e-05
4.67606e-05
4.6884e-05
4.70069e-05
4.71292e-05
4.7251e-05
4.73722e-05
4.74927e-05
4.76127e-05
4.77321e-05
4.78509e-05
4.79691e-05
4.80866e-05
4.82035e-05
4.83197e-05
4.84351e-05
4.85497e-05
4.86635e-05
4.87764e-05
4.88883e-05
4.89993e-05
4.91091e-05
4.92179e-05
4.93255e-05
4.94319e-05
4.9537e-05
4.96409e-05
3.78189e-05
3.78485e-05
3.78853e-05
3.79302e-05
3.79834e-05
3.80452e-05
3.81175e-05
3.81989e-05
3.82834e-05
3.83783e-05
3.84856e-05
3.86051e-05
3.87338e-05
3.88676e-05
3.90054e-05
3.91477e-05
3.92941e-05
3.9444e-05
3.95965e-05
3.97503e-05
3.99041e-05
4.00568e-05
4.02075e-05
4.03554e-05
4.05002e-05
4.06416e-05
4.07794e-05
4.09138e-05
4.10448e-05
4.11727e-05
4.12979e-05
4.14207e-05
4.15416e-05
4.1661e-05
4.17794e-05
4.18973e-05
4.2015e-05
4.21328e-05
4.22509e-05
4.23694e-05
4.24883e-05
4.26077e-05
4.27276e-05
4.2848e-05
4.29689e-05
4.30901e-05
4.32118e-05
4.33338e-05
4.34561e-05
4.35786e-05
4.37013e-05
4.38241e-05
4.39472e-05
4.40703e-05
4.41935e-05
4.43168e-05
4.44401e-05
4.45635e-05
4.46867e-05
4.48099e-05
4.4933e-05
4.50558e-05
4.51785e-05
4.53009e-05
4.5423e-05
4.55449e-05
4.56665e-05
4.57878e-05
4.59088e-05
4.60296e-05
4.61501e-05
4.62704e-05
4.63904e-05
4.65101e-05
4.66295e-05
4.67487e-05
4.68675e-05
4.69861e-05
4.71043e-05
4.72222e-05
4.73396e-05
4.74566e-05
4.7573e-05
4.76889e-05
4.78041e-05
4.79187e-05
4.80325e-05
4.81455e-05
4.82577e-05
4.8369e-05
4.84793e-05
4.85888e-05
4.86972e-05
4.88047e-05
4.89113e-05
4.90168e-05
4.91214e-05
4.9225e-05
4.93276e-05
4.94292e-05
4.95297e-05
4.96293e-05
4.97278e-05
4.98252e-05
4.99216e-05
5.00168e-05
5.0111e-05
5.02039e-05
5.02956e-05
5.03861e-05
5.04752e-05
5.0563e-05
5.06494e-05
5.07343e-05
5.08178e-05
5.08996e-05
5.09799e-05
5.10586e-05
5.11357e-05
5.12111e-05
5.12848e-05
5.13568e-05
5.14272e-05
4.04531e-05
4.04848e-05
4.05233e-05
4.05697e-05
4.06242e-05
4.06875e-05
4.07622e-05
4.08411e-05
4.09284e-05
4.10277e-05
4.11389e-05
4.12612e-05
4.13914e-05
4.15262e-05
4.16653e-05
4.18094e-05
4.19584e-05
4.21111e-05
4.22663e-05
4.24225e-05
4.25787e-05
4.27339e-05
4.28872e-05
4.30379e-05
4.31854e-05
4.33292e-05
4.3469e-05
4.36047e-05
4.37364e-05
4.38642e-05
4.39885e-05
4.41099e-05
4.42289e-05
4.43461e-05
4.44621e-05
4.45774e-05
4.46924e-05
4.48074e-05
4.49228e-05
4.50385e-05
4.51546e-05
4.52712e-05
4.53883e-05
4.55058e-05
4.56237e-05
4.57417e-05
4.58599e-05
4.59781e-05
4.60962e-05
4.62141e-05
4.63316e-05
4.64487e-05
4.65653e-05
4.66814e-05
4.67968e-05
4.69117e-05
4.70259e-05
4.71395e-05
4.72525e-05
4.73648e-05
4.74765e-05
4.75875e-05
4.7698e-05
4.78077e-05
4.79169e-05
4.80254e-05
4.81333e-05
4.82405e-05
4.83471e-05
4.84529e-05
4.85581e-05
4.86625e-05
4.87662e-05
4.88692e-05
4.89713e-05
4.90726e-05
4.91729e-05
4.92724e-05
4.93709e-05
4.94685e-05
4.95649e-05
4.96603e-05
4.97546e-05
4.98477e-05
4.99397e-05
5.00305e-05
5.01201e-05
5.02084e-05
5.02956e-05
5.03815e-05
5.04661e-05
5.05495e-05
5.06316e-05
5.07125e-05
5.0792e-05
5.08701e-05
5.09469e-05
5.10222e-05
5.10961e-05
5.11686e-05
5.12395e-05
5.13088e-05
5.13766e-05
5.14427e-05
5.15072e-05
5.15701e-05
5.16314e-05
5.16911e-05
5.17493e-05
5.18058e-05
5.18607e-05
5.19139e-05
5.19654e-05
5.20152e-05
5.20632e-05
5.21093e-05
5.21534e-05
5.21955e-05
5.22353e-05
5.22727e-05
5.23075e-05
5.23394e-05
5.23681e-05
4.3044e-05
4.3079e-05
4.31208e-05
4.317e-05
4.32269e-05
4.32931e-05
4.33689e-05
4.34489e-05
4.35395e-05
4.3641e-05
4.37526e-05
4.38734e-05
4.4002e-05
4.41347e-05
4.42712e-05
4.44126e-05
4.45585e-05
4.47076e-05
4.48582e-05
4.50093e-05
4.51596e-05
4.53081e-05
4.5454e-05
4.55966e-05
4.5735e-05
4.5869e-05
4.59983e-05
4.6123e-05
4.62432e-05
4.63595e-05
4.64723e-05
4.65823e-05
4.66902e-05
4.67964e-05
4.69017e-05
4.70063e-05
4.71108e-05
4.72154e-05
4.73201e-05
4.74252e-05
4.75306e-05
4.76362e-05
4.77421e-05
4.7848e-05
4.79539e-05
4.80597e-05
4.8165e-05
4.82699e-05
4.83741e-05
4.84775e-05
4.85801e-05
4.86816e-05
4.87822e-05
4.88817e-05
4.89801e-05
4.90774e-05
4.91737e-05
4.9269e-05
4.93632e-05
4.94564e-05
4.95487e-05
4.96399e-05
4.97301e-05
4.98193e-05
4.99075e-05
4.99947e-05
5.00808e-05
5.01659e-05
5.02499e-05
5.03328e-05
5.04145e-05
5.04951e-05
5.05746e-05
5.06528e-05
5.07298e-05
5.08055e-05
5.088e-05
5.0953e-05
5.10247e-05
5.1095e-05
5.11638e-05
5.12311e-05
5.12968e-05
5.1361e-05
5.14236e-05
5.14846e-05
5.1544e-05
5.16018e-05
5.16581e-05
5.17129e-05
5.17662e-05
5.1818e-05
5.18683e-05
5.1917e-05
5.19642e-05
5.20097e-05
5.20536e-05
5.20958e-05
5.21361e-05
5.21745e-05
5.22107e-05
5.22448e-05
5.22763e-05
5.23051e-05
5.23308e-05
5.23532e-05
5.23733e-05
5.23913e-05
5.24071e-05
5.24208e-05
5.24321e-05
5.24411e-05
5.24474e-05
5.24508e-05
5.24517e-05
5.24506e-05
5.24475e-05
5.24423e-05
5.24355e-05
5.24271e-05
5.24175e-05
5.2407e-05
5.23963e-05
4.54219e-05
4.546e-05
4.55046e-05
4.55562e-05
4.56154e-05
4.56848e-05
4.57602e-05
4.58425e-05
4.59347e-05
4.60358e-05
4.61449e-05
4.62614e-05
4.63851e-05
4.65122e-05
4.66421e-05
4.67758e-05
4.69127e-05
4.70514e-05
4.71902e-05
4.73281e-05
4.74639e-05
4.75969e-05
4.7726e-05
4.78508e-05
4.79707e-05
4.80857e-05
4.81956e-05
4.8301e-05
4.84021e-05
4.84995e-05
4.85938e-05
4.86856e-05
4.87757e-05
4.88644e-05
4.89522e-05
4.90396e-05
4.91269e-05
4.92141e-05
4.93015e-05
4.9389e-05
4.94766e-05
4.95642e-05
4.96517e-05
4.97389e-05
4.98257e-05
4.99119e-05
4.99972e-05
5.00816e-05
5.01649e-05
5.0247e-05
5.03277e-05
5.04071e-05
5.04852e-05
5.05618e-05
5.06371e-05
5.07111e-05
5.07837e-05
5.0855e-05
5.0925e-05
5.09937e-05
5.10611e-05
5.11272e-05
5.11919e-05
5.12553e-05
5.13173e-05
5.13778e-05
5.14368e-05
5.14943e-05
5.15503e-05
5.16047e-05
5.16576e-05
5.1709e-05
5.17589e-05
5.18074e-05
5.18544e-05
5.18998e-05
5.19438e-05
5.19862e-05
5.20271e-05
5.20663e-05
5.21038e-05
5.21396e-05
5.21734e-05
5.22053e-05
5.22349e-05
5.22621e-05
5.22866e-05
5.2308e-05
5.23269e-05
5.23438e-05
5.23588e-05
5.23717e-05
5.23824e-05
5.23907e-05
5.23963e-05
5.23995e-05
5.24006e-05
5.23997e-05
5.23969e-05
5.23923e-05
5.23859e-05
5.23781e-05
5.23692e-05
5.23595e-05
5.23497e-05
5.23399e-05
5.23283e-05
5.23143e-05
5.22981e-05
5.22796e-05
5.22592e-05
5.22371e-05
5.22138e-05
5.219e-05
5.21646e-05
5.2137e-05
5.21073e-05
5.20753e-05
5.20412e-05
5.20047e-05
5.19659e-05
5.19245e-05
5.18801e-05
5.18323e-05
5.17817e-05
4.7474e-05
4.75138e-05
4.75599e-05
4.76128e-05
4.76739e-05
4.77435e-05
4.78183e-05
4.7901e-05
4.79914e-05
4.80885e-05
4.81917e-05
4.83005e-05
4.84149e-05
4.85323e-05
4.86508e-05
4.87713e-05
4.88932e-05
4.9015e-05
4.91354e-05
4.92533e-05
4.93679e-05
4.94784e-05
4.95842e-05
4.96849e-05
4.97804e-05
4.98708e-05
4.99563e-05
5.00374e-05
5.01146e-05
5.01885e-05
5.02596e-05
5.03286e-05
5.0396e-05
5.04624e-05
5.0528e-05
5.05933e-05
5.06585e-05
5.07236e-05
5.07889e-05
5.08541e-05
5.09193e-05
5.09843e-05
5.10489e-05
5.11129e-05
5.11762e-05
5.12385e-05
5.12995e-05
5.13592e-05
5.14175e-05
5.1474e-05
5.15289e-05
5.1582e-05
5.16334e-05
5.1683e-05
5.1731e-05
5.17775e-05
5.18224e-05
5.18658e-05
5.19077e-05
5.19481e-05
5.19871e-05
5.20246e-05
5.20605e-05
5.20948e-05
5.21275e-05
5.21583e-05
5.21873e-05
5.22142e-05
5.22387e-05
5.22606e-05
5.22797e-05
5.22966e-05
5.23116e-05
5.23247e-05
5.23357e-05
5.23445e-05
5.23508e-05
5.23548e-05
5.23568e-05
5.23569e-05
5.23552e-05
5.23517e-05
5.23465e-05
5.23398e-05
5.23319e-05
5.23231e-05
5.2314e-05
5.2305e-05
5.22949e-05
5.22827e-05
5.22684e-05
5.22522e-05
5.22342e-05
5.22149e-05
5.21949e-05
5.21739e-05
5.21508e-05
5.21257e-05
5.20985e-05
5.20694e-05
5.20381e-05
5.20048e-05
5.19693e-05
5.19313e-05
5.18906e-05
5.18467e-05
5.18005e-05
5.17522e-05
5.17017e-05
5.16491e-05
5.15941e-05
5.15367e-05
5.14767e-05
5.14135e-05
5.13477e-05
5.12794e-05
5.12087e-05
5.11354e-05
5.10594e-05
5.09808e-05
5.08994e-05
5.08151e-05
5.07281e-05
5.06384e-05
5.05462e-05
4.91358e-05
4.91754e-05
4.92212e-05
4.92739e-05
4.93345e-05
4.94013e-05
4.94739e-05
4.95528e-05
4.96373e-05
4.97265e-05
4.982e-05
4.99174e-05
5.0018e-05
5.01211e-05
5.02238e-05
5.03261e-05
5.04279e-05
5.05278e-05
5.06248e-05
5.07181e-05
5.0807e-05
5.0891e-05
5.09697e-05
5.10431e-05
5.11111e-05
5.11742e-05
5.12326e-05
5.12869e-05
5.13377e-05
5.13855e-05
5.14309e-05
5.14745e-05
5.15167e-05
5.1558e-05
5.15986e-05
5.16389e-05
5.1679e-05
5.17191e-05
5.17591e-05
5.17991e-05
5.18388e-05
5.18781e-05
5.19169e-05
5.19549e-05
5.19919e-05
5.20276e-05
5.20618e-05
5.20945e-05
5.21253e-05
5.21542e-05
5.21809e-05
5.22052e-05
5.22269e-05
5.22457e-05
5.22621e-05
5.22765e-05
5.2289e-05
5.22994e-05
5.23076e-05
5.23134e-05
5.23171e-05
5.2319e-05
5.23191e-05
5.23175e-05
5.23142e-05
5.23093e-05
5.2303e-05
5.22955e-05
5.22872e-05
5.22787e-05
5.22703e-05
5.22605e-05
5.22487e-05
5.2235e-05
5.22197e-05
5.22032e-05
5.21859e-05
5.21676e-05
5.21473e-05
5.21252e-05
5.21011e-05
5.20751e-05
5.20472e-05
5.20174e-05
5.19857e-05
5.19518e-05
5.19155e-05
5.18764e-05
5.18348e-05