/*--------------------------------*- C++ -*----------------------------------*\
| =========                 |                                                 |
| \\      /  F ield         | OpenFOAM: The Open Source CFD Toolbox           |
|  \\    /   O peration     | Version:  v1706                                 |
|   \\  /    A nd           | Web:      www.OpenFOAM.com                      |
|    \\/     M anipulation  |                                                 |
\*---------------------------------------------------------------------------*/
FoamFile
{
    version     2.0;
    format      ascii;
    class       volScalarField;
    location    "3e-06";
    object      p;
}
// * * * * * * * * * * * * * * * * * * * * * * * * * * * * * * * * * * * * * //

dimensions      [1 -1 -2 0 0 0 0];


internalField   nonuniform List<scalar> 
29871
(
21.9139
21.9139
21.9139
21.9139
21.9139
21.9139
21.9139
21.9139
21.9139
21.9139
21.9139
21.9139
21.9139
21.9139
21.9139
21.9139
21.9139
21.9139
21.9139
21.9139
21.9139
21.9139
21.9139
21.9139
21.9139
21.9139
21.9139
21.9139
21.9139
21.9139
21.9139
21.9139
21.9139
21.9139
21.9139
21.9139
21.9139
21.9139
21.9139
21.9139
21.9139
21.9139
21.9139
21.9139
21.9139
21.9139
21.9139
21.9139
21.9139
21.9139
21.9139
21.9139
21.9139
21.9139
21.9139
21.9139
21.9139
21.9139
21.9139
21.9139
21.9139
21.9139
21.9139
21.9139
21.9139
21.9139
21.9139
21.9139
21.9139
21.9139
21.9139
21.9139
21.9139
21.9139
21.9139
21.9139
21.9139
21.9139
21.9139
21.9139
21.9139
21.9139
21.9139
21.9139
21.9139
21.9139
21.9139
21.9139
21.9139
21.9139
21.9139
21.9139
21.9139
21.9139
21.9139
21.9139
21.9139
21.9139
21.9139
21.9139
21.9139
21.9139
21.9139
21.9139
21.9139
21.9139
21.9139
21.9139
21.9139
21.9139
21.9139
21.9139
21.9139
21.9139
21.9139
21.9139
21.9139
21.9139
21.9139
21.9139
21.9139
21.9139
21.9139
21.9139
21.9139
21.9139
21.9139
21.9139
21.9139
21.9139
21.9139
21.9139
21.9139
21.9139
21.9139
21.9139
21.9139
21.9139
21.9139
21.9139
21.9139
21.9139
21.914
21.914
21.914
21.914
21.914
21.914
21.914
21.914
21.914
21.914
21.914
21.914
21.914
21.914
21.914
21.914
21.914
21.914
21.914
21.914
21.914
21.914
21.914
21.914
21.914
21.914
21.914
21.914
21.914
21.914
21.914
21.914
21.914
21.914
21.914
21.914
21.914
21.914
21.914
21.914
21.914
21.9141
21.9141
21.9141
21.9141
21.9141
21.9141
21.9141
21.9141
21.9141
21.9141
21.9141
21.9141
21.9141
21.9141
21.9141
21.9141
21.9142
21.9142
21.9142
21.9142
21.9142
21.9142
21.9142
21.9142
21.9142
21.9142
21.9142
21.914
21.914
21.914
21.914
21.914
21.914
21.914
21.914
21.914
21.914
21.914
21.914
21.914
21.914
21.914
21.9141
21.9141
21.9141
21.9141
21.9141
21.9141
21.9141
21.9141
21.9141
21.9141
21.9141
21.9141
21.9141
21.9141
21.9141
21.9142
21.9142
21.9142
21.9142
21.9142
21.9142
21.9142
21.9142
21.9142
21.9142
21.9142
21.9142
21.9143
21.9143
21.9143
21.9143
21.9143
21.9143
21.9143
21.9143
21.9143
21.9144
21.9144
21.9144
21.9144
21.9144
21.9144
21.9145
21.9145
21.9145
21.9145
21.9145
21.9145
21.9146
21.9146
21.9146
21.9146
21.9147
21.9147
21.9147
21.9147
21.9148
21.9148
21.9148
21.9149
21.9149
21.9149
21.9149
21.915
21.915
21.915
21.9151
21.9151
21.9152
21.9152
21.9152
21.9153
21.9153
21.9154
21.9154
21.9155
21.9155
21.9155
21.9156
21.9156
21.9157
21.9158
21.9158
21.9159
21.9159
21.916
21.9161
21.9161
21.9162
21.9163
21.9163
21.9144
21.9144
21.9144
21.9144
21.9144
21.9144
21.9145
21.9145
21.9145
21.9145
21.9146
21.9146
21.9146
21.9147
21.9147
21.9147
21.9148
21.9148
21.9148
21.9149
21.9149
21.915
21.915
21.915
21.9151
21.9151
21.9152
21.9152
21.9152
21.9153
21.9153
21.9154
21.9154
21.9155
21.9155
21.9156
21.9156
21.9157
21.9157
21.9158
21.9159
21.9159
21.916
21.9161
21.9161
21.9162
21.9163
21.9163
21.9164
21.9165
21.9166
21.9167
21.9168
21.9168
21.9169
21.917
21.9171
21.9172
21.9173
21.9174
21.9176
21.9177
21.9178
21.9179
21.918
21.9182
21.9183
21.9184
21.9186
21.9187
21.9189
21.919
21.9192
21.9194
21.9195
21.9197
21.9199
21.9201
21.9203
21.9205
21.9207
21.9209
21.9212
21.9214
21.9216
21.9219
21.9222
21.9224
21.9227
21.923
21.9233
21.9236
21.9239
21.9243
21.9246
21.925
21.9254
21.9258
21.9262
21.9266
21.9271
21.9276
21.928
21.9285
21.9291
21.9296
21.9162
21.9162
21.9163
21.9164
21.9165
21.9166
21.9167
21.9168
21.9169
21.9171
21.9173
21.9174
21.9176
21.9178
21.918
21.9181
21.9183
21.9185
21.9187
21.9189
21.9191
21.9193
21.9195
21.9198
21.92
21.9202
21.9204
21.9206
21.9209
21.9211
21.9214
21.9216
21.9219
21.9221
21.9224
21.9227
21.9229
21.9232
21.9235
21.9239
21.9242
21.9245
21.9248
21.9252
21.9256
21.9259
21.9263
21.9267
21.9272
21.9276
21.9281
21.9285
21.929
21.9295
21.93
21.9306
21.9311
21.9317
21.9323
21.9329
21.9336
21.9343
21.935
21.9357
21.9365
21.9373
21.9381
21.9389
21.9398
21.9408
21.9417
21.9427
21.9437
21.9448
21.9459
21.9471
21.9483
21.9495
21.9508
21.9521
21.9535
21.9549
21.9564
21.958
21.9595
21.9612
21.9629
21.9646
21.9664
21.9683
21.9702
21.9722
21.9742
21.9763
21.9785
21.9807
21.9831
21.9855
21.9879
21.9905
21.9932
21.9959
21.9988
22.0017
22.0048
22.008
22.0112
21.9252
21.9255
21.9258
21.9262
21.9267
21.9272
21.9278
21.9285
21.9292
21.9299
21.9307
21.9316
21.9325
21.9334
21.9343
21.9353
21.9363
21.9373
21.9383
21.9393
21.9404
21.9415
21.9426
21.9437
21.9449
21.9461
21.9473
21.9486
21.9499
21.9512
21.9526
21.954
21.9555
21.957
21.9585
21.9601
21.9618
21.9635
21.9653
21.9671
21.969
21.971
21.973
21.9751
21.9773
21.9796
21.982
21.9844
21.9869
21.9895
21.9922
21.995
21.9979
22.0009
22.004
22.0072
22.0106
22.014
22.0175
22.0212
22.025
22.0289
22.033
22.0371
22.0415
22.046
22.0506
22.0555
22.0605
22.0657
22.071
22.0766
22.0824
22.0884
22.0947
22.1012
22.1079
22.1149
22.1221
22.1297
22.1375
22.1456
22.154
22.1627
22.1718
22.1812
22.1909
22.201
22.2115
22.2224
22.2336
22.2453
22.2575
22.27
22.2831
22.2967
22.3107
22.3254
22.3406
22.3564
22.3729
22.3901
22.408
22.4266
22.446
22.4663
22.4875
21.9648
21.9654
21.9663
21.9675
21.9691
21.971
21.9733
21.9759
21.9788
21.982
21.9855
21.9893
21.9934
21.9977
22.0022
22.007
22.0119
22.017
22.0222
22.0275
22.0329
22.0384
22.0441
22.0498
22.0557
22.0616
22.0677
22.074
22.0804
22.087
22.0938
22.1007
22.1078
22.1151
22.1226
22.1303
22.1382
22.1464
22.1548
22.1635
22.1725
22.1818
22.1914
22.2014
22.2117
22.2225
22.2336
22.2452
22.2572
22.2696
22.2826
22.296
22.3099
22.3244
22.3394
22.3549
22.3711
22.3878
22.4052
22.4233
22.442
22.4615
22.4817
22.5027
22.5245
22.5471
22.5707
22.5952
22.6207
22.6472
22.6748
22.7036
22.7336
22.7649
22.7976
22.8316
22.8672
22.9043
22.9431
22.9835
23.0258
23.0699
23.1159
23.164
23.2142
23.2665
23.3211
23.378
23.4372
23.4989
23.563
23.6298
23.6991
23.771
23.8457
23.923
24.0032
24.0861
24.1719
24.2606
24.3522
24.4468
24.5445
24.6452
24.7492
24.8564
24.9671
25.0814
25.1994
25.3213
22.1538
22.1576
22.163
22.17
22.1786
22.1888
22.2005
22.2137
22.2285
22.2447
22.2623
22.2813
22.3015
22.3229
22.3454
22.3687
22.3929
22.4178
22.4433
22.4693
22.4959
22.5231
22.5509
22.5793
22.6084
22.6382
22.6689
22.7005
22.733
22.7665
22.801
22.8366
22.8734
22.9112
22.9503
22.9906
23.0323
23.0754
23.1201
23.1664
23.2144
23.2643
23.3162
23.3702
23.4265
23.4851
23.5462
23.6098
23.6762
23.7454
23.8175
23.8925
23.9708
24.0522
24.1369
24.225
24.3166
24.4117
24.5105
24.613
24.7193
24.8294
24.9435
25.0616
25.1839
25.3102
25.4409
25.576
25.7155
25.8597
26.0087
26.1626
26.3217
26.4861
26.6562
26.8321
27.0143
27.2031
27.3987
27.6017
27.8125
28.0315
28.2592
28.496
28.7425
28.9991
29.2664
29.5449
29.8351
30.1375
30.4525
30.7805
31.1221
31.4776
31.8473
32.2316
32.6308
33.0452
33.475
33.9204
34.3818
34.8592
35.3531
35.8637
36.3914
36.9366
37.4999
38.0821
38.684
39.3067
22.994
23.0171
23.0474
23.0849
23.1297
23.1817
23.2409
23.3072
23.3806
23.4609
23.5479
23.6415
23.7411
23.8465
23.9571
24.0724
24.192
24.3154
24.4423
24.5724
24.7056
24.8419
24.9816
25.1248
25.2718
25.4229
25.5782
25.738
25.9024
26.0716
26.2456
26.4244
26.6079
26.7963
26.9895
27.1878
27.3914
27.6004
27.8153
28.0364
28.2642
28.499
28.7415
28.9921
29.2513
29.5196
29.7977
30.086
30.3852
30.6957
31.0182
31.3531
31.7011
32.0626
32.4383
32.8286
33.2342
33.6554
34.0928
34.5468
35.018
35.5066
36.0132
36.5382
37.082
37.6451
38.2278
38.8308
39.4546
40.0998
40.7672
41.4578
42.1725
42.9126
43.6796
44.4753
45.3016
46.1611
47.0564
47.9907
48.9675
49.9909
51.0652
52.1955
53.3871
54.646
55.9786
57.3921
58.894
60.4924
62.196
64.0139
65.9557
68.0314
70.2512
72.6259
75.1661
77.8825
80.7856
83.8855
87.1919
90.7136
94.4581
98.4316
102.638
107.082
111.761
116.675
121.818
127.185
26.7036
26.8254
26.9788
27.1639
27.3802
27.627
27.9036
28.2091
28.543
28.9041
29.291
29.7017
30.1341
30.5858
31.0545
31.5379
32.0338
32.5407
33.0574
33.5832
34.1184
34.6637
35.2204
35.7896
36.3729
36.9716
37.587
38.2202
38.872
39.543
40.2333
40.9431
41.6725
42.4217
43.1911
43.9815
44.7938
45.6292
46.4894
47.3762
48.292
49.2392
50.2207
51.2397
52.2995
53.4039
54.5569
55.7631
57.0272
58.3545
59.7507
61.222
62.775
64.4167
66.1549
67.9977
69.9535
72.0314
74.2407
76.5912
79.0928
81.7557
84.59
87.6058
90.8127
94.2201
97.8368
101.67
105.727
110.013
114.531
119.282
124.265
129.478
134.914
140.566
146.421
152.468
158.689
165.068
171.584
178.224
184.973
191.807
198.701
205.626
212.555
219.461
226.318
233.102
239.787
246.351
252.772
259.033
265.118
271.012
276.706
282.189
287.455
292.497
297.313
301.901
306.26
310.39
314.297
317.984
321.458
324.731
327.813
330.721
40.5716
41.0759
41.6892
42.4112
43.2403
44.1737
45.2083
46.3409
47.5685
48.8875
50.2929
51.7792
53.3405
54.9714
56.6677
58.4262
60.2449
62.1237
64.0646
66.0712
68.1503
70.312
72.5686
74.9319
77.413
80.0236
82.776
85.6825
88.7539
91.9991
95.4251
99.0371
102.839
106.836
111.029
115.421
120.016
124.814
129.815
135.021
140.429
146.035
151.835
157.821
163.982
170.305
176.774
183.372
190.078
196.874
203.748
210.676
217.632
224.587
231.512
238.38
245.165
251.841
258.386
264.777
270.996
277.024
282.847
288.451
293.828
298.97
303.871
308.526
312.937
317.103
321.025
324.711
328.167
331.404
334.434
337.272
339.938
342.452
344.83
347.09
349.286
351.789
354.191
356.42
358.495
360.435
362.26
363.995
365.663
367.269
368.82
370.333
371.826
373.315
374.816
376.338
377.888
379.47
381.089
382.746
384.439
386.168
387.928
389.715
391.524
393.35
395.184
397.021
398.852
400.669
87.1929
88.9108
91.0757
93.7112
96.8274
100.433
104.533
109.129
114.229
119.852
126.007
132.685
139.854
147.471
155.474
163.792
172.336
181.015
189.748
198.457
207.07
215.553
223.918
232.138
240.15
247.933
255.501
262.857
269.976
276.832
283.411
289.701
295.689
301.371
306.741
311.801
316.553
321.004
325.16
329.032
332.63
335.97
339.071
341.95
344.627
347.125
349.467
351.677
353.77
355.776
357.964
360.178
362.236
364.152
365.94
367.624
369.225
370.766
372.269
373.741
375.184
376.615
378.049
379.495
380.962
382.458
383.986
385.547
387.141
388.767
390.422
392.101
393.801
395.513
397.233
398.953
400.663
402.354
404.019
405.652
407.237
408.751
409.717
410.493
411.241
411.952
412.631
413.28
413.9
414.489
415.083
415.718
416.396
417.118
417.883
418.688
419.53
420.402
421.298
422.211
423.133
424.054
424.965
425.856
426.716
427.534
428.299
428.998
429.621
430.154
430.586
257.32
262.301
268.266
274.83
281.662
288.709
296.048
303.59
311.077
318.291
325.114
331.423
337.077
342.019
346.27
349.878
352.925
355.519
357.769
359.778
361.625
363.595
365.577
367.407
369.143
370.794
372.371
373.904
375.43
376.974
378.528
380.093
381.677
383.286
384.921
386.579
388.258
389.952
391.656
393.364
395.069
396.769
398.459
400.132
401.782
403.399
404.978
406.515
407.999
409.425
410.508
411.277
412.017
412.733
413.428
414.107
414.774
415.428
416.062
416.702
417.382
418.102
418.861
419.654
420.479
421.329
422.199
423.08
423.965
424.844
425.709
426.549
427.354
428.113
428.816
429.451
430.006
430.472
430.838
431.095
431.249
431.291
431.269
431.268
431.297
431.355
431.446
431.577
431.757
431.995
432.277
432.581
432.897
433.22
433.543
433.86
434.162
434.445
434.702
434.928
435.119
435.27
435.379
435.445
435.467
435.447
435.386
435.29
435.164
435.015
434.854
434.692
434.541
368.216
372.189
375.735
378.566
381.416
384.308
386.987
389.37
391.63
393.78
395.784
397.619
399.355
401.039
402.654
404.191
405.658
407.05
408.359
409.586
410.74
411.514
411.934
412.366
412.908
413.546
414.224
414.918
415.633
416.369
417.154
418.001
418.898
419.835
420.802
421.788
422.779
423.764
424.73
425.666
426.56
427.402
428.183
428.893
429.521
430.06
430.503
430.847
431.096
431.243
431.306
431.37
431.459
431.568
431.7
431.856
432.04
432.26
432.524
432.823
433.134
433.449
433.763
434.069
434.361
434.632
434.877
435.092
435.272
435.413
435.513
435.572
435.589
435.566
435.506
435.414
435.298
435.164
435.025
434.891
434.775
434.69
434.645
434.637
434.662
434.715
434.792
434.886
434.989
435.091
435.181
435.255
435.311
435.346
435.361
435.354
435.324
435.274
435.203
435.114
435.009
434.891
434.763
434.628
434.489
434.352
434.218
434.092
433.976
433.873
433.782
433.704
433.639
404.033
406.887
409.996
413.099
415.621
417.945
420.105
422.212
424.216
425.879
427.224
428.431
429.525
430.469
431.275
431.95
432.465
432.799
432.958
432.954
432.801
432.536
432.187
431.779
431.428
431.194
431.088
431.09
431.17
431.313
431.523
431.807
432.139
432.495
432.863
433.236
433.602
433.954
434.281
434.576
434.831
435.043
435.207
435.323
435.39
435.412
435.394
435.344
435.272
435.189
435.108
435.041
435.001
434.988
435.001
435.035
435.089
435.158
435.238
435.323
435.403
435.47
435.519
435.549
435.559
435.548
435.518
435.468
435.401
435.317
435.22
435.113
434.998
434.88
434.763
434.649
434.544
434.45
434.37
434.306
434.259
434.228
434.21
434.204
434.202
434.202
434.198
434.188
434.167
434.134
434.084
434.019
433.939
433.843
433.734
433.613
433.48
433.337
433.186
433.028
432.865
432.697
432.527
432.355
432.182
432.009
431.836
431.664
431.491
431.318
431.143
430.966
430.785
430.597
430.403
423.808
426.341
428.455
430.468
432.396
434.346
436.229
437.892
439.284
440.332
441.075
441.607
441.952
442.092
442.026
441.759
441.299
440.673
439.927
439.117
438.296
437.512
436.803
436.196
435.7
435.309
435.014
434.804
434.669
434.593
434.563
434.562
434.576
434.599
434.629
434.662
434.696
434.727
434.753
434.771
434.78
434.778
434.765
434.743
434.713
434.677
434.64
434.604
434.572
434.547
434.529
434.518
434.512
434.509
434.506
434.5
434.489
434.471
434.443
434.405
434.355
434.294
434.224
434.147
434.062
433.973
433.879
433.784
433.688
433.593
433.5
433.409
433.322
433.238
433.158
433.081
433.007
432.933
432.86
432.784
432.704
432.618
432.523
432.418
432.303
432.175
432.036
431.885
431.723
431.551
431.371
431.183
430.989
430.791
430.59
430.387
430.183
429.98
429.778
429.579
429.382
429.19
429.003
428.821
428.645
428.475
428.312
428.156
428.008
427.869
427.738
427.616
427.505
427.404
427.316
427.242
411.879
414.07
416.347
418.684
421.007
423.351
426.042
428.699
430.583
432.294
434.015
435.839
437.738
439.456
440.822
441.84
442.561
443.022
443.246
443.248
443.042
442.647
442.094
441.416
440.651
439.839
439.021
438.228
437.483
436.8
436.188
435.647
435.175
434.768
434.422
434.132
433.891
433.692
433.529
433.4
433.302
433.233
433.19
433.171
433.171
433.186
433.211
433.242
433.275
433.306
433.333
433.354
433.367
433.373
433.37
433.359
433.34
433.312
433.276
433.231
433.178
433.116
433.047
432.969
432.884
432.793
432.695
432.593
432.486
432.375
432.261
432.145
432.026
431.906
431.784
431.66
431.534
431.406
431.276
431.144
431.008
430.869
430.726
430.579
430.428
430.272
430.113
429.95
429.783
429.615
429.445
429.275
429.107
428.941
428.78
428.624
428.476
428.336
428.206
428.087
427.98
427.885
427.804
427.737
427.685
427.648
427.625
427.617
427.625
427.647
427.683
427.733
427.796
427.872
427.959
428.057
428.166
428.283
428.409
428.542
428.68
428.823
428.97
412.248
414.334
416.481
418.647
420.823
423.222
426.025
428.114
429.81
431.472
433.157
434.92
436.707
438.267
439.47
440.351
440.986
441.411
441.632
441.651
441.483
441.15
440.681
440.104
439.447
438.738
438.002
437.264
436.543
435.853
435.208
434.615
434.08
433.604
433.189
432.832
432.534
432.291
432.1
431.957
431.857
431.796
431.768
431.767
431.786
431.819
431.857
431.896
431.929
431.952
431.961
431.955
431.933
431.894
431.84
431.771
431.689
431.595
431.491
431.379
431.261
431.136
431.007
430.874
430.738
430.601
430.462
430.323
430.183
430.045
429.907
429.771
429.637
429.506
429.378
429.253
429.131
429.014
428.902
428.795
428.694
428.599
428.511
428.431
428.359
428.297
428.245
428.204
428.175
428.158
428.153
428.162
428.183
428.217
428.263
428.322
428.392
428.473
428.564
428.663
428.77
428.883
429
429.121
429.244
429.367
429.491
429.614
429.735
429.854
429.968
430.078
430.181
430.278
430.366
430.441
430.503
430.55
430.579
430.588
430.575
430.537
430.471
411.506
413.476
415.48
417.492
419.634
422.189
424.691
426.441
428.069
429.721
431.39
433.074
434.77
436.284
437.45
438.315
438.974
439.46
439.768
439.888
439.825
439.594
439.219
438.724
438.135
437.476
436.775
436.054
435.336
434.638
433.975
433.358
432.794
432.287
431.842
431.458
431.134
430.87
430.66
430.501
430.386
430.308
430.262
430.238
430.23
430.23
430.231
430.228
430.216
430.192
430.155
430.104
430.04
429.964
429.878
429.785
429.687
429.586
429.485
429.385
429.289
429.197
429.11
429.03
428.956
428.891
428.834
428.785
428.746
428.717
428.697
428.688
428.689
428.699
428.72
428.75
428.789
428.838
428.894
428.958
429.028
429.105
429.188
429.274
429.364
429.456
429.55
429.644
429.739
429.833
429.927
430.019
430.109
430.195
430.278
430.355
430.424
430.483
430.531
430.565
430.584
430.586
430.569
430.528
430.462
430.367
430.254
430.126
429.983
429.825
429.65
429.458
429.246
429.013
428.763
428.507
428.244
427.977
427.708
427.442
427.183
426.936
426.708
410.89
412.742
414.609
416.551
418.77
421.317
423.32
424.926
426.54
428.186
429.823
431.432
433.021
434.472
435.594
436.44
437.106
437.615
437.952
438.104
438.074
437.877
437.532
437.063
436.497
435.858
435.172
434.464
433.753
433.059
432.395
431.775
431.206
430.696
430.248
429.865
429.547
429.292
429.096
428.955
428.861
428.808
428.788
428.793
428.817
428.851
428.89
428.931
428.969
429.002
429.031
429.055
429.076
429.096
429.115
429.137
429.162
429.192
429.228
429.27
429.32
429.376
429.438
429.506
429.579
429.656
429.736
429.818
429.9
429.982
430.063
430.143
430.222
430.298
430.371
430.441
430.508
430.568
430.622
430.666
430.701
430.725
430.737
430.734
430.715
430.678
430.62
430.537
430.435
430.32
430.193
430.053
429.898
429.728
429.539
429.333
429.119
428.9
428.677
428.45
428.224
428.002
427.787
427.586
427.404
427.25
427.102
426.954
426.807
426.664
426.527
426.401
426.292
426.206
426.138
426.075
426.018
425.967
425.924
425.886
425.854
425.824
425.792
425.753
425.711
410.405
412.134
413.923
415.892
418.147
420.307
421.999
423.589
425.2
426.804
428.365
429.869
431.319
432.65
433.706
434.521
435.173
435.672
436.002
436.159
436.148
435.982
435.682
435.268
434.765
434.197
433.588
432.959
432.332
431.724
431.149
430.621
430.148
429.739
429.398
429.128
428.927
428.794
428.723
428.708
428.742
428.816
428.921
429.05
429.193
429.345
429.499
429.65
429.796
429.932
430.059
430.176
430.282
430.379
430.467
430.548
430.623
430.692
430.757
430.816
430.869
430.915
430.952
430.979
430.997
431.002
430.995
430.972
430.933
430.872
430.789
430.691
430.581
430.459
430.324
430.175
430.009
429.828
429.64
429.446
429.25
429.051
428.851
428.655
428.465
428.286
428.125
427.988
427.869
427.75
427.634
427.523
427.42
427.331
427.262
427.213
427.17
427.133
427.103
427.079
427.062
427.051
427.045
427.042
427.037
427.026
427.015
427.009
427.008
427.011
427.017
427.026
427.034
427.037
427.038
427.042
427.047
427.054
427.062
427.069
427.076
427.082
427.087
427.094
427.105
409.987
411.655
413.453
415.448
417.511
419.323
420.957
422.567
424.165
425.727
427.237
428.681
430.029
431.26
432.329
433.184
433.874
434.415
434.801
435.032
435.113
435.058
434.882
434.605
434.246
433.828
433.372
432.898
432.425
431.968
431.543
431.16
430.829
430.554
430.341
430.187
430.093
430.052
430.06
430.11
430.193
430.3
430.423
430.552
430.68
430.799
430.907
430.997
431.068
431.118
431.144
431.146
431.123
431.071
430.998
430.91
430.809
430.692
430.56
430.411
430.252
430.086
429.917
429.745
429.569
429.395
429.223
429.058
428.905
428.769
428.659
428.559
428.462
428.368
428.282
428.208
428.152
428.115
428.084
428.058
428.039
428.026
428.02
428.021
428.027
428.038
428.051
428.058
428.064
428.075
428.09
428.11
428.133
428.158
428.18
428.198
428.219
428.242
428.267
428.294
428.32
428.347
428.373
428.397
428.421
428.445
428.473
428.503
428.535
428.569
428.603
428.638
428.672
428.708
428.745
428.784
428.825
428.869
428.914
428.962
429.013
429.068
429.127
429.191
429.26
408.846
410.447
412.143
413.973
415.901
417.768
419.501
421.171
422.815
424.426
425.991
427.498
428.93
430.262
431.48
432.548
433.473
434.234
434.818
435.245
435.525
435.661
435.66
435.536
435.308
434.995
434.618
434.198
433.754
433.302
432.858
432.437
432.048
431.701
431.398
431.142
430.931
430.757
430.618
430.512
430.433
430.37
430.314
430.257
430.201
430.141
430.073
429.995
429.906
429.808
429.702
429.593
429.485
429.386
429.305
429.234
429.161
429.091
429.028
428.977
428.944
428.921
428.902
428.888
428.88
428.879
428.884
428.895
428.913
428.934
428.956
428.973
428.991
429.014
429.042
429.073
429.105
429.136
429.164
429.194
429.227
429.263
429.299
429.337
429.375
429.413
429.449
429.484
429.52
429.558
429.598
429.64
429.683
429.726
429.769
429.813
429.857
429.903
429.95
429.998
430.047
430.097
430.148
430.2
430.253
430.309
430.367
430.428
430.49
430.555
430.623
430.693
430.766
430.843
430.925
431.013
431.106
431.205
431.311
431.424
431.546
431.678
431.819
431.971
432.134
432.31
410.627
412.25
413.966
415.767
417.59
419.358
421.063
422.723
424.341
425.909
427.415
428.847
430.187
431.417
432.522
433.483
434.289
434.937
435.414
435.707
435.845
435.835
435.682
435.407
435.031
434.575
434.056
433.497
432.911
432.327
431.765
431.239
430.76
430.336
429.973
429.674
429.443
429.279
429.178
429.119
429.093
429.095
429.126
429.179
429.238
429.299
429.358
429.417
429.473
429.526
429.578
429.629
429.678
429.723
429.761
429.794
429.83
429.869
429.909
429.95
429.986
430.023
430.063
430.105
430.148
430.194
430.24
430.286
430.332
430.376
430.42
430.464
430.511
430.559
430.608
430.657
430.707
430.756
430.806
430.858
430.91
430.963
431.017
431.071
431.125
431.18
431.236
431.293
431.351
431.41
431.471
431.533
431.596
431.66
431.726
431.794
431.864
431.937
432.013
432.091
432.173
432.258
432.347
432.441
432.54
432.644
432.754
432.87
432.993
433.124
433.263
433.412
433.571
433.742
433.925
434.122
434.333
434.56
434.805
435.068
435.351
435.656
435.984
436.338
436.719
437.13
437.572
438.049
412.211
413.797
415.447
417.135
418.814
420.449
422.034
423.564
425.036
426.44
427.765
428.999
430.128
431.138
432.016
432.751
433.337
433.772
434.05
434.179
434.182
434.074
433.885
433.61
433.258
432.855
432.425
431.996
431.588
431.203
430.85
430.545
430.292
430.093
429.952
429.865
429.826
429.827
429.859
429.922
430.007
430.108
430.216
430.324
430.433
430.54
430.643
430.74
430.832
430.916
430.995
431.067
431.133
431.194
431.252
431.309
431.367
431.424
431.48
431.536
431.592
431.649
431.707
431.766
431.826
431.885
431.945
432.005
432.065
432.125
432.187
432.249
432.311
432.375
432.438
432.503
432.568
432.634
432.701
432.769
432.838
432.909
432.981
433.055
433.13
433.207
433.287
433.37
433.455
433.543
433.635
433.73
433.83
433.934
434.044
434.16
434.282
434.41
434.547
434.691
434.845
435.008
435.182
435.367
435.565
435.777
436.003
436.246
436.507
436.787
437.088
437.411
437.759
438.133
438.535
438.968
439.434
439.935
440.475
441.054
441.678
442.347
443.067
443.839
444.667
445.554
446.503
447.518
412.33
413.881
415.473
417.081
418.68
420.256
421.796
423.291
424.729
426.101
427.395
428.601
429.706
430.701
431.576
432.322
432.934
433.409
433.754
433.969
434.063
434.049
433.937
433.749
433.506
433.226
432.926
432.619
432.317
432.041
431.8
431.603
431.451
431.347
431.287
431.27
431.29
431.34
431.417
431.514
431.624
431.742
431.863
431.983
432.101
432.215
432.323
432.424
432.519
432.608
432.691
432.77
432.845
432.918
432.989
433.059
433.129
433.198
433.267
433.337
433.407
433.477
433.549
433.62
433.693
433.766
433.839
433.913
433.989
434.065
434.142
434.221
434.301
434.383
434.466
434.552
434.64
434.73
434.823
434.92
435.019
435.123
435.231
435.343
435.461
435.585
435.715
435.851
435.995
436.148
436.31
436.481
436.664
436.858
437.065
437.287
437.523
437.776
438.047
438.338
438.65
438.984
439.343
439.729
440.143
440.589
441.068
441.582
442.136
442.73
443.369
444.055
444.791
445.581
446.427
447.332
448.3
449.333
450.432
451.6
452.838
454.144
455.517
456.951
458.442
459.978
461.547
463.131
413.879
415.46
417.067
418.681
420.281
421.852
423.381
424.856
426.269
427.609
428.864
430.024
431.078
432.02
432.837
433.524
434.079
434.501
434.794
434.965
435.026
434.991
434.877
434.703
434.487
434.244
433.992
433.744
433.514
433.313
433.149
433.026
432.945
432.905
432.903
432.936
432.999
433.085
433.19
433.307
433.431
433.558
433.686
433.811
433.931
434.046
434.155
434.258
434.356
434.449
434.539
434.625
434.71
434.793
434.875
434.957
435.04
435.122
435.205
435.29
435.375
435.461
435.549
435.639
435.73
435.823
435.918
436.016
436.117
436.22
436.327
436.438
436.552
436.672
436.796
436.926
437.062
437.204
437.354
437.512
437.679
437.856
438.043
438.241
438.453
438.678
438.918
439.175
439.45
439.744
440.059
440.396
440.758
441.147
441.565
442.013
442.495
443.012
443.568
444.164
444.805
445.493
446.231
447.022
447.869
448.775
449.743
450.775
451.872
453.037
454.268
455.564
456.923
458.339
459.802
461.302
462.824
464.348
465.85
467.302
468.67
469.916
471
471.881
472.519
472.883
472.948
472.697
472.116
417.871
419.468
421.061
422.631
424.165
425.648
427.071
428.421
429.688
430.862
431.934
432.895
433.736
434.453
435.043
435.505
435.844
436.065
436.18
436.201
436.145
436.028
435.867
435.677
435.475
435.275
435.089
434.928
434.798
434.703
434.647
434.627
434.643
434.69
434.764
434.86
434.972
435.095
435.226
435.359
435.493
435.624
435.751
435.873
435.99
436.103
436.211
436.315
436.417
436.517
436.616
436.714
436.813
436.913
437.014
437.117
437.222
437.329
437.44
437.553
437.67
437.791
437.916
438.046
438.182
438.323
438.47
438.624
438.786
438.956
439.136
439.326
439.526
439.739
439.965
440.206
440.462
440.736
441.028
441.341
441.675
442.034
442.418
442.83
443.272
443.747
444.256
444.803
445.39
446.02
446.697
447.422
448.199
449.031
449.921
450.871
451.883
452.959
454.1
455.305
456.573
457.899
459.278
460.701
462.154
463.621
465.082
466.512
467.88
469.15
470.285
471.243
471.982
472.467
472.668
472.565
472.142
471.389
470.302
468.886
467.16
465.155
462.922
460.524
458.042
455.516
452.935
450.273
420.557
422.139
423.703
425.233
426.717
428.14
429.491
430.76
431.937
433.013
433.981
434.834
435.566
436.176
436.665
437.036
437.295
437.452
437.52
437.512
437.444
437.332
437.192
437.038
436.884
436.741
436.618
436.523
436.459
436.429
436.432
436.466
436.529
436.616
436.722
436.844
436.976
437.114
437.256
437.398
437.539
437.676
437.811
437.942
438.07
438.195
438.318
438.441
438.564
438.688
438.813
438.941
439.073
439.208
439.348
439.493
439.644
439.802
439.967
440.14
440.321
440.512
440.714
440.927
441.152
441.391
441.645
441.915
442.202
442.509
442.836
443.186
443.561
443.962
444.391
444.852
445.345
445.875
446.443
447.053
447.706
448.407
449.157
449.961
450.82
451.737
452.714
453.752
454.853
456.016
457.239
458.519
459.848
461.218
462.616
464.026
465.426
466.792
468.093
469.293
470.354
471.235
471.895
472.297
472.416
472.231
471.727
470.897
469.739
468.261
466.487
464.452
462.213
459.84
457.407
454.927
452.383
449.749
447.005
444.145
441.169
438.065
434.806
431.332
427.541
423.359
418.769
413.761
424.999
426.521
427.998
429.415
430.76
432.024
433.197
434.27
435.237
436.092
436.831
437.453
437.958
438.351
438.639
438.829
438.934
438.967
438.943
438.876
438.782
438.673
438.563
438.462
438.379
438.32
438.289
438.288
438.318
438.376
438.459
438.564
438.688
438.825
438.973
439.127
439.285
439.445
439.605
439.764
439.923
440.08
440.237
440.395
440.554
440.716
440.881
441.051
441.228
441.411
441.603
441.803
442.015
442.237
442.473
442.722
442.986
443.267
443.566
443.884
444.223
444.585
444.972
445.385
445.827
446.301
446.807
447.35
447.932
448.555
449.222
449.937
450.701
451.519
452.391
453.321
454.309
455.358
456.465
457.632
458.852
460.122
461.433
462.771
464.123
465.468
466.782
468.035
469.192
470.217
471.067
471.703
472.088
472.195
472.003
471.499
470.673
469.526
468.067
466.318
464.319
462.125
459.807
457.435
455.014
452.526
449.945
447.255
444.451
441.53
438.478
435.257
431.793
427.98
423.779
419.173
414.151
408.699
402.783
396.356
389.361
381.74
373.448
364.471
354.812
344.468
333.458
429.46
430.866
432.201
433.454
434.616
435.681
436.64
437.491
438.23
438.856
439.372
439.78
440.089
440.307
440.444
440.515
440.531
440.508
440.459
440.396
440.333
440.277
440.238
440.221
440.229
440.265
440.329
440.419
440.533
440.668
440.82
440.986
441.163
441.349
441.54
441.735
441.934
442.136
442.342
442.551
442.765
442.986
443.213
443.45
443.697
443.957
444.23
444.52
444.826
445.151
445.498
445.867
446.26
446.681
447.13
447.61
448.124
448.674
449.262
449.892
450.565
451.285
452.055
452.875
453.75
454.68
455.667
456.712
457.812
458.965
460.168
461.412
462.688
463.981
465.274
466.544
467.763
468.901
469.92
470.78
471.441
471.865
472.022
471.891
471.455
470.706
469.641
468.268
466.606
464.692
462.579
460.335
458.031
455.679
453.264
450.759
448.148
445.426
442.589
439.621
436.483
433.096
429.359
425.242
420.725
415.799
410.442
404.617
398.272
391.347
383.785
375.546
366.625
357.01
346.705
335.723
324.078
311.797
298.921
285.513
271.658
257.459
243.03
228.486
213.951
199.557
185.43
171.693
432.473
433.794
435.033
436.182
437.234
438.184
439.028
439.764
440.392
440.915
441.337
441.666
441.91
442.08
442.188
442.247
442.27
442.27
442.259
442.248
442.246
442.26
442.295
442.355
442.442
442.556
442.695
442.858
443.043
443.246
443.466
443.699
443.945
444.201
444.467
444.743
445.029
445.326
445.635
445.958
446.298
446.655
447.032
447.432
447.856
448.308
448.79
449.304