/*--------------------------------*- C++ -*----------------------------------*\
| =========                 |                                                 |
| \\      /  F ield         | OpenFOAM: The Open Source CFD Toolbox           |
|  \\    /   O peration     | Version:  v1706                                 |
|   \\  /    A nd           | Web:      www.OpenFOAM.com                      |
|    \\/     M anipulation  |                                                 |
\*---------------------------------------------------------------------------*/
FoamFile
{
    version     2.0;
    format      ascii;
    class       volScalarField;
    location    "3e-06";
    object      rho;
}
// * * * * * * * * * * * * * * * * * * * * * * * * * * * * * * * * * * * * * //

dimensions      [1 -3 0 0 0 0 0];


internalField   nonuniform List<scalar> 
29871
(
0.000511309
0.000511309
0.000511309
0.000511309
0.000511309
0.000511309
0.000511309
0.000511309
0.000511309
0.000511309
0.000511309
0.000511309
0.000511309
0.000511309
0.000511309
0.000511309
0.000511309
0.000511309
0.000511309
0.000511309
0.000511309
0.000511309
0.000511309
0.000511309
0.000511309
0.000511309
0.000511309
0.000511309
0.000511309
0.000511309
0.000511309
0.000511309
0.000511309
0.000511309
0.000511309
0.000511309
0.000511309
0.000511309
0.000511309
0.000511309
0.000511309
0.000511309
0.000511309
0.000511309
0.000511309
0.000511309
0.000511309
0.000511309
0.000511309
0.000511309
0.000511309
0.000511309
0.000511309
0.000511309
0.000511309
0.000511309
0.000511309
0.000511309
0.000511309
0.000511309
0.000511309
0.000511309
0.000511309
0.000511309
0.000511309
0.000511309
0.000511309
0.000511309
0.000511309
0.000511309
0.000511309
0.000511309
0.000511309
0.000511309
0.000511309
0.000511309
0.000511309
0.000511309
0.000511309
0.000511309
0.000511309
0.000511309
0.000511309
0.000511309
0.000511309
0.000511309
0.000511309
0.000511309
0.000511309
0.000511309
0.000511309
0.000511309
0.000511309
0.000511309
0.000511309
0.000511309
0.000511309
0.000511309
0.000511309
0.000511309
0.000511309
0.000511309
0.000511309
0.000511309
0.000511309
0.000511309
0.000511309
0.000511309
0.000511309
0.000511309
0.000511309
0.000511309
0.000511309
0.000511309
0.000511309
0.000511309
0.000511309
0.000511309
0.000511309
0.000511309
0.000511309
0.000511309
0.000511309
0.000511309
0.000511309
0.000511309
0.000511309
0.000511309
0.000511309
0.000511309
0.000511309
0.00051131
0.00051131
0.00051131
0.00051131
0.00051131
0.00051131
0.00051131
0.00051131
0.00051131
0.00051131
0.00051131
0.00051131
0.00051131
0.00051131
0.00051131
0.00051131
0.00051131
0.00051131
0.00051131
0.00051131
0.00051131
0.00051131
0.00051131
0.00051131
0.00051131
0.00051131
0.00051131
0.00051131
0.00051131
0.00051131
0.00051131
0.00051131
0.00051131
0.00051131
0.00051131
0.00051131
0.00051131
0.00051131
0.00051131
0.00051131
0.00051131
0.00051131
0.00051131
0.00051131
0.00051131
0.00051131
0.00051131
0.00051131
0.00051131
0.00051131
0.00051131
0.00051131
0.00051131
0.00051131
0.00051131
0.00051131
0.00051131
0.00051131
0.00051131
0.00051131
0.00051131
0.00051131
0.00051131
0.00051131
0.00051131
0.00051131
0.00051131
0.00051131
0.00051131
0.00051131
0.000511311
0.000511311
0.000511311
0.000511311
0.000511311
0.000511311
0.000511311
0.000511311
0.000511311
0.00051131
0.00051131
0.00051131
0.00051131
0.00051131
0.00051131
0.00051131
0.00051131
0.00051131
0.00051131
0.00051131
0.00051131
0.00051131
0.00051131
0.00051131
0.00051131
0.00051131
0.00051131
0.00051131
0.00051131
0.00051131
0.00051131
0.00051131
0.00051131
0.00051131
0.00051131
0.00051131
0.00051131
0.00051131
0.00051131
0.00051131
0.00051131
0.00051131
0.000511311
0.000511311
0.000511311
0.000511311
0.000511311
0.000511311
0.000511311
0.000511311
0.000511311
0.000511311
0.000511311
0.000511311
0.000511311
0.000511311
0.000511311
0.000511311
0.000511311
0.000511311
0.000511311
0.000511311
0.000511311
0.000511311
0.000511312
0.000511312
0.000511312
0.000511312
0.000511312
0.000511312
0.000511312
0.000511312
0.000511312
0.000511312
0.000511313
0.000511313
0.000511313
0.000511313
0.000511313
0.000511313
0.000511313
0.000511313
0.000511314
0.000511314
0.000511314
0.000511314
0.000511314
0.000511314
0.000511315
0.000511315
0.000511315
0.000511315
0.000511315
0.000511315
0.000511316
0.000511316
0.000511316
0.000511316
0.000511316
0.000511317
0.000511317
0.000511317
0.000511317
0.000511317
0.000511318
0.000511318
0.000511318
0.000511318
0.000511318
0.000511319
0.000511319
0.000511319
0.000511319
0.00051132
0.00051132
0.000511311
0.000511311
0.000511311
0.000511311
0.000511312
0.000511312
0.000511312
0.000511312
0.000511312
0.000511312
0.000511312
0.000511312
0.000511312
0.000511313
0.000511313
0.000511313
0.000511313
0.000511313
0.000511313
0.000511313
0.000511314
0.000511314
0.000511314
0.000511314
0.000511314
0.000511314
0.000511315
0.000511315
0.000511315
0.000511315
0.000511316
0.000511316
0.000511316
0.000511316
0.000511316
0.000511317
0.000511317
0.000511317
0.000511318
0.000511318
0.000511318
0.000511318
0.000511319
0.000511319
0.000511319
0.00051132
0.00051132
0.00051132
0.000511321
0.000511321
0.000511321
0.000511322
0.000511322
0.000511323
0.000511323
0.000511323
0.000511324
0.000511324
0.000511325
0.000511325
0.000511326
0.000511326
0.000511326
0.000511327
0.000511327
0.000511328
0.000511328
0.000511329
0.00051133
0.00051133
0.000511331
0.000511331
0.000511332
0.000511333
0.000511333
0.000511334
0.000511335
0.000511335
0.000511336
0.000511337
0.000511338
0.000511339
0.000511339
0.00051134
0.000511341
0.000511342
0.000511343
0.000511344
0.000511346
0.000511347
0.000511348
0.000511349
0.000511351
0.000511352
0.000511354
0.000511355
0.000511357
0.000511359
0.000511361
0.000511363
0.000511365
0.000511367
0.00051137
0.000511372
0.000511375
0.000511377
0.000511319
0.000511319
0.00051132
0.00051132
0.00051132
0.000511321
0.000511321
0.000511322
0.000511322
0.000511323
0.000511324
0.000511325
0.000511325
0.000511326
0.000511327
0.000511328
0.000511329
0.000511329
0.00051133
0.000511331
0.000511332
0.000511333
0.000511334
0.000511335
0.000511336
0.000511336
0.000511337
0.000511338
0.000511339
0.00051134
0.000511341
0.000511342
0.000511343
0.000511344
0.000511345
0.000511346
0.000511347
0.000511348
0.00051135
0.000511351
0.000511352
0.000511353
0.000511355
0.000511356
0.000511357
0.000511359
0.00051136
0.000511362
0.000511364
0.000511365
0.000511367
0.000511369
0.000511371
0.000511373
0.000511375
0.000511377
0.000511379
0.000511382
0.000511384
0.000511387
0.00051139
0.000511393
0.000511396
0.000511399
0.000511402
0.000511406
0.000511409
0.000511413
0.000511417
0.000511422
0.000511426
0.000511431
0.000511436
0.000511441
0.000511446
0.000511452
0.000511457
0.000511463
0.000511469
0.000511476
0.000511482
0.000511489
0.000511496
0.000511504
0.000511511
0.000511519
0.000511527
0.000511535
0.000511543
0.000511552
0.00051156
0.000511569
0.000511578
0.000511587
0.000511597
0.000511606
0.000511616
0.000511626
0.000511636
0.000511646
0.000511657
0.000511668
0.000511679
0.00051169
0.000511702
0.000511714
0.000511726
0.000511358
0.000511359
0.00051136
0.000511361
0.000511363
0.000511365
0.000511367
0.000511369
0.000511372
0.000511375
0.000511378
0.000511381
0.000511384
0.000511388
0.000511391
0.000511395
0.000511399
0.000511403
0.000511407
0.000511411
0.000511415
0.000511419
0.000511424
0.000511428
0.000511433
0.000511438
0.000511443
0.000511448
0.000511453
0.000511459
0.000511465
0.000511471
0.000511477
0.000511484
0.00051149
0.000511497
0.000511504
0.000511512
0.00051152
0.000511528
0.000511537
0.000511545
0.000511555
0.000511564
0.000511574
0.000511584
0.000511595
0.000511606
0.000511617
0.000511629
0.000511641
0.000511653
0.000511666
0.000511679
0.000511693
0.000511707
0.000511721
0.000511735
0.00051175
0.000511766
0.000511781
0.000511797
0.000511814
0.00051183
0.000511847
0.000511865
0.000511883
0.000511902
0.000511921
0.00051194
0.000511961
0.000511981
0.000512003
0.000512025
0.000512048
0.000512071
0.000512096
0.000512121
0.000512147
0.000512174
0.000512202
0.000512231
0.000512261
0.000512292
0.000512324
0.000512357
0.000512392
0.000512427
0.000512465
0.000512503
0.000512544
0.000512586
0.000512629
0.000512675
0.000512723
0.000512773
0.000512825
0.00051288
0.000512938
0.000512999
0.000513063
0.00051313
0.000513201
0.000513276
0.000513356
0.00051344
0.000513528
0.000511517
0.000511518
0.000511521
0.000511525
0.000511531
0.000511538
0.000511547
0.000511556
0.000511568
0.00051158
0.000511594
0.000511609
0.000511626
0.000511644
0.000511662
0.000511682
0.000511703
0.000511724
0.000511746
0.000511768
0.000511791
0.000511815
0.000511838
0.000511863
0.000511887
0.000511912
0.000511937
0.000511963
0.000511989
0.000512015
0.000512042
0.000512069
0.000512097
0.000512125
0.000512154
0.000512184
0.000512214
0.000512244
0.000512276
0.000512308
0.000512341
0.000512375
0.00051241
0.000512446
0.000512483
0.000512522
0.000512561
0.000512603
0.000512645
0.00051269
0.000512735
0.000512783
0.000512832
0.000512883
0.000512936
0.000512992
0.000513049
0.000513109
0.000513171
0.000513235
0.000513303
0.000513373
0.000513446
0.000513523
0.000513604
0.000513688
0.000513776
0.000513869
0.000513966
0.000514068
0.000514175
0.000514288
0.000514407
0.000514532
0.000514664
0.000514802
0.000514948
0.000515102
0.000515263
0.000515432
0.00051561
0.000515797
0.000515993
0.000516198
0.000516412
0.000516637
0.000516871
0.000517116
0.000517371
0.000517636
0.000517912
0.000518198
0.000518495
0.000518803
0.000519121
0.000519449
0.000519787
0.000520136
0.000520494
0.000520862
0.00052124
0.000521627
0.000522024
0.00052243
0.000522845
0.000523269
0.000523703
0.000524147
0.000524601
0.000525065
0.000512302
0.000512312
0.000512328
0.00051235
0.000512378
0.000512412
0.000512452
0.000512498
0.00051255
0.000512607
0.00051267
0.000512737
0.000512809
0.000512884
0.000512964
0.000513046
0.000513131
0.000513219
0.000513309
0.000513401
0.000513495
0.000513591
0.000513689
0.00051379
0.000513893
0.000513999
0.000514109
0.000514221
0.000514338
0.000514458
0.000514583
0.000514713
0.000514847
0.000514987
0.000515132
0.000515283
0.00051544
0.000515604
0.000515776
0.000515955
0.000516142
0.000516337
0.000516542
0.000516757
0.000516982
0.000517217
0.000517464
0.000517722
0.000517993
0.000518275
0.000518571
0.000518879
0.000519201
0.000519536
0.000519886
0.000520249
0.000520626
0.000521017
0.000521423
0.000521842
0.000522277
0.000522725
0.000523187
0.000523664
0.000524155
0.00052466
0.000525179
0.000525712
0.000526259
0.00052682
0.000527396
0.000527986
0.000528592
0.000529213
0.000529849
0.000530503
0.000531174
0.000531863
0.000532572
0.000533302
0.000534053
0.000534827
0.000535625
0.000536449
0.0005373
0.00053818
0.000539089
0.00054003
0.000541004
0.000542013
0.000543058
0.000544141
0.000545263
0.000546428
0.000547636
0.00054889
0.000550193
0.000551548
0.000552958
0.000554426
0.000555958
0.000557558
0.000559231
0.000560983
0.000562823
0.000564757
0.000566794
0.000568945
0.000571219
0.000573629
0.000515405
0.000515471
0.000515562
0.00051568
0.000515825
0.000515997
0.000516197
0.000516425
0.000516682
0.000516966
0.000517278
0.000517618
0.000517983
0.000518374
0.00051879
0.000519228
0.000519687
0.000520165
0.000520661
0.000521173
0.0005217
0.000522242
0.000522799
0.000523371
0.000523957
0.000524559
0.000525176
0.000525809
0.000526458
0.000527122
0.000527802
0.000528497
0.000529207
0.000529931
0.00053067
0.000531424
0.000532193
0.000532978
0.000533781
0.000534601
0.000535441
0.000536301
0.000537184
0.00053809
0.000539021
0.000539978
0.000540963
0.000541978
0.000543025
0.000544104
0.000545217
0.000546367
0.000547555
0.000548782
0.000550051
0.000551364
0.000552723
0.000554131
0.000555589
0.000557101
0.00055867
0.000560299
0.000561993
0.000563754
0.000565588
0.000567501
0.000569498
0.000571586
0.000573772
0.000576065
0.000578474
0.000581008
0.00058368
0.000586502
0.000589486
0.000592648
0.000596004
0.000599571
0.000603368
0.000607416
0.000611736
0.000616352
0.00062129
0.000626577
0.000632242
0.000638317
0.000644832
0.000651825
0.000659329
0.000667382
0.000676024
0.000685294
0.000695232
0.000705879
0.000717275
0.000729462
0.000742477
0.000756358
0.000771139
0.000786852
0.000803523
0.000821173
0.000839819
0.000859467
0.000880117
0.000901761
0.00092438
0.000947944
0.000972417
0.000997751
0.000529866
0.000530236
0.000530728
0.000531344
0.000532079
0.000532931
0.000533894
0.000534966
0.000536144
0.000537423
0.000538795
0.000540254
0.000541789
0.000543391
0.00054505
0.000546757
0.000548502
0.00055028
0.000552086
0.000553916
0.000555772
0.000557655
0.00055957
0.00056152
0.000563511
0.00056555
0.000567643
0.000569795
0.000572011
0.000574297
0.000576658
0.000579098
0.000581623
0.000584241
0.000586957
0.000589781
0.000592722
0.000595791
0.000599002
0.000602367
0.000605903
0.000609627
0.000613556
0.00061771
0.00062211
0.000626778
0.000631737
0.000637012
0.000642629
0.000648616
0.000655001
0.000661816
0.000669093
0.000676865
0.000685169
0.00069404
0.000703516
0.000713636
0.000724438
0.000735961
0.000748246
0.00076133
0.000775252
0.000790046
0.000805745
0.000822379
0.000839974
0.000858549
0.000878118
0.000898689
0.000920258
0.000942817
0.000966343
0.000990807
0.00101617
0.00104237
0.00106936
0.00109706
0.00112539
0.00115427
0.00118359
0.00121331
0.00124333
0.00127356
0.00130386
0.00133409
0.00136414
0.00139387
0.00142316
0.00145188
0.00147992
0.00150717
0.00153354
0.00155893
0.00158328
0.00160652
0.0016286
0.00164949
0.00166916
0.0016876
0.0017048
0.00172078
0.00173553
0.00174908
0.00176148
0.00177274
0.00178294
0.00179212
0.00180036
0.00180772
0.00058057
0.00058203
0.000583866
0.000586089
0.000588708
0.000591726
0.000595144
0.00059896
0.000603175
0.000607788
0.000612804
0.000618226
0.000624056
0.000630298
0.000636957
0.00064404
0.000651552
0.000659499
0.000667891
0.00067674
0.000686068
0.000695909
0.00070631
0.000717315
0.000728959
0.00074128
0.000754322
0.00076813
0.000782744
0.000798194
0.000814498
0.000831669
0.000849713
0.000868635
0.000888436
0.000909116
0.000930674
0.000953105
0.000976401
0.00100055
0.00102553
0.00105131
0.00107787
0.00110515
0.00113309
0.00116163
0.00119069
0.00122018
0.00125
0.00128006
0.0013103
0.00134061
0.00137086
0.00140091
0.00143062
0.00145986
0.00148852
0.00151646
0.00154359
0.00156979
0.00159499
0.0016191
0.00164206
0.00166381
0.00168432
0.00170356
0.00172152
0.0017382
0.0017536
0.00176775
0.00178066
0.00179239
0.00180298
0.00181249
0.00182099
0.00182856
0.00183529
0.00184126
0.00184655
0.00185125
0.00185555
0.00186074
0.00186532
0.00186909
0.00187213
0.00187451
0.0018763
0.00187759
0.00187848
0.00187904
0.00187931
0.00187938
0.00187931
0.00187918
0.00187903
0.00187892
0.00187886
0.00187888
0.00187899
0.0018792
0.00187951
0.0018799
0.00188036
0.00188087
0.00188142
0.00188196
0.00188248
0.00188294
0.0018833
0.00188353
0.000780694
0.000787296
0.000795944
0.000806799
0.000819946
0.000835424
0.000853216
0.000873299
0.000895719
0.000920576
0.000947928
0.000977724
0.00100981
0.00104396
0.00107988
0.0011172
0.00115548
0.00119428
0.0012332
0.00127189
0.00130998
0.00134733
0.00138398
0.00141975
0.00145434
0.00148765
0.00151976
0.00155064
0.00158019
0.00160829
0.00163487
0.0016599
0.00168334
0.00170518
0.00172542
0.0017441
0.00176125
0.00177692
0.00179116
0.00180402
0.00181559
0.00182593
0.00183514
0.00184331
0.00185052
0.00185687
0.00186247
0.00186742
0.00187177
0.00187567
0.00188004
0.00188427
0.00188777
0.00189058
0.00189278
0.00189445
0.00189569
0.00189657
0.00189718
0.00189759
0.00189783
0.00189799
0.0018981
0.00189823
0.00189839
0.00189863
0.00189894
0.00189934
0.00189984
0.0019004
0.00190104
0.00190171
0.00190241
0.00190311
0.00190376
0.00190435
0.00190482
0.00190515
0.00190529
0.00190523
0.00190491
0.00190425
0.00190167
0.00189847
0.00189522
0.00189187
0.00188843
0.00188494
0.00188139
0.0018778
0.00187419
0.00187065
0.00186718
0.00186378
0.00186045
0.0018572
0.001854
0.00185084
0.00184769
0.00184454
0.00184135
0.00183809
0.00183475
0.00183127
0.00182763
0.0018238
0.00181975
0.00181543
0.00181083
0.00180591
0.00180064
0.00155593
0.00157339
0.00159499
0.00161899
0.00164378
0.00166915
0.00169553
0.00172253
0.00174899
0.00177399
0.00179713
0.00181792
0.00183577
0.00185051
0.00186229
0.0018714
0.00187823
0.00188327
0.001887
0.00188987
0.00189218
0.00189492
0.0018976
0.00189977
0.00190163
0.00190317
0.00190436
0.00190531
0.00190616
0.00190699
0.00190781
0.00190863
0.00190951
0.00191045
0.00191147
0.00191256
0.00191372
0.00191491
0.00191612
0.00191732
0.00191848
0.00191957
0.00192059
0.00192148
0.00192222
0.00192276
0.00192308
0.00192317
0.00192299
0.0019225
0.00192077
0.00191796
0.00191508
0.00191213
0.00190912
0.00190608
0.00190302
0.00189994
0.00189684
0.00189375
0.00189071
0.00188774
0.00188483
0.00188198
0.00187916
0.00187636
0.00187356
0.00187074
0.00186785
0.00186489
0.00186181
0.00185858
0.00185518
0.00185156
0.00184771
0.00184358
0.00183915
0.0018344
0.00182929
0.00182383
0.00181802
0.00181187
0.00180552
0.00179921
0.00179297
0.00178677
0.00178064
0.00177457
0.00176858
0.00176269
0.00175688
0.00175111
0.00174536
0.00173961
0.00173382
0.00172799
0.00172208
0.00171609
0.00170999
0.00170378
0.00169745
0.00169098
0.00168438
0.00167765
0.00167079
0.00166381
0.00165672
0.00164954
0.0016423
0.00163501
0.00162771
0.00162042
0.00161318
0.00193131
0.0019413
0.00194877
0.00195243
0.00195565
0.00195869
0.00196059
0.00196095
0.00196073
0.00196009
0.00195894
0.00195721
0.00195521
0.00195316
0.00195103
0.00194879
0.00194647
0.00194408
0.00194159
0.00193901
0.00193636
0.00193261
0.0019279
0.00192354
0.0019198
0.00191658
0.0019136
0.00191076
0.00190806
0.00190549
0.00190305
0.00190075
0.00189856
0.00189642
0.00189433
0.00189224
0.0018901
0.00188788
0.00188554
0.00188304
0.00188034
0.00187741
0.00187423
0.00187077
0.00186699
0.00186288
0.00185842
0.00185362
0.00184849
0.00184303
0.00183731
0.00183157
0.00182588
0.00182023
0.0018146
0.001809
0.00180343
0.00179791
0.00179244
0.00178702
0.00178161
0.00177618
0.00177071
0.00176518
0.00175957
0.00175386
0.00174805
0.00174211
0.00173605
0.00172984
0.0017235
0.00171702
0.00171041
0.00170368
0.00169685
0.00168993
0.00168294
0.00167593
0.0016689
0.00166191
0.00165498
0.00164813
0.00164139
0.00163474
0.00162816
0.00162164
0.00161517
0.00160874
0.00160232
0.00159589
0.00158943
0.00158294
0.0015764
0.00156983
0.00156321
0.00155654
0.00154984
0.0015431
0.00153634
0.00152955
0.00152274
0.00151594
0.00150914
0.00150235
0.00149559
0.00148887
0.00148219
0.00147556
0.00146899
0.00146247
0.00145601
0.00144961
0.00144326
0.00193333
0.00193942
0.00194596
0.00195172
0.00195466
0.00195628
0.00195672
0.00195662
0.00195589
0.00195362
0.0019499
0.00194548
0.00194055
0.00193501
0.00192896
0.00192246
0.00191548
0.00190802
0.00190014
0.00189196
0.00188356
0.00187513
0.00186675
0.00185851
0.00185074
0.00184356
0.00183697
0.00183085
0.00182505
0.00181945
0.00181404
0.00180879
0.00180367
0.00179858
0.00179351
0.00178841
0.00178327
0.00177805
0.00177273
0.00176729
0.00176172
0.00175599
0.00175012
0.00174409
0.00173791
0.0017316
0.00172517
0.00171865
0.00171208
0.00170548
0.00169889
0.00169234
0.00168586
0.00167944
0.00167308
0.00166675
0.00166045
0.00165418
0.00164791
0.00164164
0.00163534
0.00162901
0.00162263
0.0016162
0.00160972
0.00160319
0.00159662
0.00159001
0.00158337
0.0015767
0.00157002
0.00156334
0.00155667
0.00155001
0.00154338
0.00153679
0.00153024
0.00152375
0.00151732
0.00151095
0.00150464
0.00149839
0.00149219
0.00148603
0.0014799
0.00147378
0.00146768
0.00146158
0.00145548
0.00144938
0.00144327
0.00143715
0.00143104
0.00142492
0.00141881
0.0014127
0.00140661
0.00140054
0.00139449
0.00138846
0.00138246
0.0013765
0.00137057
0.00136469
0.00135884
0.00135303
0.00134726
0.00134154
0.00133586
0.00133022
0.00132462
0.00131905
0.00131352
0.00130802
0.00130256
0.00185535
0.00186018
0.00186289
0.00186451
0.00186504
0.00186496
0.00186414
0.00186206
0.00185863
0.00185363
0.00184723
0.00183984
0.00183164
0.00182267
0.00181301
0.00180275
0.001792
0.00178091
0.00176971
0.00175861
0.00174783
0.0017375
0.00172773
0.00171857
0.00170999
0.00170193
0.00169433
0.00168711
0.0016802
0.00167352
0.00166701
0.0016606
0.00165425
0.00164795
0.00164168
0.00163543
0.00162921
0.00162299
0.00161678
0.00161057
0.00160434
0.00159812
0.00159188
0.00158564
0.00157939
0.00157315
0.00156692
0.00156071
0.00155452
0.00154836
0.00154223
0.00153613
0.00153005
0.00152398
0.00151793
0.00151188
0.00150584
0.00149979
0.00149375
0.0014877
0.00148165
0.0014756
0.00146957
0.00146354
0.00145754
0.00145155
0.00144559
0.00143967
0.00143377
0.00142791
0.0014221
0.00141632
0.00141058
0.00140488
0.00139923
0.00139361
0.00138803
0.00138248
0.00137697
0.00137148
0.00136601
0.00136056
0.00135513
0.00134971
0.00134431
0.00133892
0.00133355
0.0013282
0.00132287
0.00131756
0.00131228
0.00130704
0.00130184
0.00129667
0.00129155
0.00128647
0.00128145
0.00127647
0.00127156
0.0012667
0.0012619
0.00125717
0.0012525
0.00124789
0.00124336
0.0012389
0.00123451
0.0012302
0.00122596
0.00122181
0.00121773
0.00121375
0.00120985
0.00120604
0.00120233
0.00119871
0.00166933
0.00167645
0.00168347
0.00169023
0.0016964
0.00170211
0.00170856
0.00171427
0.00171668
0.00171776
0.00171814
0.00171816
0.00171791
0.00171664
0.00171376
0.00170929
0.00170346
0.00169648
0.00168851
0.00167969
0.00167016
0.00166007
0.0016496
0.0016389
0.00162815
0.00161751
0.00160712
0.0015971
0.00158751
0.00157837
0.0015697
0.00156147
0.00155365
0.00154618
0.00153903
0.00153216
0.00152551
0.00151904
0.00151274
0.00150657
0.00150053
0.00149461
0.0014888
0.00148308
0.00147744
0.00147187
0.00146635
0.00146088
0.00145544
0.00145001
0.0014446
0.0014392
0.0014338
0.0014284
0.00142301
0.00141762
0.00141224
0.00140687
0.00140151
0.00139615
0.00139081
0.00138549
0.00138018
0.00137489
0.00136963
0.00136438
0.00135916
0.00135397
0.00134881
0.00134368
0.00133858
0.00133352
0.00132849
0.0013235
0.00131854
0.00131362
0.00130873
0.00130388
0.00129906
0.00129428
0.00128953
0.00128482
0.00128014
0.0012755
0.00127089
0.00126632
0.0012618
0.00125731
0.00125287
0.00124848
0.00124414
0.00123986
0.00123564
0.00123148
0.00122739
0.00122336
0.00121942
0.00121555
0.00121176
0.00120805
0.00120443
0.0012009
0.00119745
0.00119409
0.00119083
0.00118765
0.00118457
0.00118158
0.00117868
0.00117588
0.00117316
0.00117054
0.00116801
0.00116557
0.00116321
0.00116094
0.00115876
0.00115666
0.00115463
0.00115268
0.00115081
0.00114901
0.00114727
0.0015255
0.00153161
0.00153758
0.0015432
0.00154842
0.00155399
0.00156042
0.00156398
0.00156567
0.0015666
0.00156699
0.00156708
0.00156683
0.00156554
0.00156276
0.0015586
0.00155336
0.00154724
0.00154034
0.00153274
0.00152455
0.00151592
0.00150699
0.00149789
0.00148875
0.00147968
0.00147077
0.00146211
0.00145375
0.00144573
0.00143807
0.00143077
0.00142381
0.00141716
0.00141081
0.00140471
0.00139886
0.00139322
0.00138777
0.0013825
0.00137737
0.00137238
0.0013675
0.00136273
0.00135803
0.00135339
0.0013488
0.00134423
0.00133968
0.00133513
0.00133058
0.00132602
0.00132147
0.0013169
0.00131234
0.00130779
0.00130324
0.00129871
0.0012942
0.00128971
0.00128525
0.00128083
0.00127643
0.00127207
0.00126776
0.00126348
0.00125924
0.00125505
0.0012509
0.0012468
0.00124275
0.00123875
0.0012348
0.0012309
0.00122706
0.00122328
0.00121955
0.00121589
0.00121229
0.00120875
0.00120528
0.00120188
0.00119855
0.00119529
0.00119211
0.00118901
0.00118599
0.00118305
0.00118019
0.00117742
0.00117473
0.00117213
0.00116961
0.00116718
0.00116483
0.00116257
0.00116039
0.00115828
0.00115626
0.00115431
0.00115243
0.00115062
0.00114888
0.0011472
0.00114558
0.00114401
0.0011425
0.00114103
0.00113961
0.00113824
0.00113691
0.00113562
0.00113436
0.00113314
0.00113196
0.00113079
0.00112966
0.00112854
0.00112744
0.00112637
0.00112531
0.00112428
0.00112326
0.00140016
0.00140533
0.0014103
0.00141496
0.00141969
0.0014254
0.00143047
0.0014328
0.00143424
0.00143526
0.00143588
0.00143613
0.00143606
0.00143521
0.00143305
0.00142972
0.00142553
0.00142068
0.00141522
0.00140918
0.00140264
0.00139569
0.00138844
0.00138101
0.0013735
0.00136602
0.00135863
0.00135143
0.00134445
0.00133774
0.00133131
0.00132517
0.0013193
0.00131371
0.00130837
0.00130327
0.00129839
0.00129371
0.0012892
0.00128487
0.00128067
0.0012766
0.00127263
0.00126875
0.00126494
0.00126117
0.00125744
0.00125374
0.00125005
0.00124637
0.0012427
0.00123905
0.00123541
0.00123179
0.00122819
0.00122463
0.0012211
0.00121762
0.00121419
0.00121081
0.00120749
0.00120422
0.00120102
0.00119789
0.00119482
0.00119181
0.00118888
0.00118602
0.00118322
0.0011805
0.00117786
0.00117528
0.00117279
0.00117036
0.00116801
0.00116573
0.00116353
0.0011614
0.00115934
0.00115735
0.00115543
0.00115358
0.0011518
0.00115008
0.00114842
0.00114682
0.00114527
0.00114378
0.00114234
0.00114095
0.00113961
0.00113831
0.00113705
0.00113583
0.00113465
0.0011335
0.00113238
0.00113129
0.00113023
0.00112919
0.00112817
0.00112717
0.0011262
0.00112524
0.00112431
0.0011234
0.00112252
0.00112165
0.00112082
0.00112
0.00111921
0.00111844
0.0011177
0.00111698
0.0011163
0.00111566
0.00111506
0.0011145
0.00111399
0.00111354
0.00111313
0.00111279
0.0011125
0.0013
0.00130439
0.00130856
0.00131269
0.00131737
0.00132268
0.00132601
0.00132782
0.00132925
0.00133043
0.00133126
0.0013317
0.0013318
0.00133132
0.00132974
0.00132717
0.00132396
0.00132022
0.00131597
0.00131124
0.00130607
0.00130055
0.00129477
0.00128881
0.00128278
0.00127676
0.00127081
0.00126499
0.00125934
0.00125391
0.0012487
0.00124372
0.00123897
0.00123447
0.00123019
0.00122613
0.00122228
0.00121862
0.00121514
0.00121183
0.00120866
0.00120562
0.00120269
0.00119985
0.00119708
0.00119438
0.00119173
0.00118912
0.00118655
0.00118402
0.00118153
0.00117907
0.00117666
0.0011743
0.00117198
0.00116973
0.00116753
0.00116539
0.00116332
0.00116131
0.00115937
0.00115749
0.00115567
0.00115391
0.00115222
0.00115059
0.00114901
0.00114749
0.00114602
0.00114459
0.00114322
0.00114189
0.0011406
0.00113936
0.00113815
0.00113698
0.00113585
0.00113475
0.00113368
0.00113263
0.00113162
0.00113062
0.00112965
0.00112871
0.00112778
0.00112688
0.00112601
0.00112516
0.00112433
0.00112353
0.00112276
0.00112201
0.00112129
0.0011206
0.00111993
0.0011193
0.0011187
0.00111815
0.00111764
0.00111718
0.00111676
0.0011164
0.0011161
0.00111585
0.00111566
0.00111554
0.00111548
0.00111548
0.00111556
0.00111571
0.00111594
0.00111624
0.00111662
0.00111709
0.00111763
0.00111826
0.00111897
0.00111975
0.00112063
0.00112158
0.00112262
0.00112374
0.00112494
0.00112623
0.0011276
0.00122311
0.00122688
0.0012306
0.0012346
0.00123916
0.00124311
0.00124548
0.00124726
0.00124882
0.00125012
0.00125106
0.00125164
0.00125185
0.00125161
0.00125053
0.00124869
0.00124635
0.00124358
0.0012404
0.00123682
0.0012329
0.0012287
0.00122431
0.00121978
0.0012152
0.00121063
0.00120612
0.00120173
0.00119748
0.00119341
0.00118953
0.00118587
0.00118242
0.00117919
0.00117618
0.00117338
0.00117079
0.00116839
0.00116617
0.0011641
0.00116217
0.00116037
0.00115866
0.00115704
0.00115549
0.00115399
0.00115254
0.00115113
0.00114975
0.0011484
0.00114708
0.00114579
0.00114452
0.00114329
0.00114208
0.0011409
0.00113976
0.00113865
0.00113757
0.00113652
0.00113551
0.00113451
0.00113355
0.0011326
0.00113168
0.00113079
0.00112991
0.00112906
0.00112823
0.00112742
0.00112663
0.00112588
0.00112515
0.00112444
0.00112376
0.00112311
0.00112248
0.00112188
0.00112133
0.00112081
0.00112034
0.00111992
0.00111954
0.00111922
0.00111894
0.00111873
0.00111857
0.00111848
0.00111845
0.00111848
0.00111858
0.00111876
0.001119
0.00111932
0.00111972
0.0011202
0.00112075
0.00112137
0.00112207
0.00112286
0.00112371
0.00112465
0.00112567
0.00112676
0.00112793
0.00112918
0.00113051
0.00113191
0.00113339
0.00113496
0.0011366
0.00113832
0.00114013
0.00114202
0.001144
0.00114606
0.0011482
0.00115044
0.00115276
0.00115518
0.00115768
0.00116028
0.00116298
0.00116577
0.00116867
0.00116626
0.00116974
0.00117338
0.00117734
0.00118123
0.00118419
0.00118645
0.00118843
0.00119018
0.00119167
0.00119286
0.00119374
0.00119424
0.00119433
0.00119397
0.00119304
0.00119168
0.00118997
0.00118793
0.0011856
0.00118301
0.00118021
0.00117726
0.00117421
0.00117112
0.00116803
0.001165
0.00116205
0.00115922
0.00115653
0.00115401
0.00115166
0.00114949
0.00114751
0.00114571
0.00114409
0.00114263
0.00114133
0.00114015
0.00113909
0.00113812
0.00113724
0.00113641
0.00113562
0.00113486
0.00113411
0.00113338
0.00113265
0.00113193
0.0011312
0.00113048
0.00112976
0.00112906
0.00112836
0.00112769
0.00112703
0.00112639
0.00112577
0.00112518
0.00112462
0.00112408
0.00112359
0.00112314
0.00112273
0.00112236
0.00112204
0.00112177
0.00112155
0.00112139
0.00112128
0.00112123
0.00112125
0.00112133
0.00112147
0.00112169
0.00112197
0.00112233
0.00112275
0.00112325
0.00112383
0.00112447
0.00112519
0.00112598
0.00112684
0.00112779
0.0011288
0.00112989
0.00113105
0.00113229
0.00113359
0.00113497
0.00113643
0.00113796
0.00113957
0.00114125
0.00114301
0.00114485
0.00114677
0.00114876
0.00115084
0.001153
0.00115524
0.00115757
0.00115998
0.00116248
0.00116507
0.00116775
0.00117052
0.00117338
0.00117634
0.0011794
0.00118256
0.00118581
0.00118916
0.00119262
0.00119618
0.00119984
0.00120361
0.0012075
0.00121149
0.00121559
0.00121982
0.00122416
0.00122862
0.00123321
0.00112522
0.00112866
0.00113219
0.00113589
0.00113965
0.00114305
0.0011459
0.00114842
0.00115072
0.00115282
0.00115468
0.0011563
0.00115764
0.00115866
0.00115936
0.00115969
0.00115967
0.00115932
0.00115859
0.00115758
0.00115632
0.00115484
0.00115317
0.00115135
0.00114942
0.00114742
0.0011454
0.0011434
0.00114145
0.00113957
0.00113779
0.00113612
0.00113459
0.0011332
0.00113195
0.00113084
0.00112987
0.00112903
0.0011283
0.00112767
0.00112713
0.00112666
0.00112623
0.00112586
0.00112552
0.00112521
0.00112493
0.00112468
0.00112445
0.00112425
0.00112408
0.00112394
0.00112384
0.00112379
0.00112378
0.00112383
0.00112393
0.00112409
0.00112432
0.00112461
0.00112496
0.00112539
0.00112588
0.00112644
0.00112706
0.00112776
0.00112853
0.00112936
0.00113027
0.00113125
0.00113229
0.00113341
0.00113459
0.00113584
0.00113716
0.00113855
0.00114001
0.00114154
0.00114314
0.00114482
0.00114656
0.00114839