/*--------------------------------*- C++ -*----------------------------------*\
| =========                 |                                                 |
| \\      /  F ield         | OpenFOAM: The Open Source CFD Toolbox           |
|  \\    /   O peration     | Version:  v1706                                 |
|   \\  /    A nd           | Web:      www.OpenFOAM.com                      |
|    \\/     M anipulation  |                                                 |
\*---------------------------------------------------------------------------*/
FoamFile
{
    version     2.0;
    format      ascii;
    class       volScalarField;
    location    "3e-06";
    object      Tov;
}
// * * * * * * * * * * * * * * * * * * * * * * * * * * * * * * * * * * * * * //

dimensions      [0 0 0 1 0 0 0];


internalField   nonuniform List<scalar> 
29871
(
144.4
144.4
144.4
144.4
144.4
144.4
144.4
144.4
144.4
144.4
144.4
144.4
144.4
144.4
144.4
144.4
144.4
144.4
144.4
144.4
144.4
144.4
144.4
144.4
144.4
144.4
144.4
144.4
144.4
144.4
144.4
144.4
144.4
144.4
144.4
144.4
144.4
144.4
144.4
144.4
144.4
144.4
144.4
144.4
144.4
144.4
144.4
144.4
144.4
144.4
144.4
144.4
144.4
144.4
144.4
144.4
144.4
144.4
144.4
144.4
144.4
144.4
144.4
144.4
144.4
144.4
144.4
144.4
144.4
144.4
144.4
144.4
144.4
144.4
144.4
144.4
144.4
144.4
144.4
144.4
144.4
144.4
144.4
144.4
144.4
144.4
144.4
144.4
144.4
144.4
144.4
144.4
144.4
144.4
144.4
144.4
144.4
144.4
144.4
144.4
144.4
144.4
144.4
144.4
144.4
144.4
144.4
144.4
144.4
144.4
144.4
144.4
144.4
144.4
144.4
144.4
144.4
144.4
144.4
144.4
144.4
144.4
144.4
144.4
144.4
144.4
144.4
144.4
144.4
144.4
144.4
144.4
144.4
144.4
144.4
144.4
144.4
144.4
144.4
144.4
144.4
144.4
144.4
144.4
144.4
144.4
144.4
144.4
144.4
144.4
144.4
144.4
144.4
144.4
144.4
144.4
144.4
144.4
144.4
144.4
144.4
144.4
144.4
144.4
144.4
144.401
144.401
144.401
144.401
144.401
144.401
144.401
144.401
144.401
144.401
144.401
144.401
144.401
144.401
144.401
144.401
144.401
144.401
144.401
144.401
144.401
144.401
144.401
144.401
144.401
144.401
144.401
144.401
144.401
144.401
144.401
144.401
144.401
144.401
144.401
144.401
144.401
144.401
144.402
144.402
144.402
144.402
144.402
144.402
144.402
144.4
144.4
144.4
144.401
144.401
144.401
144.401
144.401
144.401
144.401
144.401
144.401
144.401
144.401
144.401
144.401
144.401
144.401
144.401
144.401
144.401
144.401
144.401
144.401
144.401
144.401
144.401
144.401
144.401
144.401
144.401
144.401
144.401
144.401
144.402
144.402
144.402
144.402
144.402
144.402
144.402
144.402
144.402
144.402
144.402
144.402
144.402
144.402
144.402
144.402
144.402
144.403
144.403
144.403
144.403
144.403
144.403
144.403
144.403
144.403
144.403
144.403
144.403
144.404
144.404
144.404
144.404
144.404
144.404
144.404
144.404
144.405
144.405
144.405
144.405
144.405
144.405
144.405
144.406
144.406
144.406
144.406
144.406
144.407
144.407
144.407
144.407
144.407
144.408
144.408
144.408
144.408
144.409
144.409
144.409
144.41
144.41
144.41
144.41
144.411
144.411
144.412
144.412
144.412
144.413
144.413
144.402
144.403
144.403
144.403
144.403
144.403
144.403
144.403
144.403
144.403
144.404
144.404
144.404
144.404
144.404
144.405
144.405
144.405
144.405
144.405
144.405
144.406
144.406
144.406
144.406
144.407
144.407
144.407
144.407
144.407
144.408
144.408
144.408
144.408
144.409
144.409
144.409
144.41
144.41
144.41
144.41
144.411
144.411
144.411
144.412
144.412
144.413
144.413
144.413
144.414
144.414
144.415
144.415
144.416
144.416
144.417
144.417
144.418
144.418
144.419
144.42
144.42
144.421
144.421
144.422
144.423
144.424
144.424
144.425
144.426
144.427
144.428
144.429
144.429
144.43
144.431
144.432
144.434
144.435
144.436
144.437
144.438
144.439
144.441
144.442
144.443
144.445
144.446
144.448
144.449
144.451
144.453
144.455
144.456
144.458
144.46
144.462
144.464
144.467
144.469
144.471
144.474
144.476
144.479
144.482
144.484
144.412
144.413
144.413
144.413
144.414
144.414
144.415
144.416
144.416
144.417
144.418
144.419
144.42
144.421
144.422
144.423
144.424
144.425
144.426
144.427
144.428
144.429
144.43
144.431
144.433
144.434
144.435
144.436
144.438
144.439
144.44
144.441
144.443
144.444
144.446
144.447
144.449
144.45
144.452
144.454
144.456
144.457
144.459
144.461
144.463
144.465
144.468
144.47
144.472
144.475
144.477
144.48
144.482
144.485
144.488
144.491
144.494
144.497
144.5
144.504
144.507
144.511
144.515
144.518
144.523
144.527
144.531
144.536
144.54
144.545
144.55
144.555
144.561
144.567
144.572
144.578
144.585
144.591
144.598
144.605
144.612
144.62
144.627
144.635
144.644
144.652
144.661
144.67
144.68
144.69
144.7
144.71
144.721
144.733
144.744
144.756
144.769
144.782
144.795
144.809
144.824
144.839
144.855
144.871
144.888
144.905
144.923
144.461
144.462
144.464
144.466
144.469
144.472
144.475
144.479
144.483
144.487
144.492
144.496
144.501
144.506
144.511
144.517
144.522
144.528
144.533
144.539
144.545
144.551
144.557
144.563
144.569
144.576
144.582
144.589
144.596
144.604
144.611
144.619
144.626
144.635
144.643
144.651
144.66
144.669
144.679
144.689
144.699
144.709
144.72
144.731
144.743
144.755
144.768
144.781
144.794
144.808
144.822
144.837
144.853
144.869
144.885
144.903
144.92
144.939
144.958
144.978
144.998
145.019
145.041
145.064
145.088
145.113
145.138
145.165
145.192
145.221
145.251
145.281
145.313
145.347
145.381
145.417
145.455
145.493
145.534
145.576
145.619
145.664
145.711
145.76
145.81
145.862
145.917
145.973
146.031
146.092
146.154
146.219
146.286
146.356
146.428
146.503
146.58
146.661
146.744
146.831
146.921
147.014
147.111
147.212
147.317
147.426
147.54
144.677
144.68
144.685
144.692
144.701
144.712
144.724
144.738
144.754
144.772
144.791
144.812
144.834
144.858
144.882
144.908
144.934
144.962
144.99
145.018
145.048
145.077
145.108
145.138
145.17
145.202
145.235
145.269
145.304
145.34
145.377
145.415
145.453
145.493
145.535
145.577
145.621
145.666
145.712
145.76
145.81
145.861
145.915
145.97
146.027
146.087
146.149
146.213
146.28
146.349
146.421
146.495
146.573
146.653
146.737
146.823
146.913
147.006
147.102
147.202
147.306
147.413
147.525
147.64
147.76
147.885
148.014
148.148
148.287
148.431
148.581
148.737
148.9
149.068
149.244
149.427
149.617
149.815
150.022
150.237
150.461
150.695
150.938
151.192
151.457
151.732
152.019
152.317
152.628
152.951
153.287
153.636
153.999
154.375
154.765
155.169
155.587
156.02
156.468
156.931
157.41
157.904
158.414
158.941
159.485
160.046
160.625
161.224
161.842
162.482
145.698
145.72
145.751
145.791
145.839
145.897
145.962
146.036
146.118
146.209
146.307
146.412
146.525
146.644
146.768
146.898
147.032
147.17
147.312
147.457
147.604
147.755
147.909
148.066
148.227
148.392
148.562
148.736
148.915
149.1
149.29
149.485
149.687
149.894
150.107
150.327
150.553
150.787
151.029
151.279
151.538
151.806
152.084
152.373
152.673
152.986
153.31
153.648
154
154.365
154.746
155.141
155.553
155.98
156.425
156.886
157.365
157.862
158.378
158.912
159.466
160.039
160.632
161.246
161.88
162.536
163.214
163.914
164.637
165.384
166.155
166.951
167.774
168.624
169.503
170.412
171.352
172.325
173.334
174.379
175.464
176.589
177.758
178.972
180.235
181.547
182.911
184.33
185.805
187.339
188.933
190.588
192.307
194.089
195.935
197.846
199.822
201.863
203.967
206.134
208.361
210.649
212.994
215.396
217.85
220.357
222.913
225.518
228.171
230.87
150.313
150.445
150.616
150.827
151.077
151.367
151.694
152.06
152.463
152.902
153.377
153.885
154.425
154.993
155.587
156.204
156.842
157.497
158.168
158.853
159.553
160.267
160.997
161.743
162.507
163.291
164.095
164.922
165.771
166.643
167.539
168.459
169.401
170.367
171.357
172.371
173.411
174.477
175.571
176.695
177.851
179.041
180.268
181.533
182.84
184.19
185.586
187.031
188.527
190.076
191.68
193.342
195.064
196.848
198.695
200.607
202.586
204.632
206.747
208.932
211.187
213.511
215.905
218.368
220.899
223.497
226.161
228.89
231.68
234.532
237.443
240.411
243.436
246.517
249.653
252.844
256.092
259.398
262.765
266.196
269.696
273.271
276.925
280.666
284.501
288.439
292.487
296.656
300.954
305.392
309.979
314.723
319.635
324.721
329.989
335.444
341.091
346.931
352.965
359.191
365.603
372.193
378.953
385.866
392.917
400.087
407.353
414.692
422.076
429.481
169.799
170.455
171.27
172.245
173.377
174.66
176.09
177.662
179.369
181.207
183.164
185.231
187.396
189.644
191.964
194.343
196.771
199.239
201.74
204.272
206.834
209.431
212.066
214.745
217.474
220.256
223.097
225.999
228.962
231.987
235.071
238.21
241.401
244.64
247.925
251.253
254.623
258.036
261.491
264.99
268.536
272.131
275.778
279.481
283.244
287.072
290.968
294.938
298.987
303.123
307.35
311.675
316.105
320.647
325.309
330.096
335.017
340.077
345.281
350.635
356.143
361.806
367.627
373.604
379.734
386.014
392.435
398.989
405.664
412.446
419.319
426.264
433.262
440.29
447.327
454.348
461.33
468.251
475.088
481.822
488.433
494.911
501.248
507.432
513.454
519.305
524.98
530.476
535.795
540.937
545.906
550.708
555.349
559.835
564.174
568.375
572.447
576.397
580.232
583.959
587.584
591.114
594.551
597.9
601.166
604.352
607.463
610.503
613.478
616.397
235.45
237.779
240.57
243.808
247.468
251.521
255.934
260.674
265.71
271.004
276.514
282.189
287.982
293.848
299.748
305.651
311.532
317.376
323.179
328.944
334.681
340.414
346.166
351.956
357.802
363.72
369.725
375.828
382.031
388.335
394.733
401.216
407.773
414.391
421.057
427.758
434.482
441.217
447.95
454.668
461.36
468.012
474.612
481.146
487.599
493.958
500.208
506.338
512.335
518.192
523.906
529.473
534.885
540.139
545.23
550.159
554.926
559.533
563.986
568.289
572.447
576.467
580.355
584.117
587.76
591.29
594.712
598.031
601.253
604.381
607.42
610.374
613.248
616.046
618.776
621.445
624.062
626.637
629.179
631.696
634.218
636.985
639.758
642.484
645.176
647.845
650.505
653.169
655.851
658.538
661.222
663.911
666.61
669.328
672.07
674.841
677.642
680.473
683.335
686.228
689.153
692.108
695.091
698.102
701.141
704.205
707.295
710.41
713.549
716.711
376.298
380.494
385.524
391.343
397.873
405.043
412.787
421.024
429.672
438.648
447.868
457.231
466.624
475.94
485.081
493.961
502.51
510.671
518.41
525.714
532.579
539.028
545.12
550.891
556.35
561.518
566.436
571.136
575.634
579.941
584.07
588.03
591.829
595.474
598.973
602.333
605.559
608.659
611.639
614.507
617.27
619.937
622.519
625.024
627.463
629.848
632.191
634.504
636.793
639.074
641.51
644.029
646.51
648.961
651.39
653.809
656.23
658.662
661.119
663.591
666.067
668.554
671.056
673.58
676.126
678.697
681.294
683.919
686.569
689.247
691.95
694.679
697.433
700.212
703.015
705.841
708.69
711.56
714.451
717.361
720.284
723.215
725.907
728.506
731.086
733.648
736.192
738.717
741.22
743.697
746.194
748.751
751.369
754.044
756.775
759.562
762.402
765.292
768.229
771.211
774.233
777.292
780.385
783.505
786.649
789.812
792.988
796.17
799.352
802.526
805.684
557.206
561.688
566.681
571.94
577.32
582.77
588.284
593.814
599.256
604.51
609.518
614.242
618.645
622.717
626.468
629.915
633.089
636.035
638.795
641.408
643.911
646.485
649.09
651.597
654.032
656.428
658.807
661.189
663.592
666.031
668.49
670.962
673.45
675.956
678.476
681.01
683.556
686.11
688.673
691.243
693.821
696.408
699.006
701.616
704.238
706.872
709.519
712.18
714.847
717.526
720.075
722.482
724.87
727.249
729.619
731.984
734.343
736.692
739.023
741.371
743.773
746.229
748.736
751.293
753.897
756.548
759.242
761.976
764.747
767.552
770.387
773.247
776.129
779.026
781.933
784.844
787.751
790.649
793.527
796.38
799.207
802
804.78
807.599
810.467
813.385
816.361
819.401
822.518
825.723
828.995
832.308
835.66
839.051
842.479
845.941
849.434
852.956
856.503
860.072
863.659
867.263
870.88
874.508
878.144
881.787
885.436
889.091
892.754
896.428
900.117
903.827
907.567
642.366
645.955
649.609
653.277
657.111
661.068
665.03
669
672.962
676.875
680.72
684.48
688.173
691.799
695.345
698.802
702.17
705.446
708.624
711.7
714.679
717.418
719.902
722.293
724.649
726.989
729.314
731.623
733.921
736.212
738.545
740.939
743.39
745.89
748.434
751.018
753.634
756.278
758.943
761.625
764.319
767.022
769.728
772.432
775.129
777.815
780.483
783.129
785.755
788.352
790.924
793.519
796.155
798.832
801.554
804.325
807.152
810.043
813.011
816.04
819.107
822.21
825.348
828.517
831.717
834.943
838.194
841.465
844.754
848.059
851.376
854.704
858.041
861.384
864.735
868.093
871.461
874.842
878.241
881.666
885.125
888.627
892.184
895.798
899.468
903.194
906.971
910.796
914.663
918.563
922.486
926.427
930.385
934.36
938.348
942.349
946.361
950.384
954.415
958.456
962.505
966.564
970.634
974.714
978.808
982.917
987.043
991.19
995.359
999.554
1003.78
1008.03
1012.31
704.115
706.859
709.864
713.128
716.402
719.814
723.371
727.036
730.759
734.474
738.199
741.966
745.752
749.53
753.291
757.019
760.683
764.251
767.701
771.014
774.174
777.182
780.039
782.756
785.408
788.039
790.669
793.314
795.986
798.699
801.473
804.325
807.233
810.18
813.165
816.183
819.229
822.299
825.388
828.491
831.602
834.719
837.838
840.958
844.078
847.198
850.319
853.444
856.579
859.73
862.904
866.11
869.359
872.656
876.003
879.399
882.843
886.333
889.867
893.44
897.044
900.67
904.314
907.975
911.651
915.341
919.044
922.759
926.486
930.223
933.972
937.733
941.506
945.294
949.098
952.921
956.765
960.632
964.526
968.449
972.403
976.39
980.408
984.458
988.534
992.634
996.754
1000.89
1005.03
1009.19
1013.35
1017.51
1021.67
1025.83
1029.99
1034.15
1038.31
1042.47
1046.63
1050.78
1054.94
1059.1
1063.27
1067.43
1071.59
1075.76
1079.93
1084.11
1088.28
1092.46
1096.64
1100.81
1104.98
1109.14
1113.29
769.618
772.206
774.908
777.871
781.13
784.688
788.437
792.328
796.314
800.364
804.492
808.699
812.954
817.214
821.446
825.622
829.711
833.691
837.549
841.28
844.89
848.393
851.806
855.159
858.473
861.762
865.04
868.323
871.623
874.949
878.307
881.694
885.105
888.539
891.993
895.468
898.96
902.468
905.989
909.523
913.067
916.622
920.186
923.762
927.35
930.953
934.574
938.216
941.881
945.572
949.291
953.039
956.815
960.616
964.441
968.286
972.148
976.025
979.913
983.809
987.712
991.62
995.533
999.452
1003.38
1007.3
1011.24
1015.18
1019.13
1023.08
1027.05
1031.02
1035.01
1039.01
1043.01
1047.03
1051.06
1055.1
1059.14
1063.2
1067.26
1071.32
1075.37
1079.43
1083.48
1087.52
1091.55
1095.56
1099.56
1103.55
1107.53
1111.48
1115.43
1119.36
1123.27
1127.17
1131.06
1134.92
1138.78
1142.61
1146.44
1150.24
1154.02
1157.79
1161.53
1165.26
1168.95
1172.63
1176.27
1179.88
1183.47
1187.02
1190.53
1194.01
1197.45
1200.85
831.301
832.174
833.263
834.59
836.167
838.001
840.142
842.567
845.082
847.905
851.097
854.661
858.511
862.518
866.653
870.926
875.33
879.847
884.447
889.096
893.753
898.383
902.958
907.457
911.865
916.174
920.38
924.484
928.489
932.405
936.241
940.007
943.718
947.388
951.032
954.663
958.292
961.928
965.575
969.238
972.918
976.617
980.336
984.072
987.827
991.599
995.386
999.188
1003
1006.83
1010.66
1014.5
1018.36
1022.22
1026.08
1029.96
1033.83
1037.72
1041.6
1045.48
1049.37
1053.25
1057.13
1061.01
1064.88
1068.75
1072.61
1076.47
1080.32
1084.17
1088.01
1091.85
1095.68
1099.5
1103.33
1107.14
1110.95
1114.76
1118.55
1122.34
1126.12
1129.89
1133.64
1137.38
1141.1
1144.8
1148.48
1152.14
1155.78
1159.39
1162.97
1166.53
1170.05
1173.55
1177.02
1180.46
1183.87
1187.25
1190.61
1193.93
1197.22
1200.48
1203.7
1206.9
1210.06
1213.19
1216.28
1219.34
1222.36
1225.34
1228.27
1231.17
1234.02
1236.82
1239.58
1242.29
1244.95
1247.55
1250.1
1252.6
1255.05
1257.44
1259.78
910.495
911.453
912.62
914.024
915.679
917.597
919.869
922.274
924.929
927.954
931.346
935.083
939.073
943.207
947.478
951.909
956.497
961.206
965.997
970.83
975.669
980.483
985.245
989.932
994.525
999.01
1003.38
1007.62
1011.74
1015.74
1019.64
1023.45
1027.19
1030.87
1034.53
1038.16
1041.78
1045.41
1049.05
1052.71
1056.38
1060.07
1063.78
1067.51
1071.25
1075
1078.76
1082.52
1086.28
1090.04
1093.79
1097.54
1101.27
1104.98
1108.68
1112.37
1116.03
1119.68
1123.32
1126.93
1130.53
1134.11
1137.67
1141.22
1144.75
1148.26
1151.75
1155.22
1158.68
1162.11
1165.53
1168.92
1172.3
1175.65
1178.97
1182.28
1185.55
1188.8
1192.02
1195.21
1198.37
1201.49
1204.58
1207.64
1210.66
1213.64
1216.58
1219.49
1222.36
1225.19
1227.98
1230.73
1233.44
1236.11
1238.73
1241.32
1243.86
1246.35
1248.8
1251.2
1253.55
1255.85
1258.1
1260.3
1262.44
1264.53
1266.57
1268.56
1270.5
1272.38
1274.21
1275.99
1277.71
1279.37
1280.97
1282.51
1283.99
1285.4
1286.73
1287.99
1289.16
1290.23
1291.21
990.213
991.297
992.59
994.114
995.88
997.93
1000.29
1002.78
1005.6
1008.76
1012.24
1016.01
1020.04
1024.2
1028.48
1032.92
1037.51
1042.21
1046.96
1051.73
1056.49
1061.19
1065.82
1070.35
1074.75
1079.02
1083.14
1087.12
1090.96
1094.68
1098.29
1101.81
1105.27
1108.67
1112.05
1115.41
1118.77
1122.13
1125.5
1128.88
1132.27
1135.68
1139.1
1142.52
1145.94
1149.36
1152.77
1156.17
1159.55
1162.91
1166.24
1169.54
1172.81
1176.05
1179.26
1182.44
1185.58
1188.69
1191.77
1194.82
1197.84
1200.83
1203.78
1206.71
1209.6
1212.47
1215.3
1218.09
1220.86
1223.59
1226.28
1228.94
1231.56
1234.14
1236.68
1239.18
1241.65
1244.06
1246.44
1248.76
1251.04
1253.28
1255.46
1257.59
1259.67
1261.7
1263.67
1265.6
1267.47
1269.3
1271.07
1272.8
1274.47
1276.1
1277.67
1279.2
1280.66
1282.07
1283.42
1284.71
1285.92
1287.07
1288.13
1289.1
1289.97
1290.73
1291.41
1292.02
1292.55
1293.02
1293.41
1293.71
1293.93
1294.06
1294.1
1294.07
1293.97
1293.81
1293.59
1293.31
1293
1292.65
1292.29
1064.91
1066.11
1067.52
1069.15
1071.02
1073.22
1075.61
1078.22
1081.14
1084.35
1087.82
1091.53
1095.48
1099.54
1103.69
1107.97
1112.36
1116.81
1121.27
1125.71
1130.08
1134.37
1138.54
1142.58
1146.46
1150.19
1153.75
1157.17
1160.46
1163.62
1166.69
1169.68
1172.61
1175.5
1178.36
1181.21
1184.06
1186.9
1189.76
1192.62
1195.48
1198.35
1201.21
1204.07
1206.92
1209.75
1212.55
1215.32
1218.06
1220.76
1223.42
1226.04
1228.61
1231.14
1233.63
1236.07
1238.47
1240.82
1243.14
1245.41
1247.65
1249.84
1251.98
1254.09
1256.14
1258.15
1260.11
1262.03
1263.89
1265.7
1267.46
1269.17
1270.84
1272.45
1274.02
1275.54
1277
1278.42
1279.79
1281.1
1282.36
1283.55
1284.69
1285.76
1286.75
1287.67
1288.5
1289.22
1289.86
1290.44
1290.94
1291.38
1291.75
1292.03
1292.24
1292.35
1292.39
1292.37
1292.29
1292.14
1291.94
1291.68
1291.39
1291.07
1290.74
1290.42
1290.04
1289.58
1289.05
1288.44
1287.77
1287.04
1286.27
1285.48
1284.64
1283.73
1282.75
1281.7
1280.57
1279.37
1278.08
1276.72
1275.26
1273.68
1272.01
1130.52
1131.8
1133.27
1134.97
1136.93
1139.17
1141.58
1144.24
1147.16
1150.29
1153.63
1157.15
1160.85
1164.66
1168.51
1172.43
1176.39
1180.36
1184.29
1188.14
1191.89
1195.51
1198.98
1202.28
1205.42
1208.39
1211.2
1213.87
1216.41
1218.84
1221.19
1223.46
1225.68
1227.87
1230.04
1232.19
1234.34
1236.49
1238.65
1240.8
1242.96
1245.11
1247.25
1249.37
1251.46
1253.53
1255.56
1257.54
1259.47
1261.36
1263.18
1264.95
1266.66
1268.31
1269.91
1271.46
1272.96
1274.41
1275.81
1277.16
1278.46
1279.71
1280.91
1282.06
1283.16
1284.19
1285.17
1286.07
1286.9
1287.64
1288.29
1288.86
1289.37
1289.81
1290.19
1290.49
1290.71
1290.86
1290.93
1290.94
1290.89
1290.78
1290.62
1290.4
1290.14
1289.85
1289.55
1289.25
1288.92
1288.52
1288.06
1287.52
1286.93
1286.29
1285.63
1284.94
1284.18
1283.35
1282.45
1281.49
1280.46
1279.36
1278.19
1276.94
1275.6
1274.15
1272.62
1271.03
1269.36
1267.62
1265.81
1263.92
1261.94
1259.86
1257.69
1255.44
1253.11
1250.7
1248.2
1245.61
1242.93
1240.16
1237.3
1234.36
1231.33
1184.41
1185.7
1187.19
1188.9
1190.87
1193.05
1195.41
1197.99
1200.75
1203.67
1206.73
1209.91
1213.21
1216.6
1219.98
1223.34
1226.69
1229.99
1233.19
1236.28
1239.22
1242
1244.61
1247.04
1249.3
1251.39
1253.34
1255.14
1256.83
1258.42
1259.93
1261.38
1262.79
1264.16
1265.52
1266.86
1268.2
1269.53
1270.86
1272.19
1273.52
1274.83
1276.13
1277.39
1278.63
1279.82
1280.97
1282.06
1283.1
1284.07
1284.96
1285.78
1286.52
1287.16
1287.71
1288.2
1288.63
1288.98
1289.27
1289.47
1289.6
1289.67
1289.68
1289.64
1289.53
1289.38
1289.17
1288.93
1288.66
1288.37
1288.09
1287.77
1287.39
1286.94
1286.44
1285.89
1285.32
1284.72
1284.05
1283.32
1282.53
1281.67
1280.75
1279.77
1278.72
1277.61
1276.41
1275.12
1273.75
1272.31
1270.81
1269.24
1267.6
1265.89
1264.09
1262.19
1260.23
1258.19
1256.07
1253.88
1251.61
1249.26
1246.82
1244.3
1241.7
1239.01
1236.25
1233.41
1230.49
1227.49
1224.4
1221.24
1217.98
1214.65
1211.23
1207.74
1204.17
1200.52
1196.79
1192.97
1189.09
1185.12
1181.08
1176.97
1172.78
1224.2
1225.25
1226.48
1227.91
1229.55
1231.41
1233.44
1235.63
1237.97
1240.43
1243
1245.65
1248.37
1251.14
1253.93
1256.68
1259.39
1261.98
1264.47
1266.82
1269.02
1271.04
1272.87
1274.53
1276
1277.3
1278.44
1279.44
1280.32
1281.1
1281.79
1282.41
1282.99
1283.54
1284.05
1284.54
1285.02
1285.46
1285.87
1286.27
1286.65
1287.01
1287.32
1287.59
1287.81
1287.98
1288.09
1288.15
1288.14
1288.08
1287.96
1287.79
1287.58
1287.35
1287.11
1286.84
1286.51
1286.11
1285.67
1285.18
1284.68
1284.12
1283.5
1282.83
1282.09
1281.29
1280.44
1279.52
1278.55
1277.51
1276.39
1275.19
1273.91
1272.58
1271.18
1269.72
1268.19
1266.58
1264.89
1263.13
1261.3
1259.41
1257.44
1255.4
1253.29
1251.09
1248.82
1246.47
1244.04
1241.54
1238.97
1236.32
1233.6
1230.8
1227.92
1224.97
1221.93
1218.83
1215.64
1212.39
1209.06
1205.65
1202.16
1198.6
1194.96
1191.26
1187.47
1183.62
1179.69
1175.69
1171.61
1167.46
1163.25
1158.96
1154.61
1150.19
1145.7
1141.15
1136.53
1131.85
1127.11
1122.31
1117.45
1112.54
1107.57
1102.54
1251.8
1252.73
1253.83
1255.11
1256.58
1258.21
1259.97
1261.85
1263.81
1265.85
1267.93
1270.05
1272.18
1274.3
1276.38
1278.38
1280.28
1282.06
1283.67
1285.09
1286.33
1287.36
1288.16
1288.76
1289.18
1289.42
1289.51
1289.45
1289.26
1288.98
1288.62
1288.22
1287.78
1287.33
1286.88
1286.44
1286.03
1285.67
1285.35
1285.03
1284.68
1284.33
1283.97
1283.6
1283.18
1282.71
1282.18
1281.58
1280.93
1280.21
1279.43
1278.58
1277.66
1276.67
1275.59
1274.44
1273.23
1271.95
1270.62
1269.21
1267.72
1266.17
1264.55
1262.87
1261.13
1259.31
1257.44
1255.49
1253.46
1251.37
1249.2
1246.96
1244.65
1242.27
1239.83
1237.31
1234.71
1232.05
1229.31
1226.51
1223.63
1220.69
1217.67
1214.58
1211.42
1208.19
1204.88
1201.5
1198.06
1194.54
1190.96
1187.3
1183.57
1179.78
1175.91
1171.98
1167.98
1163.91
1159.78
1155.58
1151.31
1146.98
1142.59
1138.14
1133.62
1129.04
1124.41
1119.71
1114.96
1110.15
1105.29
1100.38
1095.41
1090.4
1085.33
1080.22
1075.07
1069.87
1064.64
1059.36
1054.05
1048.7
1043.32
1037.91
1032.47
1027.01
1021.53
1016.02
1266.46
1267.2
1268.1
1269.14
1270.31
1271.58
1272.93
1274.33
1275.76
1277.21
1278.64
1280.04
1281.4
1282.68
1283.86
1284.92
1285.83
1286.59
1287.16
1287.56
1287.78
1287.85
1287.81
1287.6
1287.2
1286.65
1285.98
1285.23
1284.43
1283.55
1282.61
1281.64
1280.65
1279.64
1278.62
1277.6
1276.57
1275.51
1274.43
1273.33
1272.21
1271.05
1269.84
1268.56
1267.23
1265.84
1264.39
1262.87
1261.28
1259.61
1257.87
1256.06
1254.17
1252.21
1250.17
1248.06
1245.89
1243.65
1241.34
1238.96
1236.52
1234.01
1231.43
1228.79
1226.08
1223.3
1220.46
1217.55
1214.57
1211.52
1208.4
1205.22
1201.98
1198.66
1195.28
1191.83
1188.32
1184.74
1181.09
1177.38
1173.61
1169.77
1165.86
1161.89
1157.86
1153.77
1149.61
1145.4
1141.12
1136.78
1132.39
1127.93
1123.42
1118.86
1114.24
1109.56
1104.83
1100.05
1095.22
1090.34
1085.41
1080.44
1075.42
1070.36
1065.26
1060.11
1054.93
1049.71
1044.46
1039.18
1033.86
1028.52
1023.16
1017.77
1012.35
1006.92
1001.48
996.02
990.55
985.071
979.588
974.101
968.616
963.134
957.658
952.193
946.742
941.307
1267.93
1268.4
1269.01
1269.73
1270.57
1271.49
1272.46
1273.46
1274.46
1275.44
1276.37
1277.24
1278.02
1278.71
1279.27
1279.68
1279.94
1280.01
1279.9
1279.6
1279.1
1278.4
1277.49
1276.42
1275.19
1273.83
1272.36
1270.78
1269.12
1267.39
1265.63
1263.84
1262.03
1260.21
1258.37
1256.52
1254.65
1252.76
1250.85
1248.9
1246.91
1244.87
1242.78
1240.63
1238.41
1236.13
1233.79
1231.37
1228.88
1226.31
1223.68
1220.97
1218.2
1215.36
1212.45
1209.47
1206.43
1203.33
1200.16
1196.92
1193.63
1190.27
1186.85
1183.37
1179.82
1176.21
1172.54
1168.81
1165.02
1161.17
1157.26
1153.29
1149.26
1145.18
1141.03
1136.83
1132.57
1128.26
1123.89
1119.46
1114.99
1110.46
1105.87
1101.24
1096.56
1091.83
1087.05
1082.23
1077.37
1072.46
1067.5
1062.51
1057.48
1052.41
1047.31
1042.17
1037
1031.8
1026.58
1021.32
1016.04
1010.74
1005.42
1000.08
994.721
989.352
983.973
978.586
973.194
967.798
962.403
957.011
951.626
946.248
940.884
935.534
930.203
924.894
919.61
914.356
909.135
903.95
898.806
893.705
888.652
883.647
878.693
873.789
1261.45
1261.67
1261.98
1262.36
1262.79
1263.24
1263.69
1264.11
1264.48
1264.78
1265
1265.12
1265.12
1264.99
1264.69
1264.22
1263.57
1262.72
1261.66
1260.41
1258.95
1257.31
1255.49
1253.52
1251.42
1249.2
1246.88
1244.48
1242.02
1239.52
1236.99
1234.44
1231.88
1229.3
1226.7
1224.1
1221.47
1218.81
1216.12
1213.39
1210.61
1207.79
1204.9
1201.96
1198.95
1195.87
1192.73
1189.52
1186.24
1182.89
1179.49
1176.01
1172.48
1168.88
1165.22
1161.51
1157.73
1153.9
1150.01
1146.07
1142.06
1138.01
1133.9
1129.74
1125.52
1121.25
1116.93
1112.56
1108.14
1103.67
1099.15
1094.58
1089.97
1085.31
1080.61
1075.87
1071.08
1066.25
1061.38
1056.47
1051.53
1046.55
1041.54
1036.5
1031.42
1026.32
1021.19
1016.03
1010.85
1005.65
1000.43
995.19
989.937
984.67
979.393
974.108
968.816
963.521
958.224
952.929
947.638
942.355
937.081
931.82
926.575
921.35
916.147
910.969
905.822
900.707
895.628
890.59
885.596
880.648
875.749
870.901
866.106
861.362
856.669
852.023
847.419
842.85
838.308
833.782
829.263
824.738
820.2
815.639
811.046
1245
1244.88
1244.79
1244.7
1244.59
1244.43
1244.21
1243.9
1243.49
1242.95
1242.28
1241.46
1240.48
1239.31
1237.95
1236.4
1234.65
1232.7
1230.55
1228.23
1225.74
1223.11
1220.34
1217.46
1214.49
1211.45
1208.35
1205.21
1202.04
1198.84
1195.64
1192.41
1189.18
1185.93
1182.66
1179.36
1176.03
1172.67
1169.26
1165.8
1162.29
1158.72
1155.09
1151.4
1147.65
1143.85
1139.98
1136.05
1132.07
1128.03
1123.93
1119.79
1115.59
1111.34
1107.05
1102.7
1098.31
1093.87
1089.39
1084.86
1080.29
1075.67
1071.02
1066.32
1061.59
1056.82
1052.02
1047.17
1042.3
1037.39
1032.45
1027.49
1022.49
1017.47
1012.42
1007.35
1002.26
997.145
992.016
986.871
981.713
976.543
971.365
966.179
960.988
955.795
950.602
945.412
940.227
935.049
929.882
924.728
919.589
914.47
909.373
904.3
899.257
894.244
889.267
884.329
879.432
874.581
869.778
865.026
860.326
855.68
851.085
846.542
842.046
837.592
833.171
828.776
824.395
820.019
815.637
811.239
806.816
802.36
797.862
793.317
788.723
784.086
779.416
774.74
770.092
765.475
760.865
756.248
1219.42
1218.83
1218.23
1217.59
1216.88
1216.1
1215.21
1214.2
1213.06
1211.78
1210.33
1208.71
1206.91
1204.92
1202.74
1200.37
1197.8
1195.06
1192.14
1189.07
1185.86
1182.52
1179.09
1175.56
1171.97
1168.33
1164.65
1160.94
1157.22
1153.47
1149.72
1145.95
1142.17
1138.37
1134.55
1130.7
1126.81
1122.88
1118.92
1114.9
1110.84
1106.72
1102.56
1098.34
1094.07
1089.75
1085.39
1080.97
1076.52
1072.02
1067.47
1062.89
1058.27
1053.61
1048.92
1044.19
1039.43
1034.64
1029.81
1024.96
1020.08
1015.17
1010.24
1005.29
1000.32
995.323
990.311
985.284
980.242
975.188
970.123
965.05
959.97
954.886
949.8
944.714
939.63
934.551
929.479
924.417
919.368
914.334
909.318
904.323
899.351
894.407
889.493
884.611
879.767
874.962
870.2
865.484
860.817
856.201
851.638
847.129
842.673
838.269
833.912
829.597
825.317
821.062
816.823
812.589
808.35
804.096
799.818
795.506
791.154
786.757
782.314
777.832
773.326
768.825
764.361
759.913
755.466
751.008
746.529
742.028
737.505
732.954
728.363
723.698
718.896
713.954
708.904
703.752
1185.48
1184.34
1183.12
1181.82
1180.4
1178.85
1177.16
1175.32
1173.31
1171.13
1168.77
1166.23
1163.5
1160.59
1157.51
1154.25
1150.83
1147.27
1143.58
1139.78
1135.89
1131.92
1127.89
1123.82
1119.71
1115.58
1111.43
1107.28
1103.11
1098.93
1094.74
1090.54
1086.31
1082.07
1077.79
1073.48
1069.14
1064.76
1060.34
1055.88
1051.38
1046.84
1042.26
1037.64
1032.99
1028.31
1023.59
1018.84
1014.07
1009.27
1004.45
999.6
994.733
989.847
984.943
980.024
975.091
970.145
965.19
960.227
955.257
950.283
945.307
940.331
935.356
930.386
925.423
920.469
915.525
910.596
905.683
900.789
895.916
891.068
886.247
881.457
876.699
871.979
867.298
862.659
858.067
853.524
849.032
844.593
840.208
835.876
831.597
827.367
823.181
819.032
814.912
810.81
806.715
802.619
798.51
794.379
790.218
786.019
781.777
777.492
773.17
768.828
764.494
760.196
755.908
751.62
747.318
742.996
738.652
734.285
729.888
725.443
720.908
716.224
711.428
706.531
701.538
696.449
691.259
685.953
680.507
674.9
669.113
663.143
656.969
650.553
643.875
1144.71
1142.93
1141.04
1139.01
1136.84
1134.51
1132.02
1129.37
1126.53
1123.53
1120.35
1116.99
1113.48
1109.81
1105.99
1102.05
1097.99
1093.83
1089.6
1085.3
1080.95
1076.56
1072.14
1067.71
1063.27
1058.82
1054.37
1049.91
1045.44
1040.97
1036.48
1031.97
1027.44
1022.89
1018.32
1013.72
1009.09
1004.44
999.754
995.047
990.315
985.561
980.786
975.993
971.184
966.361
961.526
956.682
951.83
946.972
942.112
937.249
932.388
927.529
922.676
917.829
912.992
908.167
903.357
898.563
893.788
889.035
884.306
879.605
874.933
870.295
865.692
861.128
856.605
852.128
847.698
843.318
838.99
834.715
830.495
826.327
822.21
818.139
814.109
810.112
806.138
802.176
798.217
794.251
790.268
786.259
782.216
778.133
774.009
769.849
765.666
761.488
757.343
753.208
749.074
744.928
740.762
736.574
732.364
728.123
723.833
719.448
714.921
710.294
705.57
700.754
695.846
690.837
685.71
680.445
675.019
669.419
663.646
657.658
651.432
644.949
638.181
631.095
623.653
615.815
607.539
598.783
589.494
579.606
569.045
557.75
545.662
532.732
1100.91
1098.62
1096.18
1093.61
1090.88
1087.99
1084.95
1081.73
1078.36
1074.82
1071.13
1067.29
1063.31
1059.21
1054.99
1050.68
1046.28
1041.82
1037.31
1032.76
1028.18
1023.58
1018.98
1014.37
1009.76
1005.15
1000.54
995.931
991.32
986.704
982.08
977.448
972.803
968.147
963.477
958.794
954.098
949.391
944.674
939.949
935.219
930.484
925.749
921.015
916.285
911.561
906.846
902.142
897.452
892.777
888.121
883.486
878.874
874.288
869.731
865.205
860.714
856.26
851.845
847.473
843.147
838.869
834.642
830.467
826.345
822.277
818.26
814.293
810.369
806.483
802.626
798.789
794.96
791.131
787.291
783.432
779.543
775.62
771.658
767.658
763.632
759.6
755.594