/*--------------------------------*- C++ -*----------------------------------*\
| =========                 |                                                 |
| \\      /  F ield         | OpenFOAM: The Open Source CFD Toolbox           |
|  \\    /   O peration     | Version:  v1706                                 |
|   \\  /    A nd           | Web:      www.OpenFOAM.com                      |
|    \\/     M anipulation  |                                                 |
\*---------------------------------------------------------------------------*/
FoamFile
{
    version     2.0;
    format      ascii;
    class       volScalarField;
    location    "3e-06";
    object      Tv;
}
// * * * * * * * * * * * * * * * * * * * * * * * * * * * * * * * * * * * * * //

dimensions      [0 0 0 1 0 0 0];


internalField   nonuniform List<scalar> 
29871
(
144.4
144.4
144.4
144.4
144.4
144.4
144.4
144.4
144.4
144.4
144.4
144.4
144.4
144.4
144.4
144.4
144.4
144.4
144.4
144.4
144.4
144.4
144.4
144.4
144.4
144.4
144.4
144.4
144.4
144.4
144.4
144.4
144.4
144.4
144.4
144.4
144.4
144.4
144.4
144.4
144.4
144.4
144.4
144.4
144.4
144.4
144.4
144.4
144.4
144.4
144.4
144.4
144.4
144.4
144.4
144.4
144.4
144.4
144.4
144.4
144.4
144.4
144.4
144.4
144.4
144.4
144.4
144.4
144.4
144.4
144.4
144.4
144.4
144.4
144.4
144.4
144.4
144.4
144.4
144.4
144.4
144.4
144.4
144.4
144.4
144.4
144.4
144.4
144.4
144.4
144.4
144.4
144.4
144.4
144.4
144.4
144.4
144.4
144.4
144.4
144.4
144.4
144.4
144.4
144.4
144.4
144.4
144.4
144.4
144.4
144.4
144.4
144.4
144.4
144.4
144.4
144.4
144.4
144.4
144.4
144.4
144.4
144.4
144.4
144.4
144.4
144.4
144.4
144.4
144.4
144.4
144.4
144.4
144.4
144.4
144.4
144.4
144.4
144.4
144.4
144.4
144.4
144.4
144.4
144.4
144.4
144.4
144.4
144.4
144.4
144.4
144.4
144.4
144.4
144.4
144.4
144.4
144.4
144.4
144.4
144.4
144.4
144.4
144.4
144.4
144.4
144.4
144.4
144.4
144.4
144.4
144.4
144.4
144.4
144.4
144.4
144.4
144.4
144.4
144.4
144.4
144.4
144.4
144.4
144.4
144.4
144.4
144.4
144.4
144.4
144.4
144.4
144.4
144.4
144.4
144.4
144.4
144.4
144.4
144.4
144.4
144.4
144.4
144.4
144.4
144.4
144.4
144.4
144.4
144.4
144.4
144.4
144.4
144.4
144.4
144.4
144.4
144.4
144.4
144.4
144.4
144.4
144.4
144.4
144.4
144.4
144.4
144.4
144.4
144.4
144.4
144.4
144.4
144.4
144.4
144.4
144.4
144.4
144.4
144.4
144.4
144.4
144.4
144.4
144.4
144.4
144.4
144.4
144.4
144.4
144.4
144.4
144.4
144.4
144.4
144.4
144.4
144.4
144.4
144.4
144.4
144.4
144.4
144.4
144.4
144.4
144.4
144.4
144.4
144.4
144.4
144.4
144.4
144.4
144.4
144.4
144.4
144.4
144.4
144.4
144.4
144.4
144.4
144.4
144.4
144.4
144.4
144.4
144.4
144.4
144.4
144.4
144.4
144.4
144.4
144.4
144.4
144.4
144.4
144.4
144.4
144.4
144.4
144.4
144.4
144.4
144.4
144.4
144.4
144.4
144.4
144.4
144.4
144.4
144.4
144.4
144.4
144.4
144.4
144.4
144.4
144.4
144.4
144.4
144.4
144.4
144.4
144.4
144.4
144.4
144.4
144.4
144.4
144.4
144.4
144.4
144.4
144.4
144.4
144.4
144.4
144.4
144.4
144.4
144.4
144.4
144.4
144.4
144.4
144.4
144.4
144.4
144.4
144.4
144.4
144.4
144.4
144.4
144.4
144.4
144.4
144.4
144.4
144.4
144.4
144.4
144.4
144.4
144.4
144.4
144.4
144.4
144.4
144.4
144.4
144.4
144.4
144.4
144.4
144.4
144.4
144.4
144.4
144.4
144.4
144.4
144.4
144.4
144.4
144.4
144.4
144.4
144.4
144.4
144.4
144.4
144.4
144.4
144.4
144.4
144.4
144.4
144.4
144.4
144.4
144.4
144.401
144.401
144.401
144.401
144.401
144.401
144.401
144.401
144.401
144.401
144.401
144.401
144.401
144.401
144.401
144.401
144.4
144.4
144.4
144.4
144.4
144.4
144.4
144.4
144.4
144.4
144.4
144.4
144.4
144.4
144.4
144.4
144.4
144.4
144.4
144.4
144.4
144.4
144.4
144.4
144.4
144.4
144.4
144.4
144.4
144.4
144.4
144.4
144.4
144.4
144.4
144.4
144.4
144.4
144.4
144.4
144.4
144.4
144.4
144.4
144.4
144.4
144.4
144.401
144.401
144.401
144.401
144.401
144.401
144.401
144.401
144.401
144.401
144.401
144.401
144.401
144.401
144.401
144.401
144.401
144.401
144.401
144.401
144.401
144.401
144.401
144.402
144.402
144.402
144.402
144.402
144.402
144.402
144.402
144.402
144.402
144.403
144.403
144.403
144.403
144.403
144.403
144.403
144.404
144.404
144.404
144.404
144.404
144.405
144.405
144.405
144.405
144.406
144.406
144.406
144.407
144.407
144.407
144.408
144.408
144.409
144.409
144.41
144.4
144.4
144.4
144.4
144.4
144.4
144.4
144.4
144.4
144.4
144.401
144.401
144.401
144.401
144.401
144.401
144.401
144.401
144.401
144.401
144.401
144.401
144.401
144.401
144.401
144.401
144.401
144.402
144.402
144.402
144.402
144.402
144.402
144.402
144.402
144.402
144.402
144.403
144.403
144.403
144.403
144.403
144.403
144.403
144.404
144.404
144.404
144.404
144.404
144.405
144.405
144.405
144.405
144.406
144.406
144.406
144.407
144.407
144.407
144.408
144.408
144.408
144.409
144.409
144.41
144.41
144.411
144.411
144.412
144.413
144.413
144.414
144.415
144.415
144.416
144.417
144.418
144.419
144.42
144.421
144.422
144.423
144.424
144.426
144.427
144.429
144.43
144.432
144.433
144.435
144.437
144.439
144.441
144.443
144.446
144.448
144.451
144.453
144.456
144.459
144.462
144.466
144.469
144.473
144.477
144.481
144.485
144.402
144.402
144.402
144.402
144.402
144.402
144.402
144.403
144.403
144.403
144.403
144.403
144.404
144.404
144.404
144.405
144.405
144.405
144.406
144.406
144.407
144.407
144.407
144.408
144.408
144.409
144.409
144.41
144.411
144.411
144.412
144.412
144.413
144.414
144.414
144.415
144.416
144.417
144.418
144.419
144.42
144.421
144.422
144.423
144.424
144.425
144.427
144.428
144.43
144.431
144.433
144.435
144.436
144.438
144.44
144.443
144.445
144.447
144.45
144.452
144.455
144.458
144.461
144.464
144.468
144.471
144.475
144.479
144.483
144.488
144.492
144.497
144.502
144.508
144.513
144.519
144.526
144.532
144.54
144.547
144.555
144.563
144.572
144.581
144.591
144.601
144.612
144.623
144.635
144.648
144.661
144.676
144.69
144.706
144.723
144.74
144.758
144.778
144.798
144.819
144.841
144.864
144.889
144.914
144.941
144.969
144.998
145.029
145.061
145.095
144.413
144.413
144.414
144.414
144.415
144.416
144.417
144.418
144.42
144.421
144.423
144.425
144.427
144.429
144.431
144.434
144.437
144.44
144.443
144.446
144.449
144.452
144.455
144.459
144.463
144.466
144.47
144.474
144.479
144.483
144.488
144.493
144.498
144.503
144.509
144.515
144.521
144.527
144.534
144.541
144.548
144.556
144.564
144.573
144.582
144.591
144.602
144.612
144.623
144.635
144.647
144.66
144.674
144.689
144.704
144.72
144.737
144.755
144.774
144.793
144.814
144.836
144.859
144.883
144.908
144.934
144.962
144.99
145.021
145.052
145.085
145.12
145.156
145.194
145.233
145.274
145.317
145.362
145.409
145.457
145.508
145.561
145.617
145.675
145.735
145.799
145.865
145.934
146.006
146.081
146.16
146.242
146.327
146.416
146.509
146.606
146.706
146.811
146.919
147.031
147.147
147.267
147.391
147.518
147.649
147.784
147.922
148.063
148.207
148.356
144.487
144.49
144.493
144.498
144.504
144.51
144.518
144.527
144.537
144.548
144.56
144.573
144.588
144.603
144.62
144.638
144.656
144.676
144.696
144.717
144.738
144.76
144.783
144.807
144.831
144.856
144.882
144.91
144.938
144.967
144.998
145.03
145.063
145.098
145.133
145.171
145.21
145.25
145.292
145.335
145.381
145.428
145.477
145.528
145.581
145.636
145.693
145.753
145.815
145.88
145.948
146.018
146.091
146.167
146.246
146.329
146.414
146.503
146.596
146.692
146.792
146.895
147.002
147.113
147.227
147.345
147.467
147.592
147.721
147.854
147.99
148.129
148.272
148.418
148.566
148.718
148.873
149.03
149.19
149.352
149.517
149.685
149.855
150.028
150.203
150.381
150.562
150.746
150.933
151.123
151.317
151.514
151.715
151.919
152.128
152.341
152.558
152.78
153.006
153.237
153.472
153.711
153.955
154.203
154.456
154.711
154.971
155.233
155.498
155.766
144.938
144.957
144.982
145.011
145.046
145.087
145.134
145.186
145.244
145.308
145.377
145.452
145.531
145.616
145.704
145.795
145.889
145.985
146.083
146.182
146.282
146.384
146.486
146.59
146.696
146.804
146.914
147.027
147.142
147.261
147.382
147.507
147.634
147.764
147.897
148.033
148.172
148.313
148.457
148.603
148.752
148.904
149.058
149.214
149.373
149.535
149.699
149.865
150.034
150.206
150.379
150.556
150.735
150.916
151.1
151.287
151.477
151.67
151.866
152.066
152.269
152.475
152.686
152.9
153.117
153.339
153.565
153.794
154.027
154.264
154.504
154.747
154.994
155.243
155.495
155.749
156.004
156.261
156.52
156.779
157.038
157.298
157.557
157.817
158.076
158.334
158.591
158.847
159.101
159.355
159.607
159.858
160.107
160.355
160.603
160.849
161.094
161.339
161.583
161.827
162.071
162.315
162.559
162.804
163.049
163.295
163.542
163.789
164.038
164.288
146.932
147.011
147.108
147.223
147.356
147.505
147.671
147.851
148.046
148.253
148.471
148.699
148.933
149.172
149.414
149.656
149.897
150.134
150.368
150.597
150.821
151.04
151.256
151.47
151.681
151.891
152.101
152.312
152.524
152.738
152.953
153.171
153.391
153.614
153.838
154.065
154.294
154.525
154.758
154.993
155.23
155.469
155.71
155.952
156.195
156.439
156.685
156.93
157.177
157.423
157.669
157.915
158.16
158.405
158.649
158.892
159.134
159.375
159.615
159.853
160.091
160.328
160.564
160.8
161.035
161.269
161.504
161.738
161.973
162.207
162.443
162.678
162.915
163.152
163.39
163.629
163.869
164.111
164.353
164.596
164.84
165.088
165.336
165.584
165.832
166.08
166.328
166.575
166.821
167.067
167.313
167.558
167.802
168.046
168.289
168.532
168.774
169.015
169.256
169.497
169.738
169.978
170.218
170.459
170.699
170.94
171.181
171.422
171.664
171.906
151.562
151.69
151.849
152.036
152.251
152.492
152.756
153.041
153.344
153.664
153.997
154.341
154.692
155.048
155.405
155.76
156.11
156.454
156.787
157.11
157.421
157.72
158.008
158.286
158.554
158.815
159.069
159.318
159.563
159.805
160.044
160.281
160.515
160.748
160.979
161.21
161.439
161.667
161.895
162.122
162.35
162.577
162.805
163.034
163.263
163.493
163.724
163.956
164.189
164.423
164.659
164.897
165.134
165.371
165.608
165.845
166.081
166.317
166.553
166.788
167.023
167.257
167.491
167.724
167.956
168.189
168.421
168.652
168.884
169.115
169.346
169.578
169.809
170.041
170.273
170.505
170.738
170.971
171.205
171.439
171.674
171.909
172.148
172.386
172.625
172.862
173.099
173.336
173.571
173.807
174.041
174.275
174.509
174.742
174.974
175.207
175.439
175.67
175.902
176.133
176.364
176.595
176.826
177.057
177.289
177.52
177.751
177.983
178.215
178.447
178.679
158.094
158.262
158.463
158.694
158.953
159.235
159.539
159.861
160.197
160.543
160.895
161.25
161.607
161.961
162.31
162.654
162.989
163.315
163.631
163.936
164.23
164.515
164.79
165.055
165.313
165.563
165.808
166.049
166.286
166.522
166.755
166.987
167.217
167.446
167.674
167.9
168.126
168.351
168.575
168.798
169.021
169.245
169.468
169.691
169.914
170.138
170.363
170.588
170.813
171.039
171.267
171.496
171.725
171.953
172.18
172.407
172.634
172.86
173.086
173.311
173.536
173.76
173.984
174.208
174.431
174.654
174.877
175.1
175.323
175.546
175.769
175.992
176.216
176.439
176.662
176.886
177.11
177.334
177.558
177.782
178.007
178.231
178.456
178.68
178.903
179.125
179.348
179.569
179.791
180.012
180.232
180.453
180.672
180.892
181.112
181.331
181.55
181.769
181.988
182.207
182.426
182.645
182.864
183.082
183.301
183.519
183.737
183.955
184.172
184.39
184.607
184.823
185.04
164.371
164.555
164.769
165.011
165.279
165.569
165.88
166.206
166.544
166.89
167.241
167.593
167.945
168.293
168.635
168.969
169.294
169.609
169.912
170.204
170.484
170.754
171.016
171.268
171.511
171.748
171.981
172.209
172.435
172.659
172.881
173.103
173.323
173.542
173.76
173.978
174.195
174.411
174.627
174.842
175.058
175.273
175.488
175.704
175.919
176.135
176.35
176.566
176.782
176.998
177.215
177.43
177.646
177.86
178.075
178.289
178.502
178.716
178.929
179.142
179.354
179.567
179.779
179.991
180.203
180.415
180.627
180.838
181.05
181.262
181.474
181.685
181.897
182.108
182.319
182.53
182.741
182.951
183.162
183.371
183.581
183.79
183.998
184.206
184.414
184.621
184.828
185.034
185.24
185.446
185.652
185.857
186.062
186.267
186.471
186.676
186.879
187.083
187.286
187.489
187.692
187.894
188.096
188.297
188.498
188.698
188.897
189.096
189.295
189.492
189.689
189.886
190.081
169.925
170.067
170.235
170.43
170.65
170.895
171.162
171.45
171.755
172.073
172.401
172.735
173.073
173.41
173.746
174.078
174.404
174.721
175.029
175.326
175.612
175.886
176.148
176.4
176.642
176.876
177.102
177.323
177.54
177.754
177.966
178.177
178.387
178.596
178.804
179.011
179.218
179.425
179.63
179.836
180.041
180.246
180.45
180.655
180.859
181.063
181.266
181.47
181.673
181.876
182.079
182.281
182.483
182.685
182.886
183.087
183.288
183.488
183.688
183.888
184.088
184.287
184.487
184.686
184.884
185.083
185.281
185.48
185.677
185.875
186.072
186.269
186.466
186.662
186.858
187.053
187.248
187.443
187.637
187.83
188.023
188.216
188.407
188.599
188.79
188.98
189.17
189.36
189.549
189.738
189.926
190.113
190.301
190.487
190.673
190.859
191.044
191.228
191.412
191.595
191.777
191.959
192.139
192.319
192.499
192.677
192.855
193.031
193.207
193.382
193.556
193.729
193.902
194.073
194.243
175.271
175.428
175.608
175.81
176.034
176.278
176.541
176.821
177.114
177.417
177.728
178.044
178.361
178.677
178.99
179.299
179.6
179.893
180.176
180.449
180.71
180.96
181.2
181.43
181.652
181.867
182.076
182.281
182.483
182.683
182.881
183.078
183.275
183.47
183.665
183.859
184.053
184.246
184.439
184.631
184.823
185.014
185.205
185.395
185.585
185.774
185.963
186.152
186.34
186.528
186.716
186.903
187.09
187.276
187.462
187.648
187.833
188.018
188.203
188.387
188.571
188.754
188.937
189.12
189.302
189.483
189.665
189.845
190.025
190.205
190.384
190.562
190.74
190.917
191.094
191.27
191.445
191.619
191.793
191.967
192.139
192.311
192.482
192.653
192.822
192.991
193.16
193.327
193.494
193.66
193.825
193.989
194.153
194.315
194.477
194.637
194.797
194.956
195.113
195.27
195.426
195.58
195.733
195.886
196.037
196.186
196.335
196.483
196.629
196.774
196.917
197.06
197.201
197.34
197.478
197.615
179.448
179.49
179.547
179.621
179.713
179.823
179.952
180.102
180.272
180.462
180.67
180.895
181.136
181.392
181.659
181.937
182.221
182.511
182.803
183.094
183.384
183.669
183.948
184.219
184.482
184.735
184.979
185.212
185.436
185.652
185.859
186.06
186.256
186.447
186.635
186.821
187.005
187.188
187.37
187.551
187.731
187.911
188.09
188.268
188.446
188.623
188.799
188.974
189.149
189.324
189.498
189.671
189.844
190.016
190.187
190.359
190.529
190.699
190.869
191.038
191.207
191.375
191.542
191.709
191.875
192.041
192.206
192.37
192.534
192.696
192.859
193.02
193.181
193.341
193.5
193.658
193.816
193.973
194.128
194.283
194.437
194.591
194.743
194.894
195.045
195.194
195.343
195.49
195.637
195.782
195.926
196.07
196.212
196.353
196.493
196.632
196.769
196.905
197.041
197.174
197.307
197.438
197.568
197.696
197.824
197.949
198.073
198.196
198.317
198.437
198.555
198.671
198.786
198.899
199.01
199.12
199.227
199.333
199.436
199.538
199.638
199.736
199.831
183.603
183.674
183.76
183.859
183.975
184.105
184.252
184.415
184.595
184.79
185
185.222
185.456
185.7
185.952
186.21
186.472
186.736
187
187.261
187.519
187.772
188.018
188.256
188.487
188.708
188.921
189.126
189.323
189.513
189.697
189.876
190.051
190.223
190.392
190.56
190.726
190.891
191.055
191.218
191.381
191.543
191.704
191.864
192.023
192.182
192.34
192.497
192.653
192.809
192.963
193.117
193.27
193.423
193.574
193.725
193.876
194.025
194.173
194.321
194.468
194.614
194.759
194.904
195.047
195.19
195.331
195.472
195.611
195.75
195.888
196.024
196.16
196.294
196.427
196.559
196.69
196.82
196.949
197.076
197.203
197.328
197.451
197.574
197.695
197.815
197.933
198.05
198.166
198.28
198.393
198.504
198.614
198.722
198.829
198.934
199.037
199.139
199.239
199.337
199.433
199.527
199.619
199.71
199.798
199.885
199.969
200.051
200.132
200.21
200.287
200.361
200.433
200.503
200.57
200.635
200.697
200.757
200.814
200.868
200.918
200.966
201.009
187.27
187.365
187.473
187.593
187.726
187.871
188.029
188.201
188.385
188.581
188.787
189.001
189.223
189.452
189.684
189.919
190.155
190.39
190.623
190.853
191.078
191.296
191.508
191.713
191.909
192.099
192.281
192.456
192.625
192.788
192.947
193.103
193.255
193.405
193.553
193.699
193.845
193.99
194.133
194.276
194.418
194.559
194.7
194.839
194.977
195.115
195.251
195.386
195.52
195.653
195.786
195.917
196.046
196.175
196.303
196.43
196.556
196.68
196.804
196.926
197.047
197.167
197.286
197.403
197.52
197.635
197.749
197.861
197.972
198.082
198.191
198.298
198.404
198.508
198.611
198.712
198.812
198.91
199.007
199.102
199.195
199.286
199.376
199.464
199.551
199.635
199.717
199.798
199.877
199.954
200.028
200.102
200.173
200.242
200.309
200.374
200.437
200.498
200.556
200.612
200.666
200.716
200.764
200.809
200.851
200.889
200.923
200.954
200.981
201.006
201.028
201.048
201.065
201.08
201.093
201.103
201.111
201.117
201.121
201.123
201.124
201.123
201.121
190.447
190.56
190.683
190.817
190.961
191.114
191.278
191.451
191.634
191.824
192.02
192.222
192.428
192.636
192.846
193.055
193.263
193.468
193.668
193.864
194.055
194.239
194.416
194.586
194.749
194.905
195.056
195.2
195.34
195.476
195.608
195.737
195.865
195.99
196.114
196.237
196.359
196.48
196.601
196.72
196.839
196.956
197.072
197.187
197.301
197.413
197.525
197.634
197.743
197.85
197.955
198.06
198.162
198.264
198.364
198.463
198.56
198.656
198.75
198.843
198.934
199.024
199.112
199.199
199.284
199.367
199.448
199.528
199.606
199.682
199.757
199.829
199.9
199.969
200.036
200.101
200.164
200.226
200.286
200.343
200.399
200.452
200.503
200.551
200.597
200.641
200.681
200.719
200.753
200.784
200.811
200.836
200.858
200.878
200.896
200.911
200.924
200.935
200.944
200.951
200.956
200.959
200.96
200.961
200.96
200.958
200.956
200.954
200.951
200.946
200.937
200.927
200.913
200.898
200.879
200.859
200.836
200.811
200.783
200.753
200.72
200.685
200.647
200.606
200.561
193.133
193.256
193.387
193.527
193.675
193.83
193.992
194.161
194.335
194.514
194.696
194.88
195.065
195.25
195.433
195.614
195.791
195.963
196.131
196.292
196.447
196.596
196.738
196.873
197.002
197.125
197.243
197.356
197.466
197.572
197.676
197.777
197.877
197.976
198.074
198.17
198.266
198.361
198.454
198.547
198.639
198.729
198.818
198.905
198.991
199.075
199.157
199.238
199.317
199.394
199.469
199.543
199.614
199.684
199.752
199.818
199.882
199.945
200.005
200.065
200.122
200.177
200.231
200.283
200.332
200.38
200.425
200.468
200.508
200.546
200.581
200.613
200.642
200.667
200.69
200.711
200.73
200.746
200.76
200.773
200.783
200.791
200.797
200.801
200.804
200.805
200.806
200.805
200.803
200.802
200.8
200.797
200.791
200.782
200.771
200.758
200.743
200.725
200.706
200.683
200.659
200.632
200.603
200.572
200.538
200.501
200.461
200.418
200.371
200.322
200.271
200.217
200.16
200.1
200.038
199.973
199.905
199.834
199.76
199.683
199.603
199.519
199.433
199.342
199.249
195.322
195.449
195.582
195.722
195.867
196.016
196.17
196.328
196.488
196.65
196.812
196.974
197.134
197.292
197.446
197.596
197.74
197.879
198.011
198.137
198.256
198.369
198.475
198.575
198.669
198.759
198.844
198.925
199.003
199.079
199.152
199.224
199.295
199.364
199.433
199.5
199.566
199.631
199.695
199.757
199.818
199.878
199.936
199.992
200.046
200.098
200.148
200.196
200.242
200.286
200.328
200.367
200.404
200.438
200.469
200.497
200.522
200.545
200.565
200.583
200.6
200.614
200.626
200.636
200.644
200.651
200.655
200.659
200.66
200.661
200.66
200.659
200.658
200.656
200.653
200.648
200.64
200.63
200.618
200.603
200.587
200.568
200.547
200.524
200.499
200.472
200.442
200.411
200.376
200.338
200.297
200.254
200.208
200.159
200.108
200.055
199.999
199.941
199.879
199.816
199.749
199.679
199.606
199.531
199.452
199.37
199.285
199.197
199.106
199.012
198.916
198.816
198.714
198.608
198.5
198.388
198.273
198.155
198.034
197.91
197.782
197.652
197.518
197.381
197.241
196.9
197.018
197.142
197.27
197.403
197.538
197.676
197.816
197.957
198.098
198.238
198.376
198.511
198.643
198.77
198.892
199.008
199.118
199.221
199.317
199.406
199.488
199.564
199.634
199.697
199.756
199.811
199.862
199.91
199.956
199.999
200.041
200.082
200.122
200.16
200.197
200.233
200.267
200.3
200.33
200.358
200.383
200.405
200.426
200.445
200.461
200.475
200.488
200.498
200.506
200.512
200.517
200.52
200.521
200.522
200.522
200.521
200.52
200.518
200.514
200.508
200.499
200.489
200.476
200.461
200.445
200.426
200.405
200.383
200.358
200.331
200.301
200.27
200.235
200.197
200.157
200.114
200.07
200.023
199.973
199.922
199.867
199.811
199.751
199.689
199.624
199.557
199.486
199.413
199.337
199.258
199.176
199.091
199.004
198.914
198.821
198.726
198.627
198.526
198.422
198.315
198.204
198.091
197.975
197.855
197.733
197.608
197.479
197.348
197.214
197.076
196.936
196.793
196.646
196.496
196.343
196.187
196.028
195.866
195.701
195.532
195.36
195.186
195.008
194.826
194.642
198.116
198.228
198.342
198.46
198.579
198.7
198.82
198.94
199.058
199.175
199.288
199.397
199.501
199.601
199.694
199.781
199.862
199.935
200.001
200.06
200.112
200.157
200.195
200.226
200.252
200.273
200.29
200.304
200.315
200.325
200.333
200.34
200.346
200.351
200.356
200.359
200.363
200.365
200.367
200.369
200.371
200.373
200.373
200.371
200.366
200.36
200.351
200.34
200.327
200.311
200.294
200.275
200.253
200.23
200.204
200.176
200.145
200.112
200.075
200.037
199.997
199.954
199.909
199.862
199.813
199.761
199.707
199.65
199.591
199.529
199.464
199.397
199.327
199.254
199.178
199.1
199.02
198.937
198.851
198.763
198.672
198.579
198.482
198.383
198.281
198.176
198.068
197.958
197.844
197.728
197.609
197.487
197.362
197.235
197.104
196.971
196.834
196.695
196.552
196.407
196.259
196.107
195.953
195.795
195.635
195.472
195.305
195.135
194.963
194.787
194.608
194.425
194.24
194.051
193.86
193.665
193.466
193.265
193.06
192.852
192.64
192.425
192.207
191.985
191.76
191.531
191.298
191.062
198.862
198.961
199.062
199.163
199.264
199.363
199.461
199.557
199.648
199.735
199.816
199.891
199.958
200.02
200.074
200.121
200.161
200.193
200.219
200.239
200.252
200.26
200.265
200.265
200.264
200.261
200.255
200.247
200.236
200.224
200.211
200.197
200.182
200.166
200.148
200.13
200.111
200.091
200.068
200.044
200.017
199.988
199.956
199.922
199.886
199.848
199.807
199.764
199.718
199.67
199.62
199.567
199.511
199.453
199.393
199.329
199.264
199.195
199.124
199.051
198.976
198.898
198.817
198.734
198.648
198.56
198.469
198.376
198.279
198.18
198.079
197.974
197.867
197.758
197.646
197.531
197.413
197.293
197.169
197.043
196.915
196.783
196.649
196.511
196.371
196.228
196.083
195.934
195.782
195.628
195.471
195.31
195.147
194.981
194.812
194.639
194.464
194.286
194.104
193.92
193.732
193.542
193.348
193.151
192.95
192.747
192.54
192.33
192.117
191.9
191.68
191.457
191.23
191
190.766
190.528
190.287
190.042
189.794
189.541
189.285
189.025
188.761
188.493
188.22
187.944
187.662
187.376
199.15
199.23
199.309
199.386
199.462
199.535
199.605
199.67
199.732
199.789
199.842
199.891
199.934
199.97
199.999
200.021
200.035
200.043
200.043
200.038
200.026
200.01
199.988
199.962
199.933
199.899
199.863
199.825
199.786
199.745
199.703
199.66
199.616
199.57
199.523
199.475
199.425
199.373
199.318
199.261
199.202
199.141
199.077
199.011
198.942
198.87
198.796
198.72
198.641
198.559
198.475
198.388
198.298
198.206
198.111
198.014
197.914
197.812
197.707
197.599
197.489
197.377
197.262
197.144
197.023
196.9
196.774
196.645
196.514
196.38
196.243
196.103
195.961
195.816
195.668
195.518
195.364
195.208
195.049
194.887
194.722
194.555
194.384
194.211
194.035
193.855
193.673
193.488
193.299
193.108
192.914
192.716
192.516
192.312
192.105
191.895
191.682
191.465
191.245
191.022
190.796
190.566
190.332
190.095
189.855
189.611
189.363
189.111
188.856
188.597
188.334
188.067
187.796
187.521
187.241
186.957
186.669
186.376
186.079
185.777
185.469
185.157
184.84
184.518
184.19
183.857
183.517
183.172
199.065
199.13
199.192
199.252
199.309
199.362
199.411
199.455
199.492
199.524
199.549
199.566
199.575
199.577
199.572
199.559
199.54
199.513
199.48
199.442
199.397
199.348
199.294
199.236
199.175
199.112
199.046
198.979
198.911
198.841
198.77
198.697
198.623
198.547
198.47
198.391
198.31
198.226
198.141
198.052
197.962
197.869
197.773
197.675
197.574
197.471
197.364
197.255
197.144
197.03
196.913
196.793
196.671
196.547
196.42
196.29
196.157
196.022
195.885
195.744
195.601
195.455
195.307
195.156
195.002
194.845
194.686
194.524
194.359
194.191
194.02
193.847
193.671
193.492
193.31
193.125
192.937
192.746
192.553
192.356
192.156
191.954
191.748
191.539
191.327
191.112
190.894
190.672
190.447
190.219
189.988
189.753
189.515
189.273
189.027
188.779
188.526
188.27
188.01
187.746
187.478
187.206
186.93
186.65
186.366
186.077
185.784
185.487
185.184
184.877
184.565
184.248
183.926
183.598
183.265
182.927
182.582
182.233
181.877
181.515
181.147
180.774
180.394
180.008
179.615
179.216
178.811
178.398
177.977
198.709
198.748
198.782
198.812
198.836
198.855
198.866
198.871
198.869
198.859
198.842
198.816
198.784
198.744
198.697
198.643
198.583
198.517
198.446
198.369
198.289
198.205
198.118
198.028
197.936
197.843
197.748
197.651
197.553
197.453
197.352
197.249
197.144
197.038
196.929
196.818
196.705
196.589
196.47
196.349
196.226
196.1
195.971
195.839
195.705
195.567
195.428
195.285
195.14
194.992
194.842
194.689
194.533
194.375
194.214
194.05
193.883
193.714
193.542
193.367
193.189
193.009
192.826
192.64
192.451
192.259
192.064
191.866
191.666
191.462
191.256
191.046
190.834
190.618
190.399
190.177
189.952
189.724
189.492
189.257
189.019
188.777
188.532
188.283
188.031
187.775
187.516
187.253
186.986
186.715
186.44
186.161
185.878
185.591
185.3
185.004
184.703
184.398
184.088
183.773
183.453
183.129
182.798
182.463
182.122
181.775
181.423
181.065
180.701
180.331
179.955
179.573
179.185
178.79
178.389
177.982
177.568
177.148
176.72
176.285
175.844
175.395
174.938
174.474
174.002
173.521
173.032
172.533
197.939
197.95
197.955
197.954
197.948
197.934
197.912
197.884
197.848
197.804
197.752
197.693
197.627
197.554
197.474
197.388
197.296
197.199
197.098
196.992
196.883
196.771
196.657
196.54
196.422
196.301
196.179
196.056
195.931
195.804
195.675
195.544
195.412
195.277
195.139
195
194.857
194.713
194.565
194.415
194.262
194.106
193.948
193.786
193.622
193.456
193.286
193.114
192.939
192.762
192.581
192.398
192.212
192.023
191.832
191.637
191.44
191.24
191.036
190.83
190.621
190.409
190.194
189.976
189.755
189.531
189.303
189.073
188.839
188.602
188.362
188.118
187.871
187.62
187.366
187.109
186.848
186.583
186.314
186.042
185.765
185.485
185.201
184.912
184.619
184.322
184.021
183.715
183.404
183.088
182.768
182.442
182.112
181.776
181.434
181.087
180.735
180.377
180.013
179.643
179.268
178.886
178.498
178.105
177.704
177.298
176.885
176.465
176.039
175.606
175.165
174.718
174.263
173.8
173.33
172.852
172.365
171.871
171.369
170.86
170.343
169.818
169.286
168.747
168.2
167.646
167.084
166.515
196.831
196.806
196.774
196.735
196.689
196.635
196.573
196.504
196.427
196.343
196.251
196.153
196.048
195.938
195.822
195.701
195.576
195.446
195.314
195.178
195.04
194.9
194.758
194.614
194.468
194.32
194.171
194.019
193.866
193.71
193.553
193.393
193.23
193.065
192.898
192.728
192.555
192.379
192.2
192.019
191.834
191.647
191.457
191.264
191.069
190.87
190.669
190.464
190.257
190.047
189.834
189.618
189.399
189.177
188.952
188.723
188.492
188.257
188.019
187.778
187.534
187.286
187.035
186.78
186.522
186.261
185.996
185.727
185.454
185.177
184.897
184.613
184.324
184.032
183.735
183.434
183.128
182.818
182.503
182.184
181.859
181.53
181.195
180.855
180.51
180.159
179.803
179.441
179.074
178.701
178.321
177.936
177.545
177.148
176.745
176.335
175.919
175.496
175.067
174.631
174.187
173.737
173.279
172.813
172.34
171.858
171.37
170.873
170.37
169.859
169.341
168.815
168.283
167.743
167.195
166.642
166.082
165.516
164.946
164.37
163.79
163.206
162.619
162.028
161.435
160.84
160.244
195.372
195.309
195.238
195.159
195.073
194.979
194.878
194.769
194.654
194.532
194.404
194.27
194.131
193.987
193.84
193.688
193.533
193.375
193.215
193.052
192.887
192.72
192.551
192.38
192.207
192.032
191.855
191.676
191.494
191.31
191.123
190.934
190.741
190.546
190.348
190.147
189.944
189.737
189.527
189.314
189.099
188.88
188.658
188.433
188.205
187.974
187.74
187.503
187.262
187.019
186.772
186.521
186.268
186.01
185.75
185.485
185.217
184.946
184.671
184.391
184.108
183.821
183.53
183.235
182.936
182.632
182.324
182.012
181.694
181.372
181.045
180.714
180.377
180.035
179.687
179.335
178.977
178.613
178.243
177.868
177.488
177.101
176.709
176.31
175.906
175.495
175.078
174.654
174.224
173.787
173.343
172.892
172.433
171.967
171.494
171.013
170.525
170.029
169.527
169.017
168.501
167.977
167.446
166.908
166.364
165.814
165.258
164.698
164.132
163.562
162.988
162.41
161.83
161.247
160.662
160.077
159.492
158.906
158.322
157.739
157.158
156.579
156.004
155.431
154.862
154.298
153.735
153.18
193.688
193.593
193.49
193.38
193.263
193.138
193.006
192.868
192.723
192.573
192.416
192.255
192.09
191.92
191.747
191.57
191.391
191.208
191.024
190.837
190.648
190.456
190.263
190.067
189.869
189.669
189.466
189.261
189.052
188.841
188.628
188.411
188.191
187.968
187.742
187.513
187.281
187.046
186.807
186.565
186.32
186.072
185.82
185.565
185.306
185.044
184.779
184.509
184.237
183.96
183.68
183.396
183.108
182.815
182.519
182.219
181.914
181.605
181.291
180.973
180.65
180.322
179.99
179.652
179.309
178.961
178.608
178.25
177.886
177.517
177.142
176.761
176.375
175.983
175.585
175.181
174.771
174.355
173.932
173.503
173.067
172.625
172.175
171.718
171.254
170.782
170.304
169.819
169.326
168.827
168.321
167.809
167.289
166.762
166.23
165.691
165.147
164.597
164.043
163.485
162.922
162.355
161.786
161.214
160.64
160.066
159.49
158.915
158.341
157.767
157.196
156.626
156.059
155.496
154.936
154.379
153.828
153.28
152.739
152.204
151.676
151.156
150.646
150.147
149.662
149.191
148.736
148.302
191.78
191.655
191.522
191.381
191.234
191.08
190.919
190.752
190.58
190.402
190.219
190.032
189.841
189.647
189.449
189.248
189.044
188.838
188.629
188.418
188.205
187.989
187.77
187.549
187.325
187.099
186.87
186.637
186.402
186.164