/*--------------------------------*- C++ -*----------------------------------*\
| =========                 |                                                 |
| \\      /  F ield         | OpenFOAM: The Open Source CFD Toolbox           |
|  \\    /   O peration     | Version:  v1706                                 |
|   \\  /    A nd           | Web:      www.OpenFOAM.com                      |
|    \\/     M anipulation  |                                                 |
\*---------------------------------------------------------------------------*/
FoamFile
{
    version     2.0;
    format      ascii;
    class       volVectorField;
    location    "3e-06";
    object      U;
}
// * * * * * * * * * * * * * * * * * * * * * * * * * * * * * * * * * * * * * //

dimensions      [0 1 -1 0 0 0 0];


internalField   nonuniform List<vector> 
29871
(
(2764.5 1.00102e-05 8.38256e-15)
(2764.5 1.0271e-05 6.42524e-15)
(2764.5 1.06365e-05 6.56377e-15)
(2764.5 1.10961e-05 5.86484e-15)
(2764.5 1.16503e-05 3.90221e-15)
(2764.5 1.22971e-05 4.27345e-15)
(2764.5 1.30268e-05 5.5778e-15)
(2764.5 1.38303e-05 5.4403e-15)
(2764.5 1.47018e-05 6.32097e-15)
(2764.5 1.56354e-05 6.27738e-15)
(2764.5 1.66233e-05 6.11731e-15)
(2764.5 1.7656e-05 8.31759e-15)
(2764.5 1.87226e-05 7.13883e-15)
(2764.5 1.98118e-05 7.60234e-15)
(2764.5 2.09119e-05 6.01232e-15)
(2764.5 2.20124e-05 4.17142e-15)
(2764.5 2.31038e-05 4.62922e-15)
(2764.5 2.41784e-05 5.26707e-15)
(2764.5 2.52302e-05 6.84135e-15)
(2764.5 2.62547e-05 6.41316e-15)
(2764.5 2.72486e-05 4.26306e-15)
(2764.5 2.82096e-05 5.22874e-15)
(2764.5 2.91364e-05 3.65193e-15)
(2764.5 3.00276e-05 5.29176e-15)
(2764.5 3.08822e-05 6.98612e-15)
(2764.5 3.16992e-05 6.27982e-15)
(2764.5 3.24775e-05 7.96065e-15)
(2764.5 3.3216e-05 5.44304e-15)
(2764.5 3.39135e-05 4.48121e-15)
(2764.5 3.4569e-05 6.06407e-15)
(2764.5 3.51811e-05 6.12486e-15)
(2764.5 3.57485e-05 4.56299e-15)
(2764.5 3.62696e-05 5.64321e-15)
(2764.5 3.67427e-05 8.54137e-15)
(2764.5 3.71658e-05 5.83403e-15)
(2764.5 3.75369e-05 3.78318e-15)
(2764.5 3.78539e-05 3.19323e-15)
(2764.5 3.81148e-05 5.67247e-15)
(2764.5 3.83183e-05 5.96306e-15)
(2764.5 3.84635e-05 6.20655e-15)
(2764.5 3.85504e-05 7.70431e-15)
(2764.5 3.85802e-05 8.11784e-15)
(2764.5 3.85551e-05 8.50037e-15)
(2764.5 3.84789e-05 5.56352e-15)
(2764.5 3.8357e-05 4.97523e-15)
(2764.5 3.81964e-05 6.03419e-15)
(2764.5 3.80057e-05 5.03272e-15)
(2764.5 3.77953e-05 2.48568e-15)
(2764.5 3.75771e-05 2.8446e-15)
(2764.5 3.73647e-05 6.94759e-15)
(2764.5 3.71733e-05 6.11416e-15)
(2764.5 3.70192e-05 2.95254e-15)
(2764.5 3.69205e-05 4.15969e-15)
(2764.5 3.6896e-05 6.21963e-15)
(2764.5 3.69658e-05 5.69968e-15)
(2764.5 3.71509e-05 5.725e-15)
(2764.5 3.74729e-05 6.39397e-15)
(2764.5 3.79539e-05 7.54373e-15)
(2764.5 3.86161e-05 6.23017e-15)
(2764.5 3.94821e-05 5.43456e-15)
(2764.5 4.05741e-05 3.72298e-15)
(2764.5 4.19136e-05 2.67022e-15)
(2764.5 4.35219e-05 3.86105e-15)
(2764.5 4.54187e-05 9.1064e-16)
(2764.5 4.76228e-05 5.04221e-15)
(2764.5 5.01514e-05 6.52298e-15)
(2764.5 5.30201e-05 4.59759e-15)
(2764.5 5.62426e-05 4.03878e-15)
(2764.5 5.98307e-05 3.38739e-15)
(2764.5 6.37937e-05 3.53933e-15)
(2764.5 6.81381e-05 4.69726e-15)
(2764.5 7.28667e-05 5.43119e-15)
(2764.5 7.79779e-05 3.21241e-15)
(2764.5 8.34654e-05 4.32952e-15)
(2764.5 8.93185e-05 3.70794e-15)
(2764.5 9.55222e-05 6.29225e-15)
(2764.5 0.000102057 2.90544e-15)
(2764.5 0.000108901 3.64933e-15)
(2764.5 0.000116028 3.37456e-15)
(2764.5 0.000123411 5.8597e-15)
(2764.5 0.000131018 6.65586e-15)
(2764.5 0.000138817 5.68203e-15)
(2764.5 0.000146777 5.53076e-15)
(2764.5 0.000154865 4.13122e-15)
(2764.5 0.000163051 6.39419e-15)
(2764.5 0.000171303 5.81986e-15)
(2764.5 0.000179593 4.92614e-15)
(2764.5 0.000187897 6.36601e-15)
(2764.5 0.000196193 6.81376e-15)
(2764.5 0.000204459 5.86818e-15)
(2764.5 0.000212681 5.95058e-15)
(2764.5 0.000220842 3.54726e-15)
(2764.5 0.000228931 5.18476e-15)
(2764.5 0.000236936 6.11624e-15)
(2764.5 0.000244846 4.67536e-15)
(2764.5 0.00025265 4.68053e-15)
(2764.5 0.000260339 4.63705e-15)
(2764.5 0.000267898 4.8944e-15)
(2764.5 0.000275313 5.06402e-15)
(2764.5 0.000282568 4.817e-15)
(2764.5 0.000289643 5.6587e-15)
(2764.5 0.000296514 5.14466e-15)
(2764.5 0.000303155 3.56298e-15)
(2764.5 0.000309533 3.79348e-15)
(2764.5 0.000315614 2.79551e-15)
(2764.5 0.000120984 1.31257e-14)
(2764.5 0.000122189 1.30807e-14)
(2764.5 0.000123923 1.50267e-14)
(2764.5 0.000126159 1.50037e-14)
(2764.5 0.000128853 1.33528e-14)
(2764.5 0.000131941 1.53667e-14)
(2764.5 0.000135344 1.45861e-14)
(2764.5 0.000138982 1.3708e-14)
(2764.5 0.000142785 1.43681e-14)
(2764.5 0.000146688 1.41933e-14)
(2764.5 0.000150632 1.41529e-14)
(2764.5 0.000154568 1.28977e-14)
(2764.5 0.000158464 1.52642e-14)
(2764.5 0.000162306 1.17511e-14)
(2764.5 0.000166099 8.86295e-15)
(2764.5 0.000169864 1.09355e-14)
(2764.5 0.000173636 1.33767e-14)
(2764.5 0.000177457 1.32705e-14)
(2764.5 0.000181377 1.2072e-14)
(2764.5 0.00018545 9.92516e-15)
(2764.5 0.000189724 1.01685e-14)
(2764.5 0.000194248 1.16216e-14)
(2764.5 0.000199069 1.34636e-14)
(2764.5 0.00020423 1.43391e-14)
(2764.5 0.000209775 1.12869e-14)
(2764.5 0.000215746 1.21395e-14)
(2764.5 0.000222183 1.34488e-14)
(2764.5 0.000229126 1.23256e-14)
(2764.5 0.000236616 1.26201e-14)
(2764.5 0.000244689 1.19235e-14)
(2764.5 0.000253386 1.41445e-14)
(2764.5 0.000262744 8.89353e-15)
(2764.5 0.000272804 1.11865e-14)
(2764.5 0.000283604 1.5776e-14)
(2764.5 0.000295182 1.41753e-14)
(2764.5 0.000307574 1.3944e-14)
(2764.5 0.000320814 9.99824e-15)
(2764.5 0.000334933 1.32822e-14)
(2764.5 0.000349957 1.25622e-14)
(2764.5 0.000365903 1.34846e-14)
(2764.5 0.000382787 1.40168e-14)
(2764.5 0.000400613 1.24132e-14)
(2764.5 0.000419377 1.31811e-14)
(2764.5 0.000439069 1.24906e-14)
(2764.5 0.000459667 1.17844e-14)
(2764.5 0.000481142 1.27496e-14)
(2764.5 0.000503454 1.3506e-14)
(2764.5 0.000526559 9.60631e-15)
(2764.5 0.000550403 1.17897e-14)
(2764.5 0.000574928 1.09681e-14)
(2764.5 0.000600069 8.90899e-15)
(2764.5 0.000625758 1.14271e-14)
(2764.5 0.000651926 1.32492e-14)
(2764.5 0.000678499 1.08184e-14)
(2764.5 0.000705404 1.13155e-14)
(2764.5 0.000732567 1.09022e-14)
(2764.5 0.000759914 1.25191e-14)
(2764.5 0.000787374 1.47527e-14)
(2764.5 0.000814875 9.99475e-15)
(2764.5 0.000842347 9.80018e-15)
(2764.5 0.000869722 1.21095e-14)
(2764.5 0.00089693 8.50572e-15)
(2764.5 0.000923902 1.07915e-14)
(2764.5 0.000950569 9.17523e-15)
(2764.5 0.000976861 1.08301e-14)
(2764.5 0.00100271 1.12183e-14)
(2764.5 0.00102803 9.78019e-15)
(2764.5 0.00105275 1.14427e-14)
(2764.5 0.0010768 1.27377e-14)
(2764.5 0.0011001 1.02502e-14)
(2764.5 0.00112257 1.22234e-14)
(2764.5 0.00114414 9.91908e-15)
(2764.5 0.00116472 8.63855e-15)
(2764.5 0.00118425 1.19786e-14)
(2764.5 0.00120266 9.4933e-15)
(2764.5 0.00121989 1.03885e-14)
(2764.5 0.00123589 9.54771e-15)
(2764.5 0.00125062 1.04812e-14)
(2764.5 0.00126408 9.72269e-15)
(2764.5 0.00127625 1.24744e-14)
(2764.5 0.00128716 1.15146e-14)
(2764.5 0.00129686 1.09393e-14)
(2764.5 0.00130543 1.06718e-14)
(2764.5 0.00131297 1.13621e-14)
(2764.5 0.00131961 1.26033e-14)
(2764.5 0.00132555 1.27628e-14)
(2764.5 0.00133096 1.26178e-14)
(2764.5 0.0013361 1.18376e-14)
(2764.5 0.00134122 1.22988e-14)
(2764.5 0.00134663 1.23596e-14)
(2764.5 0.00135264 1.11261e-14)
(2764.5 0.00135959 8.67095e-15)
(2764.5 0.00136784 1.3018e-14)
(2764.5 0.0013778 1.25902e-14)
(2764.5 0.00138984 1.08217e-14)
(2764.5 0.00140439 1.0031e-14)
(2764.5 0.00142187 9.95871e-15)
(2764.5 0.00144275 1.15228e-14)
(2764.5 0.00146747 1.13593e-14)
(2764.5 0.00149652 6.83907e-15)
(2764.5 0.00153041 9.46797e-15)
(2764.5 0.00156965 1.16228e-14)
(2764.5 0.0016148 8.65284e-15)
(2764.5 0.00166641 9.03709e-15)
(2764.5 0.00172506 7.43018e-15)
(2764.5 0.000535554 2.30013e-14)
(2764.5 0.00054407 2.3938e-14)
(2764.5 0.000556753 1.91427e-14)
(2764.5 0.000573606 2.14508e-14)
(2764.5 0.000594467 2.47095e-14)
(2764.5 0.000619198 2.06995e-14)
(2764.5 0.000647714 2.16671e-14)
(2764.5 0.000679981 2.0783e-14)
(2764.5 0.000716003 2.36239e-14)
(2764.5 0.000755783 2.20625e-14)
(2764.5 0.000799275 2.02322e-14)
(2764.5 0.000846375 1.8691e-14)
(2764.5 0.000896906 1.57093e-14)
(2764.5 0.000950621 1.93773e-14)
(2764.5 0.0010072 2.07275e-14)
(2764.5 0.00106628 2.05847e-14)
(2764.5 0.00112747 1.85768e-14)
(2764.5 0.00119039 1.98703e-14)
(2764.5 0.00125469 1.84055e-14)
(2764.5 0.00132005 1.88326e-14)
(2764.5 0.00138618 1.86489e-14)
(2764.5 0.00145284 1.58748e-14)
(2764.5 0.00151983 1.80131e-14)
(2764.5 0.00158698 2.31217e-14)
(2764.5 0.00165415 1.73809e-14)
(2764.5 0.00172122 1.92796e-14)
(2764.5 0.00178806 2.12614e-14)
(2764.5 0.00185456 2.00929e-14)
(2764.5 0.00192063 1.92154e-14)
(2764.5 0.0019862 1.96532e-14)
(2764.5 0.00205119 1.90179e-14)
(2764.5 0.00211557 2.03577e-14)
(2764.5 0.00217928 1.88334e-14)
(2764.5 0.00224228 1.94252e-14)
(2764.5 0.00230454 2.05667e-14)
(2764.5 0.00236601 2.06018e-14)
(2764.5 0.00242662 2.10885e-14)
(2764.5 0.0024863 1.99374e-14)
(2764.5 0.00254499 1.97173e-14)
(2764.5 0.00260258 2.11316e-14)
(2764.5 0.00265898 2.04983e-14)
(2764.5 0.00271411 1.88405e-14)
(2764.5 0.00276787 1.92067e-14)
(2764.5 0.00282017 1.91558e-14)
(2764.5 0.00287097 2.02144e-14)
(2764.5 0.0029202 1.89947e-14)
(2764.5 0.00296788 2.09065e-14)
(2764.5 0.00301402 2.02889e-14)
(2764.5 0.0030587 1.79976e-14)
(2764.5 0.00310202 1.7878e-14)
(2764.5 0.00314415 1.61027e-14)
(2764.5 0.0031853 1.85185e-14)
(2764.5 0.00322573 1.67746e-14)
(2764.5 0.00326578 1.63402e-14)
(2764.5 0.00330583 1.7107e-14)
(2764.5 0.00334631 1.89358e-14)
(2764.5 0.00338773 1.66815e-14)
(2764.5 0.00343063 1.9943e-14)
(2764.5 0.00347563 2.19508e-14)
(2764.5 0.00352338 1.7396e-14)
(2764.5 0.0035746 1.69297e-14)
(2764.5 0.00363005 1.56735e-14)
(2764.5 0.00369054 1.682e-14)
(2764.5 0.00375693 2.03715e-14)
(2764.5 0.00383012 1.55091e-14)
(2764.5 0.00391109 1.61553e-14)
(2764.5 0.00400083 1.65778e-14)
(2764.5 0.0041004 1.63707e-14)
(2764.5 0.00421092 1.67501e-14)
(2764.5 0.00433352 1.78036e-14)
(2764.5 0.00446941 1.61448e-14)
(2764.5 0.00461982 1.83928e-14)
(2764.5 0.004786 1.55755e-14)
(2764.5 0.00496922 1.57469e-14)
(2764.5 0.00517078 1.74479e-14)
(2764.5 0.00539195 1.39238e-14)
(2764.5 0.00563396 1.66149e-14)
(2764.5 0.00589803 1.83096e-14)
(2764.5 0.00618527 1.54172e-14)
(2764.5 0.00649674 1.45152e-14)
(2764.5 0.00683334 1.7753e-14)
(2764.5 0.00719588 1.69651e-14)
(2764.5 0.00758496 1.75025e-14)
(2764.49 0.00800105 1.5587e-14)
(2764.49 0.00844435 1.80504e-14)
(2764.49 0.00891488 1.94132e-14)
(2764.49 0.00941242 1.6045e-14)
(2764.49 0.00993647 1.55273e-14)
(2764.49 0.0104863 1.80931e-14)
(2764.49 0.011061 1.66895e-14)
(2764.49 0.0116594 1.71821e-14)
(2764.49 0.0122801 1.65498e-14)
(2764.49 0.0129216 1.48067e-14)
(2764.49 0.0135822 1.74059e-14)
(2764.49 0.0142603 1.78588e-14)
(2764.49 0.0149541 1.63492e-14)
(2764.49 0.0156617 1.38309e-14)
(2764.49 0.0163815 1.78371e-14)
(2764.49 0.0171116 1.72278e-14)
(2764.49 0.0178506 1.58789e-14)
(2764.49 0.0185966 1.53791e-14)
(2764.49 0.0193482 1.58472e-14)
(2764.49 0.0201039 1.60704e-14)
(2764.49 0.0208623 1.48749e-14)
(2764.49 0.021622 1.48441e-14)
(2764.49 0.0223816 1.52483e-14)
(2764.5 0.00354563 3.04567e-14)
(2764.5 0.00359789 3.37325e-14)
(2764.5 0.00367225 2.87557e-14)
(2764.5 0.00376774 2.91873e-14)
(2764.5 0.00388285 3.01434e-14)
(2764.5 0.0040158 2.79849e-14)
(2764.5 0.00416449 3.08949e-14)
(2764.5 0.00432665 3.10119e-14)
(2764.5 0.00449987 2.77152e-14)
(2764.5 0.00468163 2.67128e-14)
(2764.5 0.00486927 2.96337e-14)
(2764.5 0.00506012 2.88493e-14)
(2764.5 0.00525161 2.79276e-14)
(2764.5 0.00544148 2.72533e-14)
(2764.5 0.0056279 2.83683e-14)
(2764.5 0.00580959 2.6031e-14)
(2764.5 0.00598581 2.60444e-14)
(2764.5 0.00615633 2.73456e-14)
(2764.5 0.00632139 2.67093e-14)
(2764.5 0.00648162 2.72691e-14)
(2764.5 0.00663802 2.60493e-14)
(2764.5 0.00679174 2.90675e-14)
(2764.5 0.00694408 2.94187e-14)
(2764.5 0.00709634 2.80789e-14)
(2764.5 0.00724986 2.67794e-14)
(2764.5 0.00740603 2.68385e-14)
(2764.49 0.00756628 2.95934e-14)
(2764.49 0.00773206 2.71002e-14)
(2764.49 0.00790488 2.37832e-14)
(2764.49 0.00808626 2.69306e-14)
(2764.49 0.00827774 2.63135e-14)
(2764.49 0.00848093 2.70455e-14)
(2764.49 0.00869748 2.57878e-14)
(2764.49 0.0089291 2.77949e-14)
(2764.49 0.00917761 2.75966e-14)
(2764.49 0.00944487 2.67976e-14)
(2764.49 0.00973282 2.84282e-14)
(2764.49 0.0100435 2.5992e-14)
(2764.49 0.0103789 2.63501e-14)
(2764.49 0.0107411 2.41403e-14)
(2764.49 0.0111323 2.61407e-14)
(2764.49 0.0115545 2.86795e-14)
(2764.49 0.0120098 2.53681e-14)
(2764.49 0.0125002 2.65659e-14)
(2764.49 0.0130276 2.79901e-14)
(2764.49 0.0135939 2.55933e-14)
(2764.49 0.0142005 2.50319e-14)
(2764.49 0.0148491 2.54306e-14)
(2764.49 0.0155407 2.96577e-14)
(2764.49 0.0162766 2.54092e-14)
(2764.49 0.0170573 2.22664e-14)
(2764.49 0.0178834 2.34656e-14)
(2764.49 0.0187552 2.42887e-14)
(2764.49 0.0196723 2.63648e-14)
(2764.49 0.0206345 2.2505e-14)
(2764.49 0.0216409 2.26274e-14)
(2764.49 0.0226905 2.56312e-14)
(2764.49 0.023782 2.61574e-14)
(2764.48 0.0249137 2.48873e-14)
(2764.48 0.0260839 2.43232e-14)
(2764.48 0.0272906 2.60182e-14)
(2764.48 0.0285316 2.3305e-14)
(2764.48 0.0298047 2.21265e-14)
(2764.48 0.0311075 2.26106e-14)
(2764.48 0.0324376 2.28236e-14)
(2764.48 0.0337925 2.27785e-14)
(2764.48 0.0351697 2.2352e-14)
(2764.48 0.0365666 2.20785e-14)
(2764.48 0.0379807 2.17955e-14)
(2764.48 0.0394091 2.23007e-14)
(2764.48 0.0408493 2.29889e-14)
(2764.48 0.0422983 2.37045e-14)
(2764.48 0.0437535 2.31314e-14)
(2764.47 0.0452117 2.33656e-14)
(2764.47 0.0466699 2.12358e-14)
(2764.47 0.0481248 2.05331e-14)
(2764.47 0.049573 2.32685e-14)
(2764.47 0.0510109 2.33812e-14)
(2764.47 0.0524348 2.30616e-14)
(2764.47 0.0538408 2.48393e-14)
(2764.47 0.055225 2.44513e-14)
(2764.47 0.0565834 2.21547e-14)
(2764.47 0.0579121 2.08958e-14)
(2764.47 0.0592071 2.12075e-14)
(2764.46 0.0604649 2.35902e-14)
(2764.46 0.0616821 1.96265e-14)
(2764.46 0.0628557 2.12675e-14)
(2764.46 0.0639834 2.50045e-14)
(2764.46 0.0650635 2.41712e-14)
(2764.46 0.0660952 2.10534e-14)
(2764.46 0.0670785 2.23337e-14)
(2764.46 0.0680147 2.23693e-14)
(2764.46 0.0689064 2.24745e-14)
(2764.46 0.0697574 2.40233e-14)
(2764.46 0.070573 2.10821e-14)
(2764.46 0.0713601 1.9981e-14)
(2764.45 0.0721269 2.45976e-14)
(2764.45 0.0728832 2.48715e-14)
(2764.45 0.0736402 2.05537e-14)
(2764.45 0.0744109 2.28621e-14)
(2764.45 0.0752091 2.24368e-14)
(2764.45 0.0760506 2.0708e-14)
(2764.45 0.076952 2.21204e-14)
(2764.45 0.0779316 2.15854e-14)
(2764.45 0.0790085 1.96223e-14)
(2764.45 0.0802033 2.06925e-14)
(2764.49 0.0139496 3.82112e-14)
(2764.49 0.0141219 3.93257e-14)
(2764.49 0.0143737 3.87193e-14)
(2764.49 0.0147045 3.76588e-14)
(2764.49 0.0151136 3.92763e-14)
(2764.49 0.0156015 3.66248e-14)
(2764.49 0.0161689 3.5866e-14)
(2764.49 0.016816 3.91209e-14)
(2764.49 0.0175433 4.00746e-14)
(2764.49 0.0183515 4.03205e-14)
(2764.49 0.0192415 3.70764e-14)
(2764.49 0.0202139 3.63836e-14)
(2764.49 0.0212695 3.7949e-14)
(2764.48 0.0224085 3.5252e-14)
(2764.48 0.0236308 3.42168e-14)
(2764.48 0.0249353 3.86981e-14)
(2764.48 0.02632 3.61153e-14)
(2764.48 0.0277831 3.84856e-14)
(2764.48 0.0293227 3.78797e-14)
(2764.48 0.0309372 3.48257e-14)
(2764.48 0.0326249 3.50882e-14)
(2764.48 0.0343836 3.42294e-14)
(2764.48 0.0362112 3.66956e-14)
(2764.48 0.0381051 3.95972e-14)
(2764.47 0.0400632 3.6432e-14)
(2764.47 0.0420827 3.44035e-14)
(2764.47 0.0441607 3.5561e-14)
(2764.47 0.0462936 3.10279e-14)
(2764.47 0.0484775 3.06069e-14)
(2764.47 0.0507086 3.36535e-14)
(2764.47 0.0529832 3.39965e-14)
(2764.47 0.0552982 3.36068e-14)
(2764.47 0.057651 3.39927e-14)
(2764.46 0.0600393 3.3296e-14)
(2764.46 0.0624614 3.39657e-14)
(2764.46 0.0649157 3.37616e-14)
(2764.46 0.0674008 3.50422e-14)
(2764.46 0.0699151 3.63702e-14)
(2764.46 0.0724568 3.11995e-14)
(2764.46 0.0750239 3.08837e-14)
(2764.45 0.0776138 3.44022e-14)
(2764.45 0.0802235 3.51512e-14)
(2764.45 0.0828496 3.31772e-14)
(2764.45 0.0854881 3.21e-14)
(2764.45 0.0881346 3.4343e-14)
(2764.45 0.0907846 3.45728e-14)
(2764.44 0.0934332 3.38542e-14)
(2764.44 0.0960753 3.37862e-14)
(2764.44 0.0987061 3.14896e-14)
(2764.44 0.101321 3.29395e-14)
(2764.44 0.103915 3.19121e-14)
(2764.44 0.106484 2.94279e-14)
(2764.43 0.109024 2.97121e-14)
(2764.43 0.111533 3.35215e-14)
(2764.43 0.114008 3.3706e-14)
(2764.43 0.116448 3.16927e-14)
(2764.43 0.118853 3.15948e-14)
(2764.42 0.121225 3.25498e-14)
(2764.42 0.123566 3.2035e-14)
(2764.42 0.125882 3.06969e-14)
(2764.42 0.128179 2.99305e-14)
(2764.42 0.130466 3.23639e-14)
(2764.41 0.132754 3.05671e-14)
(2764.41 0.135056 2.9694e-14)
(2764.41 0.137387 3.11529e-14)
(2764.41 0.139765 3.02498e-14)
(2764.41 0.142209 2.73003e-14)
(2764.4 0.144741 2.79012e-14)
(2764.4 0.147386 2.71e-14)
(2764.4 0.150169 2.84985e-14)
(2764.4 0.15312 2.90636e-14)
(2764.4 0.156269 2.83901e-14)
(2764.39 0.15965 3.09263e-14)
(2764.39 0.163296 2.94612e-14)
(2764.39 0.167247 2.73657e-14)
(2764.39 0.171541 2.85701e-14)
(2764.38 0.176222 2.81199e-14)
(2764.38 0.181333 2.88173e-14)
(2764.38 0.186922 2.9248e-14)
(2764.37 0.193037 2.90766e-14)
(2764.37 0.199732 3.04258e-14)
(2764.36 0.207059 2.98872e-14)
(2764.36 0.215074 2.76163e-14)
(2764.35 0.223834 2.60605e-14)
(2764.35 0.233398 2.80784e-14)
(2764.34 0.243825 2.97443e-14)
(2764.33 0.255173 2.83559e-14)
(2764.33 0.267502 2.8113e-14)
(2764.32 0.280867 2.92926e-14)
(2764.31 0.295323 2.7991e-14)
(2764.3 0.310921 2.77571e-14)
(2764.29 0.327706 3.07179e-14)
(2764.28 0.345721 2.79741e-14)
(2764.27 0.365001 2.72429e-14)
(2764.26 0.385571 2.86627e-14)
(2764.25 0.407453 2.68713e-14)
(2764.23 0.430657 2.70304e-14)
(2764.22 0.455185 2.87811e-14)
(2764.21 0.48103 2.65783e-14)
(2764.19 0.508176 2.68522e-14)
(2764.18 0.536598 2.83739e-14)
(2764.17 0.566261 2.51908e-14)
(2764.15 0.597126 2.62951e-14)
(2764.14 0.629147 2.87174e-14)
(2764.12 0.662272 2.73394e-14)
(2764.11 0.696449 2.61069e-14)
(2764.09 0.731621 2.81594e-14)
(2764.45 0.0758204 4.76401e-14)
(2764.45 0.0775721 4.63223e-14)
(2764.45 0.0799234 4.69561e-14)
(2764.45 0.0828416 4.45979e-14)
(2764.45 0.0862922 4.55958e-14)
(2764.44 0.0902453 4.62892e-14)
(2764.44 0.0946726 4.85718e-14)
(2764.44 0.0995439 4.60289e-14)
(2764.43 0.104824 4.73365e-14)
(2764.43 0.11047 4.852e-14)
(2764.43 0.116433 4.45445e-14)
(2764.42 0.122653 4.61295e-14)
(2764.42 0.129066 4.63737e-14)
(2764.41 0.135603 4.44113e-14)
(2764.41 0.142198 4.71588e-14)
(2764.41 0.148792 4.54789e-14)
(2764.4 0.155336 4.20334e-14)
(2764.4 0.161794 4.32666e-14)
(2764.39 0.168141 4.33496e-14)
(2764.39 0.174361 4.32041e-14)
(2764.39 0.180449 4.30021e-14)
(2764.38 0.18641 4.31541e-14)
(2764.38 0.192254 4.55921e-14)
(2764.37 0.197995 4.47643e-14)
(2764.37 0.203648 3.90697e-14)
(2764.37 0.20923 4.00791e-14)
(2764.36 0.214756 4.1045e-14)
(2764.36 0.220245 3.92267e-14)
(2764.35 0.225716 4.16965e-14)
(2764.35 0.231192 4.12423e-14)
(2764.34 0.236699 4.20241e-14)
(2764.34 0.242265 4.18601e-14)
(2764.34 0.247921 4.28678e-14)
(2764.33 0.2537 4.10717e-14)
(2764.33 0.25964 4.31079e-14)
(2764.32 0.26578 4.25889e-14)
(2764.32 0.272165 4.09399e-14)
(2764.31 0.278839 3.9987e-14)
(2764.31 0.285853 3.85172e-14)
(2764.3 0.293257 4.06235e-14)
(2764.3 0.301107 4.02894e-14)
(2764.29 0.30946 3.99363e-14)
(2764.29 0.318378 4.03588e-14)
(2764.28 0.327924 3.86249e-14)
(2764.27 0.338164 4.13143e-14)
(2764.27 0.349168 4.08246e-14)
(2764.26 0.361008 3.94151e-14)
(2764.25 0.373759 3.96969e-14)
(2764.24 0.387496 3.79984e-14)
(2764.23 0.402299 4.05723e-14)
(2764.22 0.418246 3.94896e-14)
(2764.21 0.435417 3.52608e-14)
(2764.2 0.453894 3.77038e-14)
(2764.19 0.473755 4.00257e-14)
(2764.17 0.495078 4.25575e-14)
(2764.16 0.517938 4.18523e-14)
(2764.14 0.542408 4.04071e-14)
(2764.13 0.568551 3.61365e-14)
(2764.11 0.596432 3.51179e-14)
(2764.1 0.626102 3.73644e-14)
(2764.08 0.657608 3.73714e-14)
(2764.06 0.690987 3.60501e-14)
(2764.04 0.726267 3.63087e-14)
(2764.02 0.763465 3.91097e-14)
(2764 0.80259 3.48983e-14)
(2763.98 0.843637 3.39893e-14)
(2763.95 0.886593 4.14645e-14)
(2763.93 0.931436 3.79547e-14)
(2763.91 0.978132 3.22543e-14)
(2763.88 1.02664 3.63898e-14)
(2763.86 1.07691 3.6659e-14)
(2763.83 1.12889 3.34401e-14)
(2763.8 1.18252 3.43116e-14)
(2763.78 1.23773 3.57783e-14)
(2763.75 1.29446 3.54895e-14)
(2763.72 1.35264 3.54193e-14)
(2763.69 1.4122 3.53913e-14)
(2763.66 1.47306 3.62512e-14)
(2763.63 1.53514 3.63064e-14)
(2763.6 1.59837 3.41577e-14)
(2763.56 1.66264 3.24967e-14)
(2763.53 1.72788 3.47672e-14)
(2763.49 1.79397 3.63938e-14)
(2763.46 1.86083 3.55809e-14)
(2763.42 1.92834 3.50329e-14)
(2763.38 1.99639 3.38021e-14)
(2763.34 2.06484 3.38723e-14)
(2763.3 2.13358 3.4549e-14)
(2763.26 2.20245 3.52196e-14)
(2763.21 2.27133 3.43314e-14)
(2763.17 2.34005 3.51604e-14)
(2763.12 2.40847 3.3448e-14)
(2763.07 2.47644 3.31261e-14)
(2763.03 2.54382 3.5277e-14)
(2762.98 2.61047 3.53369e-14)
(2762.93 2.67626 3.31766e-14)
(2762.88 2.74108 3.22484e-14)
(2762.83 2.80486 3.46316e-14)
(2762.78 2.86753 3.24683e-14)
(2762.73 2.92906 3.18159e-14)
(2762.68 2.98948 3.4989e-14)
(2762.63 3.04884 3.37537e-14)
(2762.58 3.10726 3.5307e-14)
(2762.54 3.16489 3.39354e-14)
(2762.49 3.22198 3.19968e-14)
(2762.44 3.2788 3.09037e-14)
(2762.39 3.33572 3.43913e-14)
(2764.3 0.328354 5.48015e-14)
(2764.3 0.329748 5.5188e-14)
(2764.29 0.332494 5.58925e-14)
(2764.29 0.336894 5.21045e-14)
(2764.28 0.342979 5.23202e-14)
(2764.27 0.350729 5.24872e-14)
(2764.26 0.360119 5.27287e-14)
(2764.25 0.371126 5.5971e-14)
(2764.24 0.38372 5.41873e-14)
(2764.23 0.397854 5.5034e-14)
(2764.22 0.413465 5.11294e-14)
(2764.2 0.430491 5.17657e-14)
(2764.19 0.448884 5.6433e-14)
(2764.17 0.468609 5.33346e-14)
(2764.16 0.489642 5.16154e-14)
(2764.14 0.511978 5.18017e-14)
(2764.13 0.535638 5.14376e-14)
(2764.11 0.560655 5.232e-14)
(2764.09 0.587072 5.16254e-14)
(2764.08 0.614939 5.13066e-14)
(2764.06 0.644324 4.9982e-14)
(2764.04 0.67532 5.04366e-14)
(2764.02 0.708049 5.01756e-14)
(2764 0.742634 4.8614e-14)
(2763.97 0.779192 4.82753e-14)
(2763.95 0.817824 5.11888e-14)
(2763.93 0.858623 5.12056e-14)
(2763.9 0.901677 5.00748e-14)
(2763.87 0.947065 5.09341e-14)
(2763.84 0.994843 5.01684e-14)
(2763.81 1.04504 4.9066e-14)
(2763.78 1.09767 4.81457e-14)
(2763.75 1.15271 5.03262e-14)
(2763.72 1.21017 5.262e-14)
(2763.69 1.27001 5.09619e-14)
(2763.65 1.33224 4.89306e-14)
(2763.62 1.39684 4.58479e-14)
(2763.58 1.46381 4.73777e-14)
(2763.54 1.53316 4.7716e-14)
(2763.5 1.6049 4.76864e-14)
(2763.46 1.67903 4.79929e-14)
(2763.42 1.75555 4.83932e-14)
(2763.38 1.83446 4.63873e-14)
(2763.34 1.91574 4.61591e-14)
(2763.29 1.99936 4.81108e-14)
(2763.25 2.08529 4.8409e-14)
(2763.2 2.17347 4.71079e-14)
(2763.15 2.26383 4.78347e-14)
(2763.1 2.35628 4.91878e-14)
(2763.05 2.45075 4.88652e-14)
(2762.99 2.54713 4.66118e-14)
(2762.94 2.6453 4.57721e-14)
(2762.88 2.74515 4.65424e-14)
(2762.82 2.84655 4.59599e-14)
(2762.76 2.94938 4.93195e-14)
(2762.7 3.05349 4.47991e-14)
(2762.63 3.15873 4.16719e-14)
(2762.57 3.26497 4.76505e-14)
(2762.5 3.37206 4.73261e-14)
(2762.43 3.47983 4.41781e-14)
(2762.36 3.58815 4.38123e-14)
(2762.29 3.69688 4.63351e-14)
(2762.21 3.80588 4.30676e-14)
(2762.13 3.91505 4.33314e-14)
(2762.06 4.02429 4.4169e-14)
(2761.98 4.13352 4.12664e-14)
(2761.9 4.24272 4.78581e-14)
(2761.82 4.35189 4.5262e-14)
(2761.73 4.46107 4.36688e-14)
(2761.65 4.57037 4.60868e-14)
(2761.56 4.67993 4.38507e-14)
(2761.48 4.78996 4.30471e-14)
(2761.39 4.90076 4.14244e-14)
(2761.31 5.01268 4.18065e-14)
(2761.22 5.12615 4.35387e-14)
(2761.13 5.2417 4.22754e-14)
(2761.04 5.35993 4.23009e-14)
(2760.95 5.48152 4.30824e-14)
(2760.86 5.60725 4.09233e-14)
(2760.76 5.73798 4.15182e-14)
(2760.66 5.87465 4.0834e-14)
(2760.56 6.01829 4.12259e-14)
(2760.46 6.17 4.03673e-14)
(2760.35 6.33098 3.86258e-14)
(2760.23 6.5025 4.1243e-14)
(2760.11 6.68591 4.06812e-14)
(2759.98 6.88265 4.14968e-14)
(2759.85 7.09423 4.10677e-14)
(2759.7 7.32224 3.88347e-14)
(2759.55 7.56834 3.83187e-14)
(2759.38 7.83427 3.84843e-14)
(2759.2 8.12183 4.01473e-14)
(2759.01 8.43288 4.10258e-14)
(2758.8 8.76936 3.7564e-14)
(2758.58 9.13323 3.80836e-14)
(2758.34 9.52652 4.2651e-14)
(2758.08 9.95128 3.98031e-14)
(2757.81 10.4095 4.22429e-14)
(2757.51 10.9034 4.09287e-14)
(2757.19 11.4348 3.887e-14)
(2756.85 12.0059 3.92089e-14)
(2756.49 12.6186 3.82715e-14)
(2756.11 13.2749 4.10646e-14)
(2755.7 13.9763 3.89316e-14)
(2755.28 14.7247 4.12294e-14)
(2754.82 15.5214 4.14222e-14)
(2754.35 16.368 3.9794e-14)
(2753.85 17.2655 3.97136e-14)
(2753.34 18.215 3.62084e-14)
(2752.8 19.2172 3.93903e-14)
(2763.64 1.39851 6.1173e-14)
(2763.62 1.41587 6.22293e-14)
(2763.59 1.44462 6.30202e-14)
(2763.55 1.48557 5.95665e-14)
(2763.51 1.53857 6.18246e-14)
(2763.46 1.60338 6.27167e-14)
(2763.4 1.67977 6.28002e-14)
(2763.34 1.7676 6.01211e-14)
(2763.27 1.86681 6.20908e-14)
(2763.19 1.97734 6.28064e-14)
(2763.11 2.09903 5.96192e-14)
(2763.03 2.23155 6.22877e-14)
(2762.94 2.37436 6.36785e-14)
(2762.85 2.52666 6.14113e-14)
(2762.76 2.68745 5.72939e-14)
(2762.66 2.85549 5.81461e-14)
(2762.56 3.0294 6.31837e-14)
(2762.46 3.20776 6.23605e-14)
(2762.35 3.38925 6.1242e-14)
(2762.25 3.57275 5.7309e-14)
(2762.15 3.75739 5.84345e-14)
(2762.04 3.94258 5.82551e-14)
(2761.93 4.12791 5.97031e-14)
(2761.82 4.31314 6.19514e-14)
(2761.71 4.49817 5.89857e-14)
(2761.6 4.68304 5.7966e-14)
(2761.49 4.86789 6.03136e-14)
(2761.37 5.05284 6.1615e-14)
(2761.25 5.23791 5.93519e-14)
(2761.13 5.42308 5.44912e-14)
(2761 5.6083 5.27983e-14)
(2760.88 5.79353 5.83391e-14)
(2760.75 5.97878 5.87039e-14)
(2760.62 6.16409 5.41136e-14)
(2760.49 6.34963 5.40476e-14)
(2760.36 6.5356 5.66662e-14)
(2760.23 6.72233 5.54265e-14)
(2760.09 6.91024 5.56158e-14)
(2759.95 7.09981 5.45134e-14)
(2759.81 7.29165 5.68939e-14)
(2759.67 7.48643 5.63068e-14)
(2759.52 7.68492 5.53446e-14)
(2759.38 7.88794 5.41511e-14)
(2759.22 8.09641 5.56612e-14)
(2759.07 8.31131 5.48662e-14)
(2758.91 8.53372 5.43564e-14)
(2758.74 8.76482 5.6189e-14)
(2758.57 9.00583 5.66993e-14)
(2758.4 9.25812 5.33418e-14)
(2758.22 9.52311 5.39601e-14)
(2758.02 9.80232 5.30731e-14)
(2757.83 10.0974 5.49213e-14)
(2757.62 10.41 5.17793e-14)
(2757.4 10.7421 5.40104e-14)
(2757.17 11.0953 5.51718e-14)
(2756.92 11.4719 5.1063e-14)
(2756.66 11.8737 5.34677e-14)
(2756.39 12.303 5.12627e-14)
(2756.1 12.7619 5.34621e-14)
(2755.79 13.2528 5.50738e-14)
(2755.46 13.7779 5.22326e-14)
(2755.12 14.3395 5.36145e-14)
(2754.74 14.9401 5.22634e-14)
(2754.35 15.5821 5.14704e-14)
(2753.93 16.2678 4.8121e-14)
(2753.49 16.9996 5.12347e-14)
(2753.02 17.7799 5.45792e-14)
(2752.52 18.6108 4.82181e-14)
(2752 19.4945 5.14339e-14)
(2751.45 20.433 5.45826e-14)
(2750.87 21.4284 5.07074e-14)
(2750.26 22.4823 4.95231e-14)
(2749.62 23.5963 4.91939e-14)
(2748.95 24.7718 5.27902e-14)
(2748.26 26.01 5.02154e-14)
(2747.53 27.3119 4.82835e-14)
(2746.78 28.6783 5.06339e-14)
(2746 30.1097 4.95443e-14)
(2745.2 31.6065 4.82665e-14)
(2744.36 33.169 4.7852e-14)
(2743.5 34.797 4.68923e-14)
(2742.61 36.4903 4.64141e-14)
(2741.7 38.2484 4.86089e-14)
(2740.76 40.0708 4.7251e-14)
(2739.79 41.9566 4.82715e-14)
(2738.8 43.9049 4.96547e-14)
(2737.77 45.9145 4.92657e-14)
(2736.72 47.9842 4.40842e-14)
(2735.65 50.1124 4.53351e-14)
(2734.55 52.2973 4.5385e-14)
(2733.41 54.5371 4.78683e-14)
(2732.26 56.8295 4.57839e-14)
(2731.07 59.1722 4.93431e-14)
(2729.86 61.5622 4.69257e-14)
(2728.62 63.9965 4.72974e-14)
(2727.36 66.4718 4.73207e-14)
(2726.07 68.9843 4.793e-14)
(2724.76 71.53 4.86143e-14)
(2723.42 74.1044 4.48265e-14)
(2722.06 76.7029 4.80628e-14)
(2720.68 79.3206 4.89201e-14)
(2719.28 81.9524 4.76139e-14)
(2717.85 84.5932 4.69835e-14)
(2716.4 87.2376 4.5412e-14)
(2714.94 89.8806 4.71657e-14)
(2713.45 92.5174 4.58661e-14)
(2711.93 95.1437 4.57535e-14)
(2710.4 97.7557 4.55781e-14)
(2708.83 100.35 4.59957e-14)
(2707.24 102.926 4.31692e-14)
(2760.48 6.87294 7.36217e-14)
(2760.36 6.9552 7.21509e-14)
(2760.22 7.07794 7.08272e-14)
(2760.04 7.24098 7.12178e-14)
(2759.85 7.44244 7.36077e-14)
(2759.63 7.68033 7.08981e-14)
(2759.39 7.95292 6.91493e-14)
(2759.13 8.25878 7.10774e-14)
(2758.85 8.59636 7.35996e-14)
(2758.56 8.9637 7.23336e-14)
(2758.25 9.35843 7.19943e-14)
(2757.92 9.77797 6.94133e-14)
(2757.58 10.2197 7.11209e-14)
(2757.24 10.6812 6.91698e-14)
(2756.89 11.1601 6.93373e-14)
(2756.54 11.6546 7.04051e-14)
(2756.18 12.1638 7.03185e-14)
(2755.82 12.6873 7.03752e-14)
(2755.46 13.2253 6.89786e-14)
(2755.1 13.7787 6.8317e-14)
(2754.73 14.3492 7.25915e-14)
(2754.35 14.9394 6.83226e-14)
(2753.96 15.5525 6.88501e-14)
(2753.56 16.1923 6.87025e-14)
(2753.14 16.8626 6.86347e-14)
(2752.7 17.5668 6.83625e-14)
(2752.23 18.3081 6.60462e-14)
(2751.75 19.0898 6.4672e-14)
(2751.24 19.9148 6.97423e-14)
(2750.7 20.786 6.36193e-14)
(2750.14 21.7055 6.33646e-14)
(2749.55 22.6751 6.39269e-14)
(2748.94 23.6962 6.46895e-14)
(2748.29 24.7703 6.7059e-14)
(2747.62 25.8986 6.47076e-14)
(2746.92 27.0827 6.48617e-14)
(2746.19 28.3241 6.43071e-14)
(2745.42 29.6248 6.45063e-14)
(2744.63 30.9867 6.33727e-14)
(2743.8 32.4119 6.43035e-14)
(2742.94 33.9024 6.61675e-14)
(2742.04 35.4605 6.53798e-14)
(2741.11 37.088 6.49388e-14)
(2740.15 38.7868 6.33481e-14)
(2739.15 40.5585 5.99679e-14)
(2738.12 42.4042 6.25187e-14)
(2737.05 44.3248 6.43841e-14)
(2735.94 46.3208 6.14369e-14)
(2734.8 48.3924 5.93662e-14)
(2733.63 50.5393 6.31896e-14)
(2732.42 52.761 6.46342e-14)
(2731.17 55.0568 6.55926e-14)
(2729.89 57.4255 6.12656e-14)
(2728.57 59.8658 6.17036e-14)
(2727.22 62.3759 6.34861e-14)
(2725.84 64.954 6.35362e-14)
(2724.42 67.5979 6.08833e-14)
(2722.97 70.305 6.12354e-14)
(2721.49 73.0727 6.01104e-14)
(2719.98 75.8978 6.59261e-14)
(2718.44 78.7771 6.27949e-14)
(2716.86 81.7071 5.97599e-14)
(2715.26 84.684 6.16083e-14)
(2713.63 87.7039 6.0745e-14)
(2711.98 90.7623 5.87687e-14)
(2710.29 93.8552 6.0558e-14)
(2708.59 96.9781 6.02425e-14)
(2706.85 100.127 5.94145e-14)
(2705.09 103.297 6.03279e-14)
(2703.3 106.485 5.79856e-14)
(2701.49 109.686 5.90751e-14)
(2699.65 112.898 6.102e-14)
(2697.77 116.118 5.83697e-14)
(2695.87 119.344 6.27523e-14)
(2693.92 122.576 5.63659e-14)
(2691.93 125.813 5.37708e-14)
(2689.9 129.057 5.8355e-14)
(2687.81 132.311 5.61451e-14)
(2685.67 135.58 5.4649e-14)
(2683.47 138.869 5.80302e-14)