/*--------------------------------*- C++ -*----------------------------------*\
| =========                 |                                                 |
| \\      /  F ield         | OpenFOAM: The Open Source CFD Toolbox           |
|  \\    /   O peration     | Version:  v1706                                 |
|   \\  /    A nd           | Web:      www.OpenFOAM.com                      |
|    \\/     M anipulation  |                                                 |
\*---------------------------------------------------------------------------*/
FoamFile
{
    version     2.0;
    format      ascii;
    class       volScalarField;
    location    "3e-06";
    object      wallHeatFlux;
}
// * * * * * * * * * * * * * * * * * * * * * * * * * * * * * * * * * * * * * //

dimensions      [1 0 -3 0 0 0 0];


internalField   uniform 0;

boundaryField
{
    cone
    {
        type            calculated;
        value           nonuniform List<scalar> 
181
(
-4263.76
-4263.1
-4262.46
-4261.88
-4261.36
-4260.9
-4260.48
-4260.1
-4259.76
-4259.44
-4259.14
-4258.85
-4258.57
-4258.29
-4258.02
-4257.75
-4257.48
-4257.21
-4256.94
-4256.67
-4256.4
-4256.13
-4255.87
-4255.6
-4255.34
-4255.07
-4254.81
-4254.54
-4254.28
-4254.02
-4253.76
-4253.49
-4253.23
-4252.97
-4252.71
-4252.45
-4252.19
-4251.92
-4251.66
-4251.4
-4251.14
-4250.88
-4250.62
-4250.36
-4250.1
-4249.84
-4249.59
-4249.33
-4249.07
-4248.81
-4248.55
-4248.29
-4248.04
-4247.78
-4247.52
-4247.26
-4247.01
-4246.75
-4246.49
-4246.24
-4245.98
-4245.73
-4245.47
-4245.22
-4244.96
-4244.7
-4244.45
-4244.19
-4243.94
-4243.69
-4243.43
-4243.18
-4242.92
-4242.67
-4242.42
-4242.16
-4241.91
-4241.66
-4241.41
-4241.15
-4240.9
-4240.65
-4240.4
-4240.14
-4239.89
-4239.64
-4239.39
-4239.14
-4238.89
-4238.64
-4238.39
-4238.14
-4237.89
-4237.64
-4237.39
-4237.14
-4236.89
-4236.64
-4236.39
-4236.14
-4235.89
-4235.64
-4235.39
-4235.14
-4234.89
-4234.65
-4234.4
-4234.15
-4233.9
-4233.65
-4233.41
-4233.16
-4232.91
-4232.66
-4232.42
-4232.17
-4231.92
-4231.68
-4231.43
-4231.18
-4230.94
-4230.69
-4230.45
-4230.2
-4229.96
-4229.71
-4229.46
-4229.22
-4228.97
-4228.73
-4228.48
-4228.24
-4227.99
-4227.75
-4227.51
-4227.26
-4227.02
-4226.77
-4226.53
-4226.28
-4226.04
-4225.8
-4225.55
-4225.31
-4225.07
-4224.82
-4224.58
-4224.34
-4224.09
-4223.85
-4223.61
-4223.37
-4223.12
-4222.88
-4222.64
-4222.4
-4222.16
-4221.92
-4221.68
-4221.44
-4221.21
-4220.99
-4220.77
-4220.57
-4220.36
-4220.16
-4219.95
-4219.74
-4219.53
-4219.34
-4219.17
-4219.01
-4218.85
-4218.7
-4218.57
-4218.46
-4218.39
-4218.37
-4218.37
-4218.3
-4218.01
)
;
    }
    inlet
    {
        type            calculated;
        value           uniform 0;
    }
    rWedge
    {
        type            wedge;
    }
    lWedge
    {
        type            wedge;
    }
    outlet
    {
        type            calculated;
        value           nonuniform 0();
    }
    procBoundary1to0
    {
        type            processor;
        value           uniform 0;
    }
    procBoundary1to2
    {
        type            processor;
        value           uniform 0;
    }
}


// ************************************************************************* //
