/*--------------------------------*- C++ -*----------------------------------*\
| =========                 |                                                 |
| \\      /  F ield         | OpenFOAM: The Open Source CFD Toolbox           |
|  \\    /   O peration     | Version:  v1706                                 |
|   \\  /    A nd           | Web:      www.OpenFOAM.com                      |
|    \\/     M anipulation  |                                                 |
\*---------------------------------------------------------------------------*/
FoamFile
{
    version     2.0;
    format      ascii;
    class       volScalarField;
    location    "5e-06";
    object      alpha;
}
// * * * * * * * * * * * * * * * * * * * * * * * * * * * * * * * * * * * * * //

dimensions      [1 -1 -1 0 0 0 0];


internalField   nonuniform List<scalar> 
29871
(
1.40478e-05
1.40478e-05
1.40478e-05
1.40478e-05
1.40478e-05
1.40478e-05
1.40478e-05
1.40478e-05
1.40478e-05
1.40478e-05
1.40478e-05
1.40478e-05
1.40478e-05
1.40478e-05
1.40478e-05
1.40478e-05
1.40478e-05
1.40478e-05
1.40478e-05
1.40478e-05
1.40478e-05
1.40478e-05
1.40478e-05
1.40478e-05
1.40478e-05
1.40478e-05
1.40478e-05
1.40478e-05
1.40478e-05
1.40478e-05
1.40478e-05
1.40478e-05
1.40478e-05
1.40478e-05
1.40478e-05
1.40478e-05
1.40478e-05
1.40478e-05
1.40478e-05
1.40478e-05
1.40478e-05
1.40478e-05
1.40478e-05
1.40478e-05
1.40478e-05
1.40478e-05
1.40478e-05
1.40478e-05
1.40478e-05
1.40478e-05
1.40478e-05
1.40478e-05
1.40478e-05
1.40478e-05
1.40478e-05
1.40478e-05
1.40478e-05
1.40478e-05
1.40478e-05
1.40478e-05
1.40478e-05
1.40478e-05
1.40478e-05
1.40478e-05
1.40478e-05
1.40478e-05
1.40478e-05
1.40478e-05
1.40478e-05
1.40478e-05
1.40478e-05
1.40478e-05
1.40478e-05
1.40478e-05
1.40478e-05
1.40478e-05
1.40478e-05
1.40478e-05
1.40478e-05
1.40478e-05
1.40478e-05
1.40478e-05
1.40478e-05
1.40478e-05
1.40478e-05
1.40478e-05
1.40478e-05
1.40478e-05
1.40478e-05
1.40478e-05
1.40478e-05
1.40478e-05
1.40478e-05
1.40478e-05
1.40478e-05
1.40478e-05
1.40478e-05
1.40478e-05
1.40478e-05
1.40478e-05
1.40478e-05
1.40478e-05
1.40478e-05
1.40478e-05
1.40478e-05
1.40478e-05
1.40478e-05
1.40478e-05
1.40478e-05
1.40478e-05
1.40478e-05
1.40478e-05
1.40478e-05
1.40478e-05
1.40478e-05
1.40478e-05
1.40478e-05
1.40478e-05
1.40478e-05
1.40478e-05
1.40478e-05
1.40478e-05
1.40478e-05
1.40478e-05
1.40478e-05
1.40478e-05
1.40478e-05
1.40478e-05
1.40478e-05
1.40478e-05
1.40478e-05
1.40478e-05
1.40478e-05
1.40478e-05
1.40478e-05
1.40478e-05
1.40478e-05
1.40478e-05
1.40478e-05
1.40478e-05
1.40478e-05
1.40478e-05
1.40478e-05
1.40478e-05
1.40478e-05
1.40478e-05
1.40478e-05
1.40478e-05
1.40478e-05
1.40478e-05
1.40478e-05
1.40478e-05
1.40478e-05
1.40478e-05
1.40478e-05
1.40478e-05
1.40478e-05
1.40478e-05
1.40478e-05
1.40478e-05
1.40478e-05
1.40478e-05
1.40478e-05
1.40478e-05
1.40478e-05
1.40478e-05
1.40478e-05
1.40478e-05
1.40478e-05
1.40478e-05
1.40478e-05
1.40478e-05
1.40478e-05
1.40478e-05
1.40478e-05
1.40478e-05
1.40478e-05
1.40478e-05
1.40478e-05
1.40478e-05
1.40478e-05
1.40478e-05
1.40478e-05
1.40478e-05
1.40478e-05
1.40478e-05
1.40478e-05
1.40478e-05
1.40478e-05
1.40478e-05
1.40478e-05
1.40478e-05
1.40478e-05
1.40478e-05
1.40478e-05
1.40478e-05
1.40478e-05
1.40478e-05
1.40478e-05
1.40478e-05
1.40478e-05
1.40478e-05
1.40478e-05
1.40478e-05
1.40478e-05
1.40478e-05
1.40478e-05
1.40478e-05
1.40478e-05
1.40478e-05
1.40478e-05
1.40478e-05
1.40478e-05
1.40478e-05
1.40478e-05
1.40478e-05
1.40478e-05
1.40478e-05
1.40478e-05
1.40478e-05
1.40478e-05
1.40478e-05
1.40478e-05
1.40478e-05
1.40478e-05
1.40478e-05
1.40478e-05
1.40478e-05
1.40478e-05
1.40478e-05
1.40478e-05
1.40478e-05
1.40478e-05
1.40478e-05
1.40478e-05
1.40478e-05
1.40478e-05
1.40478e-05
1.40478e-05
1.40478e-05
1.40478e-05
1.40478e-05
1.40478e-05
1.40478e-05
1.40478e-05
1.40478e-05
1.40478e-05
1.40478e-05
1.40478e-05
1.40478e-05
1.40478e-05
1.40478e-05
1.40478e-05
1.40478e-05
1.40478e-05
1.40478e-05
1.40478e-05
1.40478e-05
1.40478e-05
1.40478e-05
1.40478e-05
1.40478e-05
1.40478e-05
1.40478e-05
1.40478e-05
1.40478e-05
1.40478e-05
1.40478e-05
1.40478e-05
1.40478e-05
1.40478e-05
1.40478e-05
1.40478e-05
1.40478e-05
1.40478e-05
1.40478e-05
1.40478e-05
1.40478e-05
1.40478e-05
1.40478e-05
1.40478e-05
1.40478e-05
1.40478e-05
1.40478e-05
1.40478e-05
1.40478e-05
1.40478e-05
1.40478e-05
1.40478e-05
1.40478e-05
1.40478e-05
1.40478e-05
1.40478e-05
1.40478e-05
1.40478e-05
1.40478e-05
1.40478e-05
1.40478e-05
1.40478e-05
1.40478e-05
1.40478e-05
1.40478e-05
1.40478e-05
1.40478e-05
1.40478e-05
1.40478e-05
1.40478e-05
1.40478e-05
1.40478e-05
1.40478e-05
1.40478e-05
1.40478e-05
1.40478e-05
1.40478e-05
1.40478e-05
1.40478e-05
1.40478e-05
1.40478e-05
1.40478e-05
1.40478e-05
1.40478e-05
1.40478e-05
1.40478e-05
1.40478e-05
1.40478e-05
1.40478e-05
1.40478e-05
1.40478e-05
1.40478e-05
1.40478e-05
1.40478e-05
1.40478e-05
1.40478e-05
1.40478e-05
1.40478e-05
1.40478e-05
1.40478e-05
1.40478e-05
1.40478e-05
1.40478e-05
1.40478e-05
1.40478e-05
1.40478e-05
1.40478e-05
1.40478e-05
1.40478e-05
1.40478e-05
1.40478e-05
1.40478e-05
1.40478e-05
1.40478e-05
1.40478e-05
1.40478e-05
1.40478e-05
1.40478e-05
1.40478e-05
1.40478e-05
1.40478e-05
1.40478e-05
1.40478e-05
1.40478e-05
1.40478e-05
1.40478e-05
1.40478e-05
1.40478e-05
1.40478e-05
1.40478e-05
1.40478e-05
1.40478e-05
1.40478e-05
1.40478e-05
1.40478e-05
1.40478e-05
1.40478e-05
1.40478e-05
1.40478e-05
1.40478e-05
1.40478e-05
1.40478e-05
1.40478e-05
1.40478e-05
1.40478e-05
1.40478e-05
1.40478e-05
1.40478e-05
1.40478e-05
1.40478e-05
1.40478e-05
1.40478e-05
1.40478e-05
1.40478e-05
1.40478e-05
1.40478e-05
1.40478e-05
1.40478e-05
1.40478e-05
1.40478e-05
1.40478e-05
1.40478e-05
1.40478e-05
1.40478e-05
1.40478e-05
1.40478e-05
1.40478e-05
1.40478e-05
1.40478e-05
1.40478e-05
1.40478e-05
1.40478e-05
1.40478e-05
1.40478e-05
1.40478e-05
1.40478e-05
1.40478e-05
1.40478e-05
1.40478e-05
1.40478e-05
1.40478e-05
1.40478e-05
1.40478e-05
1.40478e-05
1.40478e-05
1.40478e-05
1.40478e-05
1.40478e-05
1.40478e-05
1.40478e-05
1.40478e-05
1.40478e-05
1.40478e-05
1.40478e-05
1.40478e-05
1.40478e-05
1.40478e-05
1.40478e-05
1.40478e-05
1.40478e-05
1.40478e-05
1.40478e-05
1.40478e-05
1.40478e-05
1.40478e-05
1.40478e-05
1.40478e-05
1.40478e-05
1.40478e-05
1.40478e-05
1.40478e-05
1.40478e-05
1.40478e-05
1.40478e-05
1.40478e-05
1.40478e-05
1.40478e-05
1.40478e-05
1.40478e-05
1.40478e-05
1.40478e-05
1.40478e-05
1.40478e-05
1.40478e-05
1.40478e-05
1.40478e-05
1.40478e-05
1.40478e-05
1.40478e-05
1.40478e-05
1.40478e-05
1.40478e-05
1.40478e-05
1.40478e-05
1.40478e-05
1.40478e-05
1.40478e-05
1.40478e-05
1.40478e-05
1.40478e-05
1.40478e-05
1.40478e-05
1.40478e-05
1.40478e-05
1.40478e-05
1.40478e-05
1.40478e-05
1.40478e-05
1.40478e-05
1.40478e-05
1.40478e-05
1.40478e-05
1.40478e-05
1.40478e-05
1.40478e-05
1.40478e-05
1.40478e-05
1.40478e-05
1.40478e-05
1.40478e-05
1.40478e-05
1.40478e-05
1.40478e-05
1.40478e-05
1.40478e-05
1.40478e-05
1.40478e-05
1.40478e-05
1.40478e-05
1.40478e-05
1.40478e-05
1.40478e-05
1.40478e-05
1.40478e-05
1.40478e-05
1.40478e-05
1.40478e-05
1.40478e-05
1.40478e-05
1.40478e-05
1.40478e-05
1.40478e-05
1.40478e-05
1.40478e-05
1.40478e-05
1.40478e-05
1.40478e-05
1.40478e-05
1.40478e-05
1.40478e-05
1.40478e-05
1.40478e-05
1.40478e-05
1.40478e-05
1.40478e-05
1.40478e-05
1.40478e-05
1.40478e-05
1.40478e-05
1.40478e-05
1.40478e-05
1.40478e-05
1.40478e-05
1.40478e-05
1.40478e-05
1.40478e-05
1.40478e-05
1.40478e-05
1.40478e-05
1.40478e-05
1.40478e-05
1.40478e-05
1.40478e-05
1.40478e-05
1.40478e-05
1.40478e-05
1.40478e-05
1.40478e-05
1.40478e-05
1.40478e-05
1.40478e-05
1.40478e-05
1.40478e-05
1.40478e-05
1.40478e-05
1.40478e-05
1.40478e-05
1.40478e-05
1.40478e-05
1.40478e-05
1.40478e-05
1.40478e-05
1.40478e-05
1.40478e-05
1.40478e-05
1.40478e-05
1.40478e-05
1.40478e-05
1.40478e-05
1.40478e-05
1.40478e-05
1.40478e-05
1.40478e-05
1.40478e-05
1.40478e-05
1.40478e-05
1.40478e-05
1.40478e-05
1.40478e-05
1.40478e-05
1.40478e-05
1.40478e-05
1.40478e-05
1.40478e-05
1.40478e-05
1.40478e-05
1.40478e-05
1.40478e-05
1.40478e-05
1.40478e-05
1.40478e-05
1.40478e-05
1.40478e-05
1.40478e-05
1.40478e-05
1.40478e-05
1.40478e-05
1.40478e-05
1.40478e-05
1.40478e-05
1.40478e-05
1.40478e-05
1.40478e-05
1.40478e-05
1.40478e-05
1.40478e-05
1.40478e-05
1.40478e-05
1.40478e-05
1.40478e-05
1.40478e-05
1.40478e-05
1.40478e-05
1.40478e-05
1.40478e-05
1.40478e-05
1.40478e-05
1.40478e-05
1.40478e-05
1.40478e-05
1.40478e-05
1.40478e-05
1.40478e-05
1.40478e-05
1.40478e-05
1.40478e-05
1.40478e-05
1.40478e-05
1.40478e-05
1.40478e-05
1.40478e-05
1.40478e-05
1.40478e-05
1.40478e-05
1.40478e-05
1.40478e-05
1.40478e-05
1.40478e-05
1.40478e-05
1.40478e-05
1.40478e-05
1.40478e-05
1.40478e-05
1.40478e-05
1.40478e-05
1.40478e-05
1.40478e-05
1.40478e-05
1.40478e-05
1.40478e-05
1.40478e-05
1.40478e-05
1.40478e-05
1.40478e-05
1.40478e-05
1.40478e-05
1.40478e-05
1.40478e-05
1.40478e-05
1.40478e-05
1.40478e-05
1.40478e-05
1.40478e-05
1.40478e-05
1.40478e-05
1.40478e-05
1.40478e-05
1.40478e-05
1.40478e-05
1.40478e-05
1.40478e-05
1.40478e-05
1.40478e-05
1.40478e-05
1.40478e-05
1.40478e-05
1.40478e-05
1.40478e-05
1.40478e-05
1.40478e-05
1.40478e-05
1.40478e-05
1.40478e-05
1.40478e-05
1.40478e-05
1.40478e-05
1.40478e-05
1.40478e-05
1.40478e-05
1.40478e-05
1.40478e-05
1.40478e-05
1.40478e-05
1.40478e-05
1.40478e-05
1.40478e-05
1.40478e-05
1.40478e-05
1.40478e-05
1.40478e-05
1.40478e-05
1.40478e-05
1.40478e-05
1.40478e-05
1.40478e-05
1.40478e-05
1.40478e-05
1.40478e-05
1.40478e-05
1.40478e-05
1.40478e-05
1.40478e-05
1.40478e-05
1.40478e-05
1.40478e-05
1.40478e-05
1.40478e-05
1.40478e-05
1.40478e-05
1.40478e-05
1.40478e-05
1.40478e-05
1.40478e-05
1.40478e-05
1.40478e-05
1.40478e-05
1.40478e-05
1.40478e-05
1.40478e-05
1.40478e-05
1.40478e-05
1.40478e-05
1.40478e-05
1.40478e-05
1.40478e-05
1.40478e-05
1.40478e-05
1.40478e-05
1.40478e-05
1.40478e-05
1.40478e-05
1.40478e-05
1.40478e-05
1.40478e-05
1.40478e-05
1.40478e-05
1.40478e-05
1.40478e-05
1.40478e-05
1.40478e-05
1.40478e-05
1.40478e-05
1.40478e-05
1.40478e-05
1.40478e-05
1.40478e-05
1.40478e-05
1.40478e-05
1.40478e-05
1.40478e-05
1.40478e-05
1.40478e-05
1.40478e-05
1.40478e-05
1.40478e-05
1.40478e-05
1.40478e-05
1.40478e-05
1.40478e-05
1.40478e-05
1.40478e-05
1.40478e-05
1.40478e-05
1.40478e-05
1.40478e-05
1.40478e-05
1.40478e-05
1.40478e-05
1.40478e-05
1.40478e-05
1.40478e-05
1.40478e-05
1.40478e-05
1.40478e-05
1.40478e-05
1.40478e-05
1.40478e-05
1.40478e-05
1.40478e-05
1.40478e-05
1.40478e-05
1.40478e-05
1.40478e-05
1.40478e-05
1.40478e-05
1.40478e-05
1.40478e-05
1.40478e-05
1.40478e-05
1.40478e-05
1.40478e-05
1.40478e-05
1.40478e-05
1.40478e-05
1.40478e-05
1.40478e-05
1.40478e-05
1.40478e-05
1.40478e-05
1.40478e-05
1.40478e-05
1.40478e-05
1.40478e-05
1.40478e-05
1.40478e-05
1.40478e-05
1.40478e-05
1.40478e-05
1.40478e-05
1.40478e-05
1.40478e-05
1.40478e-05
1.40478e-05
1.40478e-05
1.40478e-05
1.40478e-05
1.40478e-05
1.40478e-05
1.40478e-05
1.40478e-05
1.40478e-05
1.40478e-05
1.40478e-05
1.40478e-05
1.40478e-05
1.40478e-05
1.40478e-05
1.40478e-05
1.40478e-05
1.40478e-05
1.40478e-05
1.40478e-05
1.40478e-05
1.40478e-05
1.40478e-05
1.40478e-05
1.40478e-05
1.40478e-05
1.40478e-05
1.40478e-05
1.40478e-05
1.40478e-05
1.40478e-05
1.40478e-05
1.40478e-05
1.40478e-05
1.40478e-05
1.40478e-05
1.40478e-05
1.40478e-05
1.40478e-05
1.40478e-05
1.40478e-05
1.40478e-05
1.40478e-05
1.40478e-05
1.40478e-05
1.40478e-05
1.40478e-05
1.40478e-05
1.40478e-05
1.40478e-05
1.40478e-05
1.40478e-05
1.40478e-05
1.40478e-05
1.40478e-05
1.40478e-05
1.40478e-05
1.40478e-05
1.40478e-05
1.40478e-05
1.40478e-05
1.40478e-05
1.40478e-05
1.40478e-05
1.40478e-05
1.40478e-05
1.40478e-05
1.40478e-05
1.40478e-05
1.40478e-05
1.40478e-05
1.40478e-05
1.40478e-05
1.40478e-05
1.40478e-05
1.40478e-05
1.40478e-05
1.40478e-05
1.40478e-05
1.40478e-05
1.40478e-05
1.40478e-05
1.40478e-05
1.40478e-05
1.40478e-05
1.40478e-05
1.40478e-05
1.40478e-05
1.40478e-05
1.40478e-05
1.40478e-05
1.40478e-05
1.40478e-05
1.40478e-05
1.40478e-05
1.40478e-05
1.40478e-05
1.40478e-05
1.40478e-05
1.40478e-05
1.40478e-05
1.40478e-05
1.40478e-05
1.40478e-05
1.40478e-05
1.40478e-05
1.40478e-05
1.40478e-05
1.40478e-05
1.40478e-05
1.40478e-05
1.40478e-05
1.40478e-05
1.40478e-05
1.40478e-05
1.40478e-05
1.40478e-05
1.40478e-05
1.40478e-05
1.40478e-05
1.40478e-05
1.40478e-05
1.40478e-05
1.40478e-05
1.40478e-05
1.40478e-05
1.40478e-05
1.40478e-05
1.40478e-05
1.40478e-05
1.40478e-05
1.40478e-05
1.40478e-05
1.40478e-05
1.40478e-05
1.40478e-05
1.40478e-05
1.40478e-05
1.40478e-05
1.40478e-05
1.40478e-05
1.40478e-05
1.40478e-05
1.40478e-05
1.40478e-05
1.40478e-05
1.40478e-05
1.40478e-05
1.40478e-05
1.40478e-05
1.40478e-05
1.40478e-05
1.40478e-05
1.40478e-05
1.40478e-05
1.40478e-05
1.40478e-05
1.40478e-05
1.40478e-05
1.40478e-05
1.40478e-05
1.40478e-05
1.40478e-05
1.40478e-05
1.40478e-05
1.40478e-05
1.40478e-05
1.40478e-05
1.40478e-05
1.40478e-05
1.40478e-05
1.40478e-05
1.40478e-05
1.40478e-05
1.40478e-05
1.40478e-05
1.40478e-05
1.40478e-05
1.40478e-05
1.40478e-05
1.40478e-05
1.40478e-05
1.40478e-05
1.40478e-05
1.40478e-05
1.40478e-05
1.40478e-05
1.40478e-05
1.40478e-05
1.40478e-05
1.40478e-05
1.40478e-05
1.40478e-05
1.40478e-05
1.40478e-05
1.40478e-05
1.40478e-05
1.40478e-05
1.40478e-05
1.40478e-05
1.40478e-05
1.40478e-05
1.40478e-05
1.40478e-05
1.40478e-05
1.40478e-05
1.40478e-05
1.40478e-05
1.40478e-05
1.40478e-05
1.40478e-05
1.40478e-05
1.40478e-05
1.40478e-05
1.40478e-05
1.40478e-05
1.40478e-05
1.40478e-05
1.40478e-05
1.40478e-05
1.40478e-05
1.40478e-05
1.40478e-05
1.40478e-05
1.40478e-05
1.40478e-05
1.40478e-05
1.40478e-05
1.40479e-05
1.40479e-05
1.40479e-05
1.40479e-05
1.40479e-05
1.40479e-05
1.40479e-05
1.40479e-05
1.40479e-05
1.40479e-05
1.40479e-05
1.40479e-05
1.40479e-05
1.40479e-05
1.4048e-05
1.4048e-05
1.4048e-05
1.4048e-05
1.4048e-05
1.40478e-05
1.40478e-05
1.40478e-05
1.40478e-05
1.40478e-05
1.40478e-05
1.40478e-05
1.40478e-05
1.40478e-05
1.40478e-05
1.40478e-05
1.40478e-05
1.40478e-05
1.40478e-05
1.40478e-05
1.40478e-05
1.40478e-05
1.40478e-05
1.40478e-05
1.40478e-05
1.40478e-05
1.40478e-05
1.40478e-05
1.40478e-05
1.40478e-05
1.40478e-05
1.40478e-05
1.40478e-05
1.40478e-05
1.40478e-05
1.40478e-05
1.40478e-05
1.40478e-05
1.40478e-05
1.40478e-05
1.40478e-05
1.40478e-05
1.40478e-05
1.40478e-05
1.40478e-05
1.40478e-05
1.40478e-05
1.40478e-05
1.40478e-05
1.40478e-05
1.40478e-05
1.40478e-05
1.40478e-05
1.40478e-05
1.40478e-05
1.40478e-05
1.40478e-05
1.40478e-05
1.40478e-05
1.40478e-05
1.40478e-05
1.40478e-05
1.40478e-05
1.40478e-05
1.40478e-05
1.40478e-05
1.40478e-05
1.40478e-05
1.40478e-05
1.40478e-05
1.40478e-05
1.40478e-05
1.40478e-05
1.40478e-05
1.40478e-05
1.40479e-05
1.40479e-05
1.40479e-05
1.40479e-05
1.40479e-05
1.40479e-05
1.40479e-05
1.40479e-05
1.40479e-05
1.40479e-05
1.40479e-05
1.40479e-05
1.4048e-05
1.4048e-05
1.4048e-05
1.4048e-05
1.4048e-05
1.4048e-05
1.4048e-05
1.40481e-05
1.40481e-05
1.40481e-05
1.40481e-05
1.40482e-05
1.40482e-05
1.40482e-05
1.40483e-05
1.40483e-05
1.40483e-05
1.40484e-05
1.40484e-05
1.40485e-05
1.40485e-05
1.40486e-05
1.40486e-05
1.40487e-05
1.40487e-05
1.40488e-05
1.40489e-05
1.4049e-05
1.40479e-05
1.40479e-05
1.40479e-05
1.40479e-05
1.4048e-05
1.4048e-05
1.4048e-05
1.4048e-05
1.4048e-05
1.4048e-05
1.4048e-05
1.4048e-05
1.4048e-05
1.4048e-05
1.4048e-05
1.4048e-05
1.4048e-05
1.4048e-05
1.4048e-05
1.4048e-05
1.4048e-05
1.4048e-05
1.4048e-05
1.4048e-05
1.4048e-05
1.4048e-05
1.4048e-05
1.4048e-05
1.4048e-05
1.4048e-05
1.4048e-05
1.4048e-05
1.4048e-05
1.4048e-05
1.40479e-05
1.40479e-05
1.40479e-05
1.40479e-05
1.40479e-05
1.40479e-05
1.40479e-05
1.40479e-05
1.40479e-05
1.40479e-05
1.40479e-05
1.40479e-05
1.40479e-05
1.40479e-05
1.40479e-05
1.40479e-05
1.40479e-05
1.40479e-05
1.40479e-05
1.40479e-05
1.40479e-05
1.40479e-05
1.40479e-05
1.40479e-05
1.40479e-05
1.40479e-05
1.40479e-05
1.40479e-05
1.40479e-05
1.40479e-05
1.40479e-05
1.4048e-05
1.4048e-05
1.4048e-05
1.4048e-05
1.40481e-05
1.40481e-05
1.40481e-05
1.40481e-05
1.40482e-05
1.40482e-05
1.40482e-05
1.40483e-05
1.40483e-05
1.40484e-05
1.40484e-05
1.40485e-05
1.40485e-05
1.40486e-05
1.40486e-05
1.40487e-05
1.40488e-05
1.40488e-05
1.40489e-05
1.4049e-05
1.40491e-05
1.40492e-05
1.40493e-05
1.40495e-05
1.40496e-05
1.40497e-05
1.40499e-05
1.405e-05
1.40502e-05
1.40504e-05
1.40506e-05
1.40508e-05
1.4051e-05
1.40513e-05
1.40516e-05
1.40518e-05
1.40521e-05
1.40525e-05
1.40528e-05
1.40532e-05
1.40536e-05
1.4054e-05
1.40484e-05
1.40485e-05
1.40485e-05
1.40485e-05
1.40486e-05
1.40486e-05
1.40487e-05
1.40487e-05
1.40487e-05
1.40488e-05
1.40488e-05
1.40488e-05
1.40488e-05
1.40488e-05
1.40488e-05
1.40489e-05
1.40489e-05
1.40489e-05
1.40489e-05
1.40489e-05
1.40488e-05
1.40488e-05
1.40488e-05
1.40488e-05
1.40488e-05
1.40488e-05
1.40487e-05
1.40487e-05
1.40487e-05
1.40486e-05
1.40486e-05
1.40486e-05
1.40486e-05
1.40485e-05
1.40485e-05
1.40485e-05
1.40484e-05
1.40484e-05
1.40484e-05
1.40484e-05
1.40483e-05
1.40483e-05
1.40483e-05
1.40483e-05
1.40482e-05
1.40482e-05
1.40482e-05
1.40482e-05
1.40482e-05
1.40482e-05
1.40482e-05
1.40482e-05
1.40482e-05
1.40482e-05
1.40482e-05
1.40482e-05
1.40482e-05
1.40482e-05
1.40483e-05
1.40483e-05
1.40483e-05
1.40484e-05
1.40484e-05
1.40485e-05
1.40486e-05
1.40486e-05
1.40487e-05
1.40488e-05
1.40489e-05
1.40491e-05
1.40492e-05
1.40493e-05
1.40495e-05
1.40497e-05
1.40498e-05
1.405e-05
1.40502e-05
1.40504e-05
1.40506e-05
1.40509e-05
1.40511e-05
1.40514e-05
1.40517e-05
1.4052e-05
1.40523e-05
1.40527e-05
1.40531e-05
1.40535e-05
1.40539e-05
1.40544e-05
1.4055e-05
1.40555e-05
1.40562e-05
1.40568e-05
1.40576e-05
1.40584e-05
1.40592e-05
1.40601e-05
1.40611e-05
1.40621e-05
1.40633e-05
1.40645e-05
1.40658e-05
1.40672e-05
1.40687e-05
1.40703e-05
1.40721e-05
1.4074e-05
1.4076e-05
1.40782e-05
1.40805e-05
1.40831e-05
1.40858e-05
1.40507e-05
1.40508e-05
1.4051e-05
1.40512e-05
1.40514e-05
1.40515e-05
1.40517e-05
1.40518e-05
1.4052e-05
1.40521e-05
1.40522e-05
1.40523e-05
1.40524e-05
1.40524e-05
1.40525e-05
1.40525e-05
1.40525e-05
1.40525e-05
1.40525e-05
1.40525e-05
1.40524e-05
1.40523e-05
1.40523e-05
1.40522e-05
1.40521e-05
1.4052e-05
1.40519e-05
1.40517e-05
1.40516e-05
1.40515e-05
1.40514e-05
1.40512e-05
1.40511e-05
1.4051e-05
1.40508e-05
1.40507e-05
1.40506e-05
1.40505e-05
1.40504e-05
1.40502e-05
1.40501e-05
1.405e-05
1.405e-05
1.40499e-05
1.40498e-05
1.40497e-05
1.40497e-05
1.40496e-05
1.40496e-05
1.40496e-05
1.40495e-05
1.40495e-05
1.40495e-05
1.40496e-05
1.40496e-05
1.40496e-05
1.40497e-05
1.40498e-05
1.40499e-05
1.40501e-05
1.40503e-05
1.40505e-05
1.40507e-05
1.4051e-05
1.40514e-05
1.40518e-05
1.40522e-05
1.40527e-05
1.40533e-05
1.40539e-05
1.40545e-05
1.40552e-05
1.4056e-05
1.40568e-05
1.40576e-05
1.40586e-05
1.40595e-05
1.40605e-05
1.40616e-05
1.40628e-05
1.4064e-05
1.40653e-05
1.40667e-05
1.40683e-05
1.40699e-05
1.40717e-05
1.40737e-05
1.40758e-05
1.40781e-05
1.40806e-05
1.40834e-05
1.40863e-05
1.40895e-05
1.40929e-05
1.40967e-05
1.41007e-05
1.4105e-05
1.41096e-05
1.41147e-05
1.412e-05
1.41258e-05
1.41321e-05
1.41388e-05
1.41461e-05
1.41539e-05
1.41623e-05
1.41714e-05
1.41812e-05
1.41918e-05
1.42032e-05
1.42155e-05
1.42288e-05
1.42431e-05
1.40591e-05
1.40599e-05
1.40607e-05
1.40615e-05
1.40623e-05
1.40631e-05
1.40638e-05
1.40645e-05
1.40652e-05
1.40658e-05
1.40663e-05
1.40668e-05
1.40672e-05
1.40676e-05
1.40679e-05
1.40681e-05
1.40682e-05
1.40683e-05
1.40683e-05
1.40682e-05
1.40681e-05
1.40679e-05
1.40676e-05
1.40673e-05
1.4067e-05
1.40666e-05
1.40661e-05
1.40656e-05
1.40651e-05
1.40646e-05
1.40641e-05
1.40635e-05
1.40629e-05
1.40624e-05
1.40618e-05
1.40613e-05
1.40607e-05
1.40602e-05
1.40597e-05
1.40592e-05
1.40587e-05
1.40582e-05
1.40578e-05
1.40574e-05
1.40571e-05
1.40567e-05
1.40564e-05
1.40561e-05
1.40559e-05
1.40557e-05
1.40556e-05
1.40555e-05
1.40555e-05
1.40555e-05
1.40555e-05
1.40556e-05
1.40558e-05
1.40561e-05
1.40564e-05
1.40569e-05
1.40575e-05
1.40582e-05
1.40591e-05
1.40602e-05
1.40614e-05
1.40628e-05
1.40645e-05
1.40664e-05
1.40685e-05
1.40709e-05
1.40736e-05
1.40764e-05
1.40796e-05
1.4083e-05
1.40867e-05
1.40906e-05
1.40947e-05
1.40991e-05
1.41038e-05
1.41088e-05
1.4114e-05
1.41196e-05
1.41256e-05
1.4132e-05
1.41389e-05
1.41464e-05
1.41545e-05
1.41632e-05
1.41728e-05
1.41832e-05
1.41945e-05
1.42067e-05
1.42201e-05
1.42346e-05
1.42503e-05
1.42673e-05
1.42857e-05
1.43056e-05
1.4327e-05
1.435e-05
1.43748e-05
1.44014e-05
1.44301e-05
1.44608e-05
1.44939e-05
1.45295e-05
1.45678e-05
1.46091e-05
1.46537e-05
1.47017e-05
1.47535e-05
1.48094e-05
1.48696e-05
1.49344e-05
1.50042e-05
1.40983e-05
1.41017e-05
1.41051e-05
1.41085e-05
1.41117e-05
1.41149e-05
1.41179e-05
1.41207e-05
1.41234e-05
1.41258e-05
1.4128e-05
1.41299e-05
1.41316e-05
1.41329e-05
1.4134e-05
1.41347e-05
1.41351e-05
1.41352e-05
1.4135e-05
1.41346e-05
1.41338e-05
1.41328e-05
1.41316e-05
1.41301e-05
1.41285e-05
1.41267e-05
1.41247e-05
1.41226e-05
1.41204e-05
1.41182e-05
1.41158e-05
1.41135e-05
1.41111e-05
1.41087e-05
1.41064e-05
1.41041e-05
1.41018e-05
1.40996e-05
1.40975e-05
1.40954e-05
1.40935e-05
1.40916e-05
1.40899e-05
1.40883e-05
1.40868e-05
1.40855e-05
1.40843e-05
1.40833e-05
1.40824e-05
1.40817e-05
1.40812e-05
1.40809e-05
1.4081e-05
1.40811e-05
1.40814e-05
1.4082e-05
1.40829e-05
1.40843e-05
1.4086e-05
1.40883e-05
1.40911e-05
1.40946e-05
1.40988e-05
1.41038e-05
1.41097e-05
1.41166e-05
1.41244e-05
1.41334e-05
1.41434e-05
1.41547e-05
1.41671e-05
1.41806e-05
1.41954e-05
1.42113e-05
1.42284e-05
1.42467e-05
1.42661e-05
1.42867e-05
1.43086e-05
1.43317e-05
1.43563e-05
1.43824e-05
1.44103e-05
1.44402e-05
1.44723e-05
1.45069e-05
1.45444e-05
1.45851e-05
1.46291e-05
1.4677e-05
1.4729e-05
1.47854e-05
1.48467e-05
1.4913e-05
1.49849e-05
1.50624e-05
1.5146e-05
1.52358e-05
1.53321e-05
1.54352e-05
1.55451e-05
1.56621e-05
1.57865e-05
1.59185e-05
1.60585e-05
1.6207e-05
1.63645e-05
1.65316e-05
1.6709e-05
1.68975e-05
1.70978e-05
1.73109e-05
1.75374e-05
1.77781e-05
1.80334e-05
1.83037e-05
1.41721e-05
1.41845e-05
1.41974e-05
1.42108e-05
1.42245e-05
1.42385e-05
1.42526e-05
1.42668e-05
1.4281e-05
1.42949e-05
1.43085e-05
1.43216e-05
1.43342e-05
1.43462e-05
1.43573e-05
1.43675e-05
1.43768e-05
1.43851e-05
1.43922e-05
1.43981e-05
1.44028e-05
1.44063e-05
1.44085e-05
1.44094e-05
1.44092e-05
1.44077e-05
1.44052e-05
1.44015e-05
1.43969e-05
1.43914e-05
1.43851e-05
1.4378e-05
1.43703e-05
1.43621e-05
1.43534e-05
1.43443e-05
1.43349e-05
1.43254e-05
1.43158e-05
1.43061e-05
1.42966e-05
1.42871e-05
1.42778e-05
1.42688e-05
1.426e-05
1.42515e-05
1.42433e-05
1.42356e-05
1.42283e-05
1.42215e-05
1.42152e-05
1.42095e-05
1.42044e-05
1.41998e-05
1.41958e-05
1.41926e-05
1.419e-05
1.41885e-05
1.41883e-05
1.41886e-05
1.41894e-05
1.41913e-05
1.41945e-05
1.41992e-05
1.42056e-05
1.4214e-05
1.42246e-05
1.42377e-05
1.42538e-05
1.42731e-05
1.42959e-05
1.43227e-05
1.43538e-05
1.43895e-05
1.443e-05
1.44755e-05
1.4526e-05
1.45814e-05
1.46417e-05
1.47069e-05
1.47768e-05
1.48513e-05
1.49305e-05
1.50142e-05
1.51026e-05
1.51959e-05
1.52941e-05
1.53977e-05
1.55071e-05
1.5623e-05
1.5746e-05
1.58771e-05
1.6017e-05
1.61664e-05
1.6326e-05
1.64966e-05
1.66789e-05
1.68736e-05
1.70814e-05
1.73031e-05
1.75392e-05
1.77905e-05
1.80574e-05
1.83403e-05
1.86393e-05
1.89543e-05
1.92851e-05
1.9631e-05
1.99914e-05
2.03656e-05
2.07525e-05
2.11516e-05
2.15622e-05
2.1984e-05
2.24168e-05
2.2861e-05
2.33172e-05
2.37861e-05
2.4269e-05
2.4767e-05
2.52814e-05
2.58133e-05
2.63636e-05
1.45792e-05
1.4629e-05
1.46805e-05
1.47334e-05
1.47874e-05
1.48419e-05
1.48965e-05
1.49507e-05
1.50041e-05
1.50562e-05
1.51065e-05
1.51546e-05
1.52e-05
1.52425e-05
1.52816e-05
1.53171e-05
1.53487e-05
1.53762e-05
1.53994e-05
1.54183e-05
1.54326e-05
1.54424e-05
1.54475e-05
1.54481e-05
1.54448e-05
1.54371e-05
1.54253e-05
1.54097e-05
1.5391e-05
1.53693e-05
1.53449e-05
1.5318e-05
1.52888e-05
1.52577e-05
1.52249e-05
1.51908e-05
1.51559e-05
1.51205e-05
1.50847e-05
1.50489e-05
1.50135e-05
1.49785e-05
1.49442e-05
1.49107e-05
1.48782e-05
1.48468e-05
1.48167e-05
1.47882e-05
1.47614e-05
1.47364e-05
1.47135e-05
1.46927e-05
1.4674e-05
1.46577e-05
1.46437e-05
1.46325e-05
1.46247e-05
1.46215e-05
1.46219e-05
1.46242e-05
1.46296e-05
1.46397e-05
1.46552e-05
1.4677e-05
1.47058e-05
1.47427e-05
1.4789e-05
1.48458e-05
1.49144e-05
1.49961e-05
1.50921e-05
1.52036e-05
1.53317e-05
1.54772e-05
1.56404e-05
1.58209e-05
1.60181e-05
1.62307e-05
1.64576e-05
1.66972e-05
1.69484e-05
1.72099e-05
1.7481e-05
1.77614e-05
1.80508e-05
1.83494e-05
1.86577e-05
1.89761e-05
1.93057e-05
1.96478e-05
2.00038e-05
2.03748e-05
2.07617e-05
2.11646e-05
2.15835e-05
2.20181e-05
2.24681e-05
2.29331e-05
2.34127e-05
2.39068e-05
2.44154e-05
2.49388e-05
2.54773e-05
2.60311e-05
2.66004e-05
2.71848e-05
2.77837e-05
2.83957e-05
2.90187e-05
2.96499e-05
3.02858e-05
3.09226e-05
3.15559e-05
3.21813e-05
3.27947e-05
3.33919e-05
3.39694e-05
3.45242e-05
3.50538e-05
3.55563e-05
3.60306e-05
3.6476e-05
3.68922e-05
1.61234e-05
1.62939e-05
1.64668e-05
1.66411e-05
1.68156e-05
1.69888e-05
1.71595e-05
1.73261e-05
1.74872e-05
1.76414e-05
1.77877e-05
1.79248e-05
1.8052e-05
1.81684e-05
1.82734e-05
1.83665e-05
1.84474e-05
1.85159e-05
1.85719e-05
1.86154e-05
1.86462e-05
1.86644e-05
1.86691e-05
1.86643e-05
1.86475e-05
1.86182e-05
1.8578e-05
1.85285e-05
1.8471e-05
1.84061e-05
1.83343e-05
1.82555e-05
1.81702e-05
1.80791e-05
1.79833e-05
1.78839e-05
1.77819e-05
1.76781e-05
1.7573e-05
1.74674e-05
1.73623e-05
1.72582e-05
1.71557e-05
1.70552e-05
1.6957e-05
1.68619e-05
1.67704e-05
1.66834e-05
1.66014e-05
1.6525e-05
1.64548e-05
1.63914e-05
1.63351e-05
1.6286e-05
1.62446e-05
1.62129e-05
1.61945e-05
1.61925e-05
1.61972e-05
1.62105e-05
1.62374e-05
1.62809e-05
1.63433e-05
1.64272e-05
1.65353e-05
1.66711e-05
1.68376e-05
1.70379e-05
1.72745e-05
1.7549e-05
1.78629e-05
1.82173e-05
1.86128e-05
1.90486e-05
1.95219e-05
2.00289e-05
2.05639e-05
2.11209e-05
2.16934e-05
2.22752e-05
2.28608e-05
2.34457e-05
2.40271e-05
2.46037e-05
2.51757e-05
2.5744e-05
2.63101e-05
2.68763e-05
2.74451e-05
2.80196e-05
2.86028e-05
2.91963e-05
2.98e-05
3.04125e-05
3.10309e-05
3.16517e-05
3.22704e-05
3.28824e-05
3.34828e-05
3.40667e-05
3.463e-05
3.51694e-05
3.5682e-05
3.61659e-05
3.66199e-05
3.70433e-05
3.74361e-05
3.77988e-05
3.81321e-05
3.84372e-05
3.87151e-05
3.89672e-05
3.91953e-05
3.94007e-05
3.9585e-05
3.97498e-05
3.9897e-05
4.00285e-05
4.01465e-05
4.0253e-05
4.03504e-05
4.0441e-05
4.05273e-05
2.06197e-05
2.10243e-05
2.14201e-05
2.18056e-05
2.21792e-05
2.25393e-05
2.28841e-05
2.3212e-05
2.35212e-05
2.381e-05
2.40772e-05
2.43216e-05
2.45424e-05
2.4739e-05
2.49111e-05
2.50588e-05
2.51826e-05
2.52825e-05
2.5359e-05
2.54133e-05
2.54466e-05
2.54545e-05
2.54462e-05
2.54193e-05
2.53716e-05
2.53018e-05
2.52125e-05
2.51098e-05
2.4996e-05
2.48713e-05
2.4735e-05
2.45863e-05
2.4425e-05
2.42523e-05
2.40703e-05
2.38815e-05
2.36875e-05
2.34893e-05
2.32876e-05
2.30834e-05
2.28783e-05
2.26738e-05
2.24708e-05
2.22702e-05
2.20726e-05
2.18794e-05
2.16922e-05
2.15128e-05
2.1343e-05
2.11841e-05
2.1038e-05
2.09066e-05
2.07911e-05
2.06908e-05
2.06076e-05
2.05505e-05
2.05318e-05
2.05379e-05
2.05612e-05
2.06125e-05
2.06984e-05
2.08244e-05
2.09954e-05
2.12166e-05
2.14931e-05
2.183e-05
2.22314e-05
2.26991e-05
2.32314e-05
2.38243e-05
2.44732e-05
2.51733e-05
2.59188e-05
2.67021e-05
2.75138e-05
2.83432e-05
2.91796e-05
3.00124e-05
3.08311e-05
3.16262e-05
3.23887e-05
3.31113e-05
3.37895e-05
3.44213e-05
3.50067e-05
3.55466e-05
3.60432e-05
3.64994e-05
3.69188e-05
3.73053e-05
3.76624e-05
3.79923e-05
3.82972e-05
3.85785e-05
3.88375e-05
3.90747e-05
3.92909e-05
3.94874e-05
3.9665e-05
3.98247e-05
3.99679e-05
4.00964e-05
4.02121e-05
4.03169e-05
4.0413e-05
4.0503e-05
4.0589e-05
4.06733e-05
4.07573e-05
4.0842e-05
4.09273e-05
4.10148e-05
4.11034e-05
4.11912e-05
4.12788e-05
4.13669e-05
4.14549e-05
4.15428e-05
4.16308e-05
4.17193e-05
4.18084e-05
4.1898e-05
4.19877e-05
4.20768e-05
4.21645e-05
2.90194e-05
2.9589e-05
3.0122e-05
3.06185e-05
3.10795e-05
3.1506e-05
3.1899e-05
3.22598e-05
3.25886e-05
3.28854e-05
3.31508e-05
3.33857e-05
3.35901e-05
3.37636e-05
3.39072e-05
3.40222e-05
3.41103e-05
3.41724e-05
3.42086e-05
3.42169e-05
3.42098e-05
3.41844e-05
3.41373e-05
3.40692e-05
3.39817e-05
3.38728e-05
3.37455e-05
3.36074e-05
3.34601e-05
3.33054e-05
3.31411e-05
3.29629e-05
3.27705e-05
3.25659e-05
3.23511e-05
3.21292e-05
3.1903e-05
3.16727e-05
3.14377e-05
3.11983e-05
3.09564e-05
3.07141e-05
3.04727e-05
3.0233e-05
2.99959e-05
2.97628e-05
2.95358e-05
2.93176e-05
2.91109e-05
2.89177e-05
2.87406e-05
2.85848e-05
2.84522e-05
2.83377e-05
2.82447e-05
2.82068e-05
2.82145e-05
2.82459e-05
2.8313e-05
2.84248e-05
2.8588e-05
2.88087e-05
2.90929e-05
2.94457e-05
2.98704e-05
3.03694e-05
3.09435e-05
3.15863e-05
3.22835e-05
3.3017e-05
3.37689e-05
3.4523e-05
3.52627e-05
3.59693e-05
3.66263e-05
3.7223e-05
3.77567e-05
3.82293e-05
3.86454e-05
3.90101e-05
3.93253e-05
3.9593e-05
3.98178e-05
4.00042e-05
4.01572e-05
4.02826e-05
4.03865e-05
4.04737e-05
4.05478e-05
4.06132e-05
4.0675e-05
4.0736e-05
4.07978e-05
4.08618e-05
4.09284e-05
4.09982e-05
4.1072e-05
4.11488e-05
4.12269e-05
4.13072e-05
4.13902e-05
4.14749e-05
4.15608e-05
4.16481e-05
4.17365e-05
4.18258e-05
4.19149e-05
4.20029e-05
4.20894e-05
4.21751e-05
4.22602e-05
4.23438e-05
4.24257e-05
4.25083e-05
4.25915e-05
4.26745e-05
4.27592e-05
4.28465e-05
4.29358e-05
4.30268e-05
4.3119e-05
4.32117e-05
4.33048e-05
4.33988e-05
4.34936e-05
3.85037e-05
3.89432e-05
3.93246e-05
3.96486e-05
3.99194e-05
4.01412e-05
4.03181e-05
4.04546e-05
4.05557e-05
4.0626e-05
4.06665e-05
4.06796e-05
4.06762e-05
4.06556e-05
4.06119e-05
4.05513e-05
4.04787e-05
4.03961e-05
4.03028e-05
4.01995e-05
4.00919e-05
3.9981e-05
3.98623e-05
3.97343e-05
3.95998e-05
3.94654e-05
3.93331e-05
3.91995e-05
3.9067e-05
3.89305e-05
3.87879e-05
3.86406e-05
3.84924e-05
3.83439e-05
3.81945e-05
3.8046e-05
3.78997e-05
3.77547e-05
3.76096e-05
3.7464e-05
3.73185e-05
3.71741e-05
3.70316e-05
3.68916e-05
3.67546e-05
3.66213e-05
3.64927e-05
3.63706e-05
3.62561e-05
3.61499e-05
3.6056e-05
3.59786e-05
3.59169e-05
3.58705e-05
3.58533e-05
3.5862e-05
3.58906e-05
3.5945e-05
3.60329e-05
3.61548e-05
3.63096e-05
3.65005e-05
3.67324e-05
3.69998e-05
3.7293e-05
3.76146e-05
3.79642e-05
3.83227e-05
3.86746e-05
3.90117e-05