/*--------------------------------*- C++ -*----------------------------------*\
| =========                 |                                                 |
| \\      /  F ield         | OpenFOAM: The Open Source CFD Toolbox           |
|  \\    /   O peration     | Version:  v1706                                 |
|   \\  /    A nd           | Web:      www.OpenFOAM.com                      |
|    \\/     M anipulation  |                                                 |
\*---------------------------------------------------------------------------*/
FoamFile
{
    version     2.0;
    format      ascii;
    class       volScalarField;
    location    "5e-06";
    object      kappatr;
}
// * * * * * * * * * * * * * * * * * * * * * * * * * * * * * * * * * * * * * //

dimensions      [1 1 -3 -1 0 0 0];


internalField   nonuniform List<scalar> 
29871
(
0.014593
0.014593
0.014593
0.014593
0.014593
0.014593
0.014593
0.014593
0.014593
0.014593
0.014593
0.014593
0.014593
0.014593
0.014593
0.014593
0.014593
0.014593
0.014593
0.014593
0.014593
0.014593
0.014593
0.014593
0.014593
0.014593
0.014593
0.014593
0.014593
0.014593
0.014593
0.014593
0.014593
0.014593
0.014593
0.014593
0.014593
0.014593
0.014593
0.014593
0.014593
0.014593
0.014593
0.014593
0.014593
0.014593
0.014593
0.014593
0.014593
0.014593
0.014593
0.014593
0.014593
0.014593
0.014593
0.014593
0.014593
0.014593
0.014593
0.014593
0.014593
0.014593
0.014593
0.014593
0.014593
0.014593
0.014593
0.014593
0.014593
0.014593
0.014593
0.014593
0.014593
0.014593
0.014593
0.014593
0.014593
0.014593
0.014593
0.014593
0.014593
0.014593
0.014593
0.014593
0.014593
0.014593
0.014593
0.014593
0.014593
0.014593
0.014593
0.014593
0.014593
0.014593
0.014593
0.014593
0.014593
0.014593
0.014593
0.014593
0.014593
0.014593
0.014593
0.014593
0.014593
0.014593
0.014593
0.014593
0.014593
0.014593
0.014593
0.014593
0.014593
0.014593
0.014593
0.014593
0.014593
0.014593
0.014593
0.014593
0.014593
0.014593
0.014593
0.014593
0.014593
0.014593
0.014593
0.014593
0.014593
0.014593
0.014593
0.014593
0.014593
0.014593
0.014593
0.014593
0.014593
0.014593
0.014593
0.014593
0.014593
0.014593
0.014593
0.014593
0.014593
0.014593
0.014593
0.014593
0.014593
0.014593
0.014593
0.014593
0.014593
0.014593
0.014593
0.014593
0.014593
0.014593
0.014593
0.014593
0.014593
0.014593
0.014593
0.014593
0.014593
0.014593
0.014593
0.014593
0.014593
0.014593
0.014593
0.014593
0.014593
0.014593
0.014593
0.014593
0.014593
0.014593
0.014593
0.014593
0.014593
0.014593
0.014593
0.014593
0.014593
0.014593
0.014593
0.014593
0.014593
0.014593
0.014593
0.014593
0.014593
0.014593
0.014593
0.014593
0.014593
0.014593
0.014593
0.014593
0.014593
0.014593
0.014593
0.014593
0.014593
0.014593
0.014593
0.014593
0.014593
0.014593
0.014593
0.014593
0.014593
0.014593
0.014593
0.014593
0.014593
0.014593
0.014593
0.014593
0.014593
0.014593
0.014593
0.014593
0.014593
0.014593
0.014593
0.014593
0.014593
0.014593
0.014593
0.014593
0.014593
0.014593
0.014593
0.014593
0.014593
0.014593
0.014593
0.014593
0.014593
0.014593
0.014593
0.014593
0.014593
0.014593
0.014593
0.014593
0.014593
0.014593
0.014593
0.014593
0.014593
0.014593
0.014593
0.014593
0.014593
0.014593
0.014593
0.014593
0.014593
0.014593
0.014593
0.014593
0.014593
0.014593
0.014593
0.014593
0.014593
0.014593
0.014593
0.014593
0.014593
0.014593
0.014593
0.014593
0.014593
0.014593
0.014593
0.014593
0.014593
0.014593
0.014593
0.014593
0.014593
0.014593
0.014593
0.014593
0.014593
0.014593
0.014593
0.014593
0.014593
0.014593
0.014593
0.014593
0.014593
0.014593
0.014593
0.014593
0.014593
0.014593
0.014593
0.014593
0.014593
0.014593
0.014593
0.014593
0.014593
0.014593
0.014593
0.014593
0.014593
0.014593
0.014593
0.014593
0.014593
0.014593
0.014593
0.014593
0.014593
0.014593
0.014593
0.014593
0.014593
0.014593
0.014593
0.014593
0.014593
0.014593
0.014593
0.014593
0.014593
0.014593
0.014593
0.014593
0.014593
0.014593
0.014593
0.014593
0.014593
0.014593
0.014593
0.014593
0.014593
0.014593
0.014593
0.014593
0.014593
0.014593
0.014593
0.014593
0.014593
0.014593
0.014593
0.014593
0.014593
0.014593
0.014593
0.014593
0.014593
0.014593
0.014593
0.014593
0.014593
0.014593
0.014593
0.014593
0.014593
0.014593
0.014593
0.014593
0.014593
0.014593
0.014593
0.014593
0.014593
0.014593
0.014593
0.014593
0.014593
0.014593
0.014593
0.014593
0.014593
0.014593
0.014593
0.014593
0.014593
0.014593
0.014593
0.014593
0.014593
0.014593
0.014593
0.014593
0.014593
0.014593
0.014593
0.014593
0.014593
0.014593
0.014593
0.014593
0.014593
0.014593
0.014593
0.014593
0.014593
0.014593
0.014593
0.014593
0.014593
0.014593
0.014593
0.014593
0.014593
0.014593
0.014593
0.014593
0.014593
0.014593
0.014593
0.014593
0.014593
0.014593
0.014593
0.014593
0.014593
0.014593
0.014593
0.014593
0.014593
0.014593
0.014593
0.014593
0.014593
0.014593
0.014593
0.014593
0.014593
0.014593
0.014593
0.014593
0.014593
0.014593
0.014593
0.014593
0.014593
0.014593
0.014593
0.014593
0.014593
0.014593
0.014593
0.014593
0.014593
0.014593
0.014593
0.014593
0.014593
0.014593
0.014593
0.014593
0.014593
0.014593
0.014593
0.014593
0.014593
0.014593
0.014593
0.014593
0.014593
0.014593
0.014593
0.014593
0.014593
0.014593
0.014593
0.014593
0.014593
0.014593
0.014593
0.014593
0.014593
0.014593
0.014593
0.014593
0.014593
0.014593
0.014593
0.014593
0.014593
0.014593
0.014593
0.014593
0.014593
0.014593
0.014593
0.014593
0.014593
0.014593
0.014593
0.014593
0.014593
0.014593
0.014593
0.014593
0.014593
0.014593
0.014593
0.014593
0.014593
0.014593
0.014593
0.014593
0.014593
0.014593
0.014593
0.014593
0.014593
0.014593
0.014593
0.014593
0.014593
0.014593
0.014593
0.014593
0.014593
0.014593
0.014593
0.014593
0.014593
0.014593
0.014593
0.014593
0.014593
0.014593
0.014593
0.014593
0.014593
0.014593
0.014593
0.014593
0.014593
0.014593
0.014593
0.014593
0.014593
0.014593
0.014593
0.014593
0.014593
0.014593
0.014593
0.014593
0.014593
0.014593
0.014593
0.014593
0.014593
0.014593
0.014593
0.014593
0.014593
0.014593
0.014593
0.014593
0.014593
0.014593
0.014593
0.014593
0.014593
0.014593
0.014593
0.014593
0.014593
0.014593
0.014593
0.014593
0.014593
0.014593
0.014593
0.014593
0.014593
0.014593
0.014593
0.014593
0.014593
0.014593
0.014593
0.014593
0.014593
0.014593
0.014593
0.014593
0.014593
0.014593
0.014593
0.014593
0.014593
0.014593
0.014593
0.014593
0.014593
0.014593
0.014593
0.014593
0.014593
0.014593
0.014593
0.014593
0.014593
0.014593
0.014593
0.014593
0.014593
0.014593
0.014593
0.014593
0.014593
0.014593
0.014593
0.014593
0.014593
0.014593
0.014593
0.014593
0.014593
0.014593
0.014593
0.014593
0.014593
0.014593
0.014593
0.014593
0.014593
0.014593
0.014593
0.014593
0.014593
0.014593
0.014593
0.014593
0.014593
0.014593
0.014593
0.014593
0.014593
0.014593
0.014593
0.014593
0.014593
0.014593
0.014593
0.014593
0.014593
0.014593
0.014593
0.014593
0.014593
0.014593
0.014593
0.014593
0.014593
0.014593
0.014593
0.014593
0.014593
0.014593
0.014593
0.014593
0.014593
0.014593
0.014593
0.014593
0.014593
0.014593
0.014593
0.014593
0.014593
0.014593
0.014593
0.014593
0.014593
0.014593
0.014593
0.014593
0.014593
0.014593
0.014593
0.014593
0.014593
0.014593
0.014593
0.014593
0.014593
0.014593
0.014593
0.014593
0.014593
0.014593
0.014593
0.014593
0.014593
0.014593
0.014593
0.014593
0.014593
0.014593
0.014593
0.014593
0.014593
0.014593
0.014593
0.014593
0.014593
0.014593
0.014593
0.014593
0.014593
0.014593
0.014593
0.014593
0.014593
0.014593
0.014593
0.014593
0.014593
0.014593
0.014593
0.014593
0.014593
0.014593
0.014593
0.014593
0.014593
0.014593
0.014593
0.014593
0.014593
0.014593
0.014593
0.014593
0.014593
0.014593
0.014593
0.014593
0.014593
0.014593
0.014593
0.014593
0.014593
0.014593
0.014593
0.014593
0.014593
0.014593
0.014593
0.014593
0.014593
0.014593
0.014593
0.014593
0.014593
0.014593
0.014593
0.014593
0.014593
0.014593
0.014593
0.014593
0.014593
0.014593
0.014593
0.014593
0.014593
0.014593
0.014593
0.014593
0.014593
0.014593
0.014593
0.014593
0.014593
0.014593
0.014593
0.014593
0.014593
0.014593
0.014593
0.014593
0.014593
0.014593
0.014593
0.014593
0.014593
0.014593
0.014593
0.014593
0.014593
0.014593
0.014593
0.014593
0.014593
0.014593
0.014593
0.014593
0.014593
0.014593
0.014593
0.014593
0.014593
0.014593
0.014593
0.014593
0.014593
0.014593
0.014593
0.014593
0.014593
0.014593
0.014593
0.014593
0.014593
0.014593
0.014593
0.014593
0.014593
0.014593
0.014593
0.014593
0.014593
0.014593
0.014593
0.014593
0.014593
0.014593
0.014593
0.014593
0.014593
0.014593
0.014593
0.014593
0.014593
0.014593
0.014593
0.014593
0.014593
0.014593
0.014593
0.014593
0.014593
0.014593
0.014593
0.014593
0.014593
0.014593
0.014593
0.014593
0.014593
0.014593
0.014593
0.014593
0.014593
0.014593
0.014593
0.014593
0.014593
0.014593
0.014593
0.014593
0.014593
0.014593
0.014593
0.014593
0.014593
0.014593
0.014593
0.014593
0.014593
0.014593
0.014593
0.014593
0.014593
0.014593
0.014593
0.014593
0.014593
0.014593
0.014593
0.014593
0.014593
0.014593
0.014593
0.014593
0.014593
0.014593
0.014593
0.014593
0.014593
0.014593
0.014593
0.014593
0.014593
0.014593
0.014593
0.014593
0.014593
0.014593
0.014593
0.014593
0.014593
0.014593
0.014593
0.014593
0.014593
0.014593
0.014593
0.014593
0.014593
0.014593
0.014593
0.014593
0.014593
0.014593
0.014593
0.014593
0.014593
0.014593
0.014593
0.014593
0.014593
0.014593
0.014593
0.014593
0.014593
0.014593
0.014593
0.014593
0.014593
0.014593
0.014593
0.014593
0.014593
0.014593
0.014593
0.014593
0.014593
0.014593
0.014593
0.014593
0.014593
0.014593
0.014593
0.014593
0.014593
0.014593
0.014593
0.014593
0.014593
0.014593
0.014593
0.014593
0.014593
0.014593
0.014593
0.014593
0.014593
0.014593
0.014593
0.014593
0.014593
0.014593
0.014593
0.014593
0.014593
0.014593
0.014593
0.014593
0.014593
0.014593
0.014593
0.014593
0.014593
0.014593
0.014593
0.014593
0.014593
0.014593
0.014593
0.014593
0.014593
0.014593
0.014593
0.014593
0.014593
0.014593
0.014593
0.014593
0.014593
0.014593
0.014593
0.014593
0.014593
0.014593
0.014593
0.014593
0.014593
0.014593
0.014593
0.014593
0.014593
0.014593
0.014593
0.014593
0.014593
0.014593
0.014593
0.014593
0.014593
0.014593
0.014593
0.014593
0.014593
0.014593
0.014593
0.014593
0.014593
0.014593
0.014593
0.014593
0.014593
0.014593
0.014593
0.014593
0.014593
0.014593
0.014593
0.014593
0.014593
0.014593
0.014593
0.014593
0.014593
0.014593
0.014593
0.014593
0.014593
0.014593
0.014593
0.014593
0.0145931
0.0145931
0.0145931
0.0145931
0.0145931
0.0145931
0.0145931
0.0145931
0.0145931
0.0145931
0.0145931
0.0145931
0.0145931
0.0145931
0.0145931
0.0145931
0.0145931
0.0145932
0.0145932
0.0145932
0.0145932
0.0145932
0.0145932
0.0145932
0.014593
0.014593
0.014593
0.014593
0.014593
0.014593
0.014593
0.0145931
0.0145931
0.0145931
0.0145931
0.0145931
0.0145931
0.0145931
0.0145931
0.0145931
0.0145931
0.0145931
0.0145931
0.0145931
0.0145931
0.0145931
0.0145931
0.0145931
0.0145931
0.0145931
0.0145931
0.0145931
0.0145931
0.014593
0.014593
0.014593
0.014593
0.014593
0.014593
0.014593
0.014593
0.014593
0.014593
0.014593
0.014593
0.014593
0.014593
0.014593
0.014593
0.014593
0.014593
0.014593
0.014593
0.014593
0.014593
0.014593
0.014593
0.014593
0.014593
0.014593
0.014593
0.014593
0.014593
0.014593
0.014593
0.014593
0.014593
0.014593
0.014593
0.014593
0.0145931
0.0145931
0.0145931
0.0145931
0.0145931
0.0145931
0.0145931
0.0145931
0.0145931
0.0145931
0.0145931
0.0145931
0.0145931
0.0145931
0.0145932
0.0145932
0.0145932
0.0145932
0.0145932
0.0145932
0.0145932
0.0145933
0.0145933
0.0145933
0.0145933
0.0145933
0.0145934
0.0145934
0.0145934
0.0145935
0.0145935
0.0145935
0.0145936
0.0145936
0.0145937
0.0145937
0.0145938
0.0145938
0.0145939
0.0145939
0.014594
0.0145941
0.0145941
0.0145942
0.0145931
0.0145932
0.0145932
0.0145932
0.0145932
0.0145932
0.0145932
0.0145932
0.0145932
0.0145932
0.0145932
0.0145932
0.0145932
0.0145932
0.0145932
0.0145933
0.0145933
0.0145933
0.0145933
0.0145933
0.0145933
0.0145932
0.0145932
0.0145932
0.0145932
0.0145932
0.0145932
0.0145932
0.0145932
0.0145932
0.0145932
0.0145932
0.0145932
0.0145932
0.0145932
0.0145932
0.0145932
0.0145932
0.0145931
0.0145931
0.0145931
0.0145931
0.0145931
0.0145931
0.0145931
0.0145931
0.0145931
0.0145931
0.0145931
0.0145931
0.0145931
0.0145931
0.0145931
0.0145931
0.0145931
0.0145931
0.0145931
0.0145931
0.0145931
0.0145931
0.0145931
0.0145931
0.0145931
0.0145932
0.0145932
0.0145932
0.0145932
0.0145932
0.0145933
0.0145933
0.0145933
0.0145933
0.0145934
0.0145934
0.0145934
0.0145935
0.0145935
0.0145936
0.0145936
0.0145937
0.0145937
0.0145938
0.0145938
0.0145939
0.014594
0.014594
0.0145941
0.0145942
0.0145943
0.0145944
0.0145945
0.0145946
0.0145947
0.0145949
0.014595
0.0145952
0.0145953
0.0145955
0.0145957
0.0145959
0.0145961
0.0145964
0.0145966
0.0145969
0.0145972
0.0145975
0.0145979
0.0145982
0.0145986
0.014599
0.0145995
0.0145937
0.0145937
0.0145937
0.0145938
0.0145938
0.0145939
0.0145939
0.0145939
0.014594
0.014594
0.014594
0.0145941
0.0145941
0.0145941
0.0145941
0.0145941
0.0145941
0.0145941
0.0145941
0.0145941
0.0145941
0.0145941
0.0145941
0.0145941
0.014594
0.014594
0.014594
0.014594
0.0145939
0.0145939
0.0145939
0.0145938
0.0145938
0.0145938
0.0145937
0.0145937
0.0145937
0.0145936
0.0145936
0.0145936
0.0145936
0.0145935
0.0145935
0.0145935
0.0145935
0.0145935
0.0145935
0.0145934
0.0145934
0.0145934
0.0145934
0.0145934
0.0145934
0.0145934
0.0145934
0.0145934
0.0145934
0.0145935
0.0145935
0.0145935
0.0145936
0.0145936
0.0145937
0.0145937
0.0145938
0.0145939
0.014594
0.0145941
0.0145942
0.0145943
0.0145945
0.0145946
0.0145948
0.0145949
0.0145951
0.0145953
0.0145955
0.0145957
0.014596
0.0145962
0.0145965
0.0145967
0.014597
0.0145974
0.0145977
0.0145981
0.0145985
0.0145989
0.0145994
0.0145999
0.0146005
0.0146011
0.0146017
0.0146024
0.0146032
0.014604
0.0146049
0.0146058
0.0146068
0.0146079
0.0146091
0.0146103
0.0146117
0.0146131
0.0146147
0.0146164
0.0146182
0.0146202
0.0146223
0.0146246
0.014627
0.0146297
0.0146325
0.014596
0.0145962
0.0145964
0.0145966
0.0145967
0.0145969
0.0145971
0.0145972
0.0145974
0.0145975
0.0145976
0.0145977
0.0145978
0.0145978
0.0145979
0.0145979
0.0145979
0.0145979
0.0145979
0.0145979
0.0145978
0.0145977
0.0145977
0.0145976
0.0145975
0.0145973
0.0145972
0.0145971
0.014597
0.0145968
0.0145967
0.0145966
0.0145964
0.0145963
0.0145962
0.014596
0.0145959
0.0145958
0.0145957
0.0145956
0.0145954
0.0145953
0.0145953
0.0145952
0.0145951
0.014595
0.014595
0.0145949
0.0145949
0.0145948
0.0145948
0.0145948
0.0145948
0.0145948
0.0145949
0.0145949
0.014595
0.0145951
0.0145952
0.0145954
0.0145956
0.0145958
0.0145961
0.0145964
0.0145967
0.0145971
0.0145976
0.0145981
0.0145987
0.0145993
0.0146
0.0146007
0.0146015
0.0146024
0.0146032
0.0146042
0.0146052
0.0146063
0.0146074
0.0146086
0.0146099
0.0146112
0.0146127
0.0146143
0.014616
0.0146179
0.0146199
0.0146221
0.0146245
0.0146271
0.01463
0.014633
0.0146363
0.0146399
0.0146438
0.0146479
0.0146524
0.0146573
0.0146625
0.0146681
0.0146741
0.0146806
0.0146876
0.0146951
0.0147032
0.0147119
0.0147214
0.0147316
0.0147426
0.0147544
0.0147672
0.014781
0.0147959
0.0146048
0.0146056
0.0146065
0.0146073
0.0146081
0.0146089
0.0146097
0.0146104
0.0146111
0.0146117
0.0146123
0.0146128
0.0146132
0.0146136
0.0146139
0.0146141
0.0146143
0.0146143
0.0146143
0.0146143
0.0146141
0.0146139
0.0146136
0.0146133
0.0146129
0.0146125
0.014612
0.0146115
0.014611
0.0146105
0.0146099
0.0146093
0.0146087
0.0146082
0.0146076
0.014607
0.0146064
0.0146059
0.0146053
0.0146048
0.0146043
0.0146039
0.0146034
0.014603
0.0146026
0.0146023
0.014602
0.0146017
0.0146014
0.0146013
0.0146011
0.014601
0.014601
0.014601
0.014601
0.0146012
0.0146013
0.0146016
0.014602
0.0146025
0.0146031
0.0146038
0.0146048
0.0146058
0.0146071
0.0146086
0.0146104
0.0146123
0.0146146
0.014617
0.0146198
0.0146228
0.0146261
0.0146296
0.0146334
0.0146374
0.0146418
0.0146463
0.0146512
0.0146563
0.0146618
0.0146676
0.0146738
0.0146805
0.0146877
0.0146954
0.0147038
0.0147129
0.0147228
0.0147336
0.0147454
0.0147581
0.014772
0.0147871
0.0148034
0.0148211
0.0148402
0.0148608
0.014883
0.014907
0.0149327
0.0149604
0.0149901
0.0150221
0.0150564
0.0150934
0.0151332
0.0151761
0.0152224
0.0152723
0.0153261
0.0153841
0.0154467
0.015514
0.0155865
0.0146455
0.014649
0.0146525
0.014656
0.0146594
0.0146627
0.0146658
0.0146688
0.0146716
0.0146741
0.0146763
0.0146783
0.01468
0.0146814
0.0146825
0.0146833
0.0146837
0.0146838
0.0146836
0.0146832
0.0146824
0.0146813
0.0146801
0.0146786
0.0146769
0.014675
0.0146729
0.0146707
0.0146685
0.0146661
0.0146637
0.0146612
0.0146588
0.0146563
0.0146539
0.0146515
0.0146491
0.0146468
0.0146446
0.0146425
0.0146405
0.0146386
0.0146368
0.0146351
0.0146336
0.0146322
0.0146309
0.0146299
0.0146289
0.0146282
0.0146277
0.0146274
0.0146275
0.0146276
0.0146279
0.0146285
0.0146295
0.0146309
0.0146327
0.0146351
0.014638
0.0146417
0.014646
0.0146512
0.0146573
0.0146644
0.0146726
0.0146819
0.0146924
0.014704
0.0147169
0.014731
0.0147463
0.0147629
0.0147806
0.0147996
0.0148198
0.0148412
0.0148639
0.014888
0.0149135
0.0149406
0.0149696
0.0150006
0.015034
0.01507
0.0151089
0.0151511
0.0151969
0.0152466
0.0153007
0.0153593
0.0154229
0.0154918
0.0155664
0.015647
0.0157338
0.0158271
0.0159272
0.0160342
0.0161484
0.01627
0.0163992
0.0165363
0.0166818
0.016836
0.0169996
0.0171732
0.0173575
0.0175533
0.0177614
0.0179828
0.0182181
0.0184681
0.0187333
0.0190141
0.0147222
0.014735
0.0147484
0.0147623
0.0147766
0.0147911
0.0148058
0.0148206
0.0148352
0.0148497
0.0148638
0.0148775
0.0148906
0.0149029
0.0149145
0.0149252
0.0149348
0.0149434
0.0149507
0.0149569
0.0149618
0.0149654
0.0149677
0.0149686
0.0149684
0.0149669
0.0149642
0.0149605
0.0149556
0.0149499
0.0149434
0.0149361
0.0149281
0.0149195
0.0149104
0.014901
0.0148913
0.0148814
0.0148714
0.0148614
0.0148514
0.0148416
0.014832
0.0148226
0.0148134
0.0148046
0.0147961
0.0147881
0.0147805
0.0147735
0.014767
0.014761
0.0147556
0.0147509
0.0147468
0.0147434
0.0147408
0.0147392
0.0147389
0.0147393
0.0147402
0.0147421
0.0147454
0.0147503
0.014757
0.0147657
0.0147767
0.0147903
0.014807
0.014827
0.0148508
0.0148786
0.0149109
0.014948
0.0149901
0.0150373
0.0150897
0.0151473
0.01521
0.0152777
0.0153503
0.0154277
0.0155099
0.0155969
0.0156888
0.0157856
0.0158877
0.0159953
0.016109
0.0162293
0.0163572
0.0164933
0.0166386
0.0167938
0.0169597
0.0171369
0.0173262
0.0175285
0.0177444
0.0179746
0.01822
0.018481
0.0187583
0.0190521
0.0193627
0.01969
0.0200336
0.0203929
0.0207673
0.021156
0.021558
0.0219726
0.0223991
0.0228372
0.0232869
0.0237483
0.0242222
0.0247093
0.0252109
0.0257283
0.0262626
0.0268152
0.0273868
0.015145
0.0151968
0.0152503
0.0153053
0.0153613
0.0154179
0.0154746
0.015531
0.0155865
0.0156406
0.0156928
0.0157427
0.01579
0.0158341
0.0158747
0.0159116
0.0159444
0.015973
0.0159971
0.0160167
0.0160316
0.0160418
0.0160471
0.0160477
0.0160443
0.0160363
0.016024
0.0160078
0.0159883
0.0159658
0.0159405
0.0159125
0.0158822
0.0158498
0.0158158
0.0157804
0.0157442
0.0157073
0.0156702
0.015633
0.0155962
0.0155598
0.0155242
0.0154894
0.0154556
0.015423
0.0153917
0.0153621
0.0153343
0.0153084
0.0152845
0.0152629
0.0152436
0.0152266
0.0152121
0.0152005
0.0151923
0.015189
0.0151894
0.0151918
0.0151974
0.0152079
0.015224
0.0152466
0.0152765
0.0153149
0.015363
0.015422
0.0154933
0.0155781
0.0156779
0.0157937
0.0159268
0.0160779
0.0162474
0.016435
0.0166398
0.0168607
0.0170963
0.0173453
0.0176061
0.0178778
0.0181595
0.0184507
0.0187514
0.0190616
0.0193818
0.0197126
0.020055
0.0204103
0.0207801
0.0211656
0.0215675
0.021986
0.0224212
0.0228727
0.0233402
0.0238231
0.0243214
0.0248346
0.025363
0.0259067
0.0264661
0.0270414
0.0276328
0.0282399
0.0288621
0.0294978
0.030145
0.0308006
0.0314613
0.0321227
0.0327806
0.0334303
0.0340675
0.0346879
0.0352878
0.0358641
0.0364143
0.0369363
0.037429
0.0378917
0.0383241
0.0167491
0.0169263
0.0171059
0.017287
0.0174682
0.0176482
0.0178255
0.0179985
0.0181659
0.0183261
0.018478
0.0186205
0.0187526
0.0188735
0.0189826
0.0190793
0.0191634
0.0192346
0.0192927
0.0193379
0.0193699
0.0193888
0.0193936
0.0193887
0.0193712
0.0193408
0.0192991
0.0192476
0.0191879
0.0191205
0.0190459
0.018964
0.0188754
0.0187808
0.0186812
0.018578
0.0184721
0.0183642
0.018255
0.0181454
0.0180361
0.017928
0.0178215
0.0177171
0.0176152
0.0175163
0.0174213
0.0173309
0.0172457
0.0171664
0.0170934
0.0170276
0.0169691
0.0169181
0.0168751
0.0168422
0.0168231
0.0168209
0.0168258
0.0168396
0.0168676
0.0169127
0.0169776
0.0170647
0.0171771
0.0173181
0.0174911
0.0176992
0.017945
0.0182301
0.0185562
0.0189244
0.0193352
0.0197879
0.0202796
0.0208062
0.0213621
0.0219407
0.0225354
0.0231398
0.0237481
0.0243556
0.0249596
0.0255586
0.0261528
0.0267431
0.0273312
0.0279194
0.0285103
0.0291071
0.029713
0.0303294
0.0309566
0.0315928
0.0322353
0.0328801
0.0335229
0.0341587
0.0347823
0.0353889
0.0359741
0.0365344
0.0370669
0.0375696
0.0380411
0.038481
0.0388891
0.0392658
0.0396121
0.039929
0.0402177
0.0404796
0.0407165
0.0409299
0.0411213
0.0412925
0.0414454
0.0415821
0.0417047
0.0418153
0.0419165
0.0420106
0.0421002
0.02142
0.0218403
0.0222515
0.0226519
0.02304
0.0234141
0.0237723
0.0241129
0.0244341
0.0247341
0.0250116
0.0252655
0.0254949
0.0256991
0.0258779
0.0260314
0.0261599
0.0262637
0.0263432
0.0263996
0.0264342
0.0264424
0.0264338
0.0264058
0.0263564
0.0262838
0.0261911
0.0260844
0.0259661
0.0258366
0.025695
0.0255405
0.0253729
0.0251936
0.0250045
0.0248084
0.0246069
0.024401
0.0241914
0.0239793
0.0237663
0.0235538
0.023343
0.0231345
0.0229293
0.0227286
0.0225341
0.0223478
0.0221713
0.0220063
0.0218545
0.021718
0.021598
0.0214939
0.0214074
0.0213481
0.0213286
0.021335
0.0213592
0.0214125
0.0215018
0.0216326
0.0218103
0.0220401
0.0223273
0.0226773
0.0230943
0.0235801
0.024133
0.024749
0.0254231
0.0261503
0.0269247
0.0277384
0.0285816
0.0294433
0.0303122
0.0311772
0.0320277
0.0328537
0.0336458
0.0343964
0.0351009
0.0357573
0.0363654
0.0369262
0.0374421
0.037916
0.0383517
0.0387532
0.0391241
0.0394669
0.0397835
0.0400758
0.0403448
0.0405912
0.0408159
0.04102
0.0412045
0.0413704
0.0415192
0.0416527
0.0417728
0.0418816
0.0419815
0.042075
0.0421643
0.0422519
0.0423392
0.0424271
0.0425158
0.0426066
0.0426987
0.0427899
0.0428809
0.0429724
0.0430639
0.0431551
0.0432465
0.0433385
0.0434311
0.0435242
0.0436173
0.0437098
0.043801
0.0301457
0.0307374
0.0312911
0.0318068
0.0322858
0.0327288
0.0331371
0.0335118
0.0338534
0.0341617
0.0344374
0.0346814
0.0348938
0.0350741
0.0352232
0.0353426
0.0354342
0.0354987
0.0355363
0.0355449
0.0355375
0.0355112
0.0354622
0.0353914
0.0353006
0.0351875
0.0350552
0.0349118
0.0347587
0.0345981
0.0344274
0.0342422
0.0340424
0.0338299
0.0336067
0.0333762
0.0331412
0.032902
0.0326578
0.0324091
0.0321579
0.0319062
0.0316554
0.0314064
0.0311601
0.030918
0.0306821
0.0304554
0.0302408
0.03004
0.029856
0.0296943
0.0295564
0.0294375
0.0293409
0.0293015
0.0293096
0.0293422
0.0294119
0.029528
0.0296976
0.0299268
0.030222
0.0305885
0.0310297
0.0315481
0.0321445
0.0328122
0.0335365
0.0342985
0.0350795
0.0358629
0.0366313
0.0373654
0.0380478
0.0386677
0.0392221
0.0397131
0.0401453
0.0405242
0.0408515
0.0411297
0.0413632
0.0415568
0.0417157
0.0418461
0.041954
0.0420445
0.0421215
0.0421895
0.0422537
0.0423171
0.0423813
0.0424477
0.0425169
0.0425894
0.0426661
0.0427459
0.042827
0.0429104
0.0429966
0.0430846
0.0431738
0.0432645
0.0433564
0.0434492
0.0435417
0.0436331
0.043723
0.043812
0.0439004
0.0439872
0.0440723
0.0441581
0.0442445
0.0443308
0.0444188
0.0445094
0.0446023
0.0446968
0.0447925
0.0448888
0.0449856
0.0450832
0.0451817
0.0399981
0.0404546
0.0408508
0.0411875
0.0414687
0.0416991
0.0418829
0.0420247
0.0421298
0.0422028
0.0422448
0.0422585
0.0422549
0.0422335
0.0421882
0.0421251
0.0420498
0.0419639
0.041867
0.0417597
0.0416479
0.0415327
0.0414095
0.0412764
0.0411368
0.0409971
0.0408597
0.0407209
0.0405833
0.0404415
0.0402933
0.0401403
0.0399864
0.0398321
0.0396769
0.0395226
0.0393706
0.03922
0.0390693
0.038918
0.0387669
0.0386169
0.0384689
0.0383234
0.0381811
0.0380426
0.037909
0.0377822
0.0376633
0.037553
0.0374553
0.037375
0.0373109
0.0372627
0.0372449
0.0372539
0.0372836
0.0373401
0.0374313
0.0375581
0.0377189
0.0379171
0.0381581
0.0384358
0.0387404
0.0390745
0.0394376
0.0398101
0.0401756
0.0405258
0.0408575
0.0411686
0.0414543
0.0417107
0.0419362
0.0421303
0.0422947
0.0424332
0.0425534
0.0426593
0.0427536
0.0428439
0.0429289
0.0430084
0.0430843
0.0431582
0.0432313
0.0433037
0.043374
0.0434435
0.043514
0.0435846
0.0436543
0.0437236
0.0437938
0.0438659
0.043939
0.0440139
0.0440921
0.0441731
0.0442556
0.0443411
0.04443
0.0445216
0.0446148
0.0447088
0.0448034
0.0448993
0.0449961
0.0450936
0.0451919
0.045291
0.0453922
0.0454964
0.0456036
0.0457146
0.0458284
0.0459442
0.0460618
0.0461809
0.0463016
0.046424
0.0465482
0.0466748
0.0468037
0.0457571
0.045797
0.0458004
0.0457803
0.0457245
0.0456414
0.045541
0.0454279
0.045304
0.0451749
0.045042
0.0448992
0.0447593
0.0446218
0.0444764
0.044329
0.044187
0.0440397
0.0438924
0.0437511
0.0436087
0.0434605
0.0433161
0.0431732
0.0430303
0.0428865
0.042745
0.0426061
0.0424691
0.042337
0.0422075
0.0420775
0.041947
0.0418179
0.0416911
0.041567
0.0414463
0.04133
0.0412187
0.0411122
0.0410108
0.0409145
0.0408235
0.0407382
0.0406591
0.0405869
0.0405219
0.0404647
0.0404154
0.0403739
0.0403402
0.0403152
0.0403049
0.0403058
0.0403159
0.0403413
0.0403784
0.0404223
0.0404808
0.0405564
0.0406468
0.0407512
0.040873
0.0410118
0.0411603
0.0413177
0.0414925
0.0416758
0.041844
0.042012
0.0421844
0.0423591
0.0425319
0.042702
0.0428654
0.0430196
0.0431666
0.0433079
0.0434455
0.0435803
0.0437082
0.0438246
0.0439325
0.0440328
0.0441274
0.0442182
0.0443047
0.0443862
0.0444643
0.0445403
0.044615
0.0446891
0.044764
0.04484
0.0449174
0.0449969
0.0450792
0.045165
0.0452553
0.0453503
0.0454502
0.0455552
0.0456643
0.0457762
0.0458903
0.0460064
0.0461244
0.0462446
0.0463669
0.0464915
0.0466184
0.0467481
0.0468809
0.0470171
0.0471567
0.0472995
0.0474451
0.0475929
0.0477428
0.0478948
0.0480491
0.0482059
0.0483655
0.048528
0.0486935
0.0488624
0.0475089
0.0473888
0.0472663
0.04714
0.0470086
0.0468784
0.0467504
0.0466179
0.0464832
0.0463516
0.0462171
0.0460752
0.0459344
0.0457949
0.0456495
0.0455006
0.0453572
0.0452108
0.0450638
0.044923
0.0447826
0.0446366
0.0444945
0.0443561
0.0442197
0.0440829
0.0439478
0.043814
0.0436826
0.0435562
0.0434334
0.0433108
0.0431878
0.0430662
0.042947
0.0428302
0.042716
0.0426051
0.042498
0.042395
0.0422964
0.0422027
0.0421139
0.0420301
0.0419517
0.0418791
0.0418128
0.0417532
0.0417002
0.0416541
0.041615
0.0415832
0.0415623
0.0415575
0.0415608
0.0415737
0.0415976
0.0416318
0.0416784
0.0417388
0.0418129
0.0419009
0.0420041
0.0421215
0.0422489
0.0423859
0.0425385
0.0427002
0.0428514
0.0430071
0.043171
0.0433396
0.0435073
0.0436714
0.0438303
0.0439836
0.0441348
0.0442874
0.0444404
0.0445907
0.0447352
0.0448744
0.0450083
0.0451369
0.0452602
0.0453783
0.0454917
0.0456018
0.0457083
0.0458113
0.0459122
0.0460125
0.046113
0.0462148
0.0463188
0.0464261
0.0465379
0.0466549
0.0467774
0.0469053
0.0470383
0.0471757
0.0473166
0.0474606
0.0476073
0.0477569
0.0479092
0.0480643
0.0482223
0.0483833
0.0485474
0.0487146
0.0488851
0.0490585
0.0492347
0.0494135
0.0495947
0.0497784
0.0499646
0.0501535
0.0503451
0.0505395
0.0507368
0.050937
0.0511402
0.0513463
0.0515553
0.051767
0.0485376
0.0483944
0.0482506
0.0481076
0.0479627
0.0478166
0.0476738
0.04753
0.0473862
0.0472475
0.0471067
0.0469589
0.0468195
0.046684
0.0465404
0.0463944
0.0462611
0.0461267
0.0459869
0.0458553
0.0457288
0.0455968
0.0454637
0.0453371
0.0452141
0.0450918
0.0449704
0.04485
0.0447311
0.0446148
0.0445017
0.0443902
0.0442794
0.04417
0.0440625
0.0439566
0.0438519
0.043749
0.0436487
0.0435519
0.0434593
0.0433714
0.0432881
0.0432094
0.0431356
0.0430669
0.043004
0.0429469
0.0428957
0.0428505
0.0428117
0.0427792
0.0427548
0.0427465
0.0427483
0.0427563
0.0427729
0.0427995
0.0428374
0.0428872
0.0429492
0.043025
0.0431154
0.0432169
0.0433283
0.0434524
0.043587
0.0437175
0.043857
0.0440094
0.0441731
0.0443403
0.0445087
0.0446778
0.0448502
0.0450286
0.0452123
0.0453992
0.0455872
0.0457741
0.0459586
0.0461401
0.0463175
0.0464898
0.0466563
0.0468169
0.0469716
0.0471207
0.0472642
0.0474033
0.0475395
0.0476743
0.0478089
0.0479447
0.0480832
0.0482255
0.0483727
0.0485251
0.0486827
0.0488453
0.0490124
0.0491836
0.0493585
0.0495368
0.0497183
0.0499029
0.0500903
0.0502805
0.0504735
0.0506693
0.0508679
0.0510692
0.051273
0.0514794
0.0516882
0.0518995
0.0521132
0.0523293
0.0525478
0.0527688
0.0529921
0.0532178
0.0534458
0.053676
0.0539084
0.0541429
0.0543795
0.0546181
0.0492612
0.0491155
0.0489721
0.0488307
0.0486925
0.0485593
0.0484271
0.0482931
0.0481625
0.0480346
0.0479024
0.0477696
0.0476483
0.0475267
0.0473946
0.0472678
0.0471545
0.0470376
0.0469136
0.0467988
0.0466901
0.0465755
0.046458
0.0463487
0.0462423
0.0461366
0.0460321
0.0459286
0.0458256
0.0457236
0.0456237
0.0455255
0.0454284
0.0453327
0.0452386
0.0451455
0.0450526
0.04496
0.0448687
0.04478
0.0446951
0.0446144
0.0445379
0.0444654
0.044397
0.0443331
0.0442742
0.0442203
0.0441713
0.0441274
0.044089
0.0440561
0.0440299
0.0440166
0.0440164
0.0440208
0.044033
0.0440549
0.0440874
0.0441312
0.0441877
0.0442582
0.044342
0.0444364
0.0445445
0.0446636
0.044783
0.0449132
0.0450593
0.0452225
0.0453971
0.0455787
0.0457659
0.0459601
0.0461643
0.0463791
0.0466021
0.0468306
0.0470621
0.0472948
0.0475269
0.0477567
0.0479821
0.0482014
0.0484135
0.0486177
0.0488138
0.0490022
0.0491837
0.0493596
0.0495316
0.0497013
0.0498702
0.0500401
0.0502124
0.0503883
0.0505684
0.0507532
0.0509427
0.0511368
0.0513352
0.0515375
0.0517434
0.0519524
0.0521643
0.0523788
0.0525957
0.0528149
0.0530363
0.0532598
0.0534855
0.0537134
0.0539433
0.0541754
0.0544095
0.0546457
0.0548837
0.0551237
0.0553653
0.0556087
0.0558536
0.0560999
0.0563476
0.0565967
0.056847
0.0570986
0.0573513
0.0576052
0.0499577
0.0498281
0.0497016
0.0495784
0.0494593
0.0493425
0.0492253
0.049109
0.0489966
0.0488846
0.0487703
0.0486625
0.0485611
0.0484569
0.0483453
0.048247
0.0481548
0.0480572
0.0479543
0.0478614
0.0477732
0.0476788
0.0475821
0.0474935
0.0474079
0.0473219
0.0472367
0.0471528
0.0470694
0.0469863
0.0469041
0.0468234
0.0467438
0.0466654
0.046588
0.046511