/*--------------------------------*- C++ -*----------------------------------*\
| =========                 |                                                 |
| \\      /  F ield         | OpenFOAM: The Open Source CFD Toolbox           |
|  \\    /   O peration     | Version:  v1706                                 |
|   \\  /    A nd           | Web:      www.OpenFOAM.com                      |
|    \\/     M anipulation  |                                                 |
\*---------------------------------------------------------------------------*/
FoamFile
{
    version     2.0;
    format      ascii;
    class       volScalarField;
    location    "5e-06";
    object      kappave;
}
// * * * * * * * * * * * * * * * * * * * * * * * * * * * * * * * * * * * * * //

dimensions      [1 1 -3 -1 0 0 0];


internalField   nonuniform List<scalar> 
29871
(
1.46038e-10
1.46038e-10
1.46038e-10
1.46038e-10
1.46038e-10
1.46038e-10
1.46038e-10
1.46038e-10
1.46038e-10
1.46038e-10
1.46038e-10
1.46038e-10
1.46038e-10
1.46038e-10
1.46038e-10
1.46038e-10
1.46038e-10
1.46038e-10
1.46038e-10
1.46038e-10
1.46038e-10
1.46038e-10
1.46038e-10
1.46038e-10
1.46038e-10
1.46038e-10
1.46038e-10
1.46038e-10
1.46038e-10
1.46038e-10
1.46038e-10
1.46038e-10
1.46038e-10
1.46038e-10
1.46038e-10
1.46038e-10
1.46038e-10
1.46038e-10
1.46038e-10
1.46038e-10
1.46038e-10
1.46038e-10
1.46038e-10
1.46038e-10
1.46038e-10
1.46038e-10
1.46038e-10
1.46038e-10
1.46038e-10
1.46038e-10
1.46038e-10
1.46038e-10
1.46038e-10
1.46038e-10
1.46038e-10
1.46038e-10
1.46038e-10
1.46038e-10
1.46038e-10
1.46038e-10
1.46038e-10
1.46038e-10
1.46038e-10
1.46038e-10
1.46038e-10
1.46038e-10
1.46038e-10
1.46038e-10
1.46038e-10
1.46038e-10
1.46038e-10
1.46038e-10
1.46038e-10
1.46038e-10
1.46038e-10
1.46038e-10
1.46038e-10
1.46038e-10
1.46038e-10
1.46038e-10
1.46038e-10
1.46038e-10
1.46038e-10
1.46038e-10
1.46038e-10
1.46038e-10
1.46038e-10
1.46038e-10
1.46038e-10
1.46038e-10
1.46038e-10
1.46038e-10
1.46038e-10
1.46038e-10
1.46038e-10
1.46038e-10
1.46038e-10
1.46038e-10
1.46038e-10
1.46038e-10
1.46038e-10
1.46038e-10
1.46038e-10
1.46038e-10
1.46038e-10
1.46038e-10
1.46038e-10
1.46038e-10
1.46038e-10
1.46038e-10
1.46038e-10
1.46038e-10
1.46038e-10
1.46038e-10
1.46038e-10
1.46038e-10
1.46038e-10
1.46038e-10
1.46038e-10
1.46038e-10
1.46038e-10
1.46038e-10
1.46038e-10
1.46038e-10
1.46038e-10
1.46038e-10
1.46038e-10
1.46038e-10
1.46038e-10
1.46038e-10
1.46038e-10
1.46038e-10
1.46038e-10
1.46038e-10
1.46038e-10
1.46038e-10
1.46038e-10
1.46038e-10
1.46038e-10
1.46038e-10
1.46038e-10
1.46038e-10
1.46038e-10
1.46038e-10
1.46038e-10
1.46038e-10
1.46038e-10
1.46038e-10
1.46038e-10
1.46038e-10
1.46038e-10
1.46038e-10
1.46038e-10
1.46038e-10
1.46038e-10
1.46038e-10
1.46038e-10
1.46038e-10
1.46038e-10
1.46038e-10
1.46038e-10
1.46038e-10
1.46038e-10
1.46038e-10
1.46038e-10
1.46038e-10
1.46038e-10
1.46038e-10
1.46038e-10
1.46038e-10
1.46038e-10
1.46038e-10
1.46038e-10
1.46038e-10
1.46038e-10
1.46038e-10
1.46038e-10
1.46038e-10
1.46038e-10
1.46038e-10
1.46038e-10
1.46038e-10
1.46038e-10
1.46038e-10
1.46038e-10
1.46038e-10
1.46038e-10
1.46038e-10
1.46038e-10
1.46038e-10
1.46038e-10
1.46038e-10
1.46038e-10
1.46038e-10
1.46038e-10
1.46038e-10
1.46038e-10
1.46038e-10
1.46038e-10
1.46038e-10
1.46038e-10
1.46038e-10
1.46038e-10
1.46038e-10
1.46038e-10
1.46038e-10
1.46038e-10
1.46038e-10
1.46038e-10
1.46038e-10
1.46038e-10
1.46038e-10
1.46038e-10
1.46038e-10
1.46038e-10
1.46038e-10
1.46038e-10
1.46038e-10
1.46038e-10
1.46038e-10
1.46038e-10
1.46038e-10
1.46038e-10
1.46038e-10
1.46038e-10
1.46038e-10
1.46038e-10
1.46038e-10
1.46038e-10
1.46038e-10
1.46038e-10
1.46038e-10
1.46038e-10
1.46038e-10
1.46038e-10
1.46038e-10
1.46038e-10
1.46038e-10
1.46038e-10
1.46038e-10
1.46038e-10
1.46038e-10
1.46038e-10
1.46038e-10
1.46038e-10
1.46038e-10
1.46038e-10
1.46038e-10
1.46038e-10
1.46038e-10
1.46038e-10
1.46038e-10
1.46038e-10
1.46038e-10
1.46038e-10
1.46038e-10
1.46038e-10
1.46038e-10
1.46038e-10
1.46038e-10
1.46038e-10
1.46038e-10
1.46038e-10
1.46038e-10
1.46038e-10
1.46038e-10
1.46038e-10
1.46038e-10
1.46038e-10
1.46038e-10
1.46038e-10
1.46038e-10
1.46038e-10
1.46038e-10
1.46038e-10
1.46038e-10
1.46038e-10
1.46038e-10
1.46038e-10
1.46038e-10
1.46038e-10
1.46038e-10
1.46038e-10
1.46038e-10
1.46038e-10
1.46038e-10
1.46038e-10
1.46038e-10
1.46038e-10
1.46038e-10
1.46038e-10
1.46038e-10
1.46038e-10
1.46038e-10
1.46038e-10
1.46038e-10
1.46038e-10
1.46038e-10
1.46038e-10
1.46038e-10
1.46038e-10
1.46038e-10
1.46038e-10
1.46038e-10
1.46038e-10
1.46038e-10
1.46038e-10
1.46038e-10
1.46038e-10
1.46038e-10
1.46038e-10
1.46038e-10
1.46038e-10
1.46038e-10
1.46038e-10
1.46038e-10
1.46038e-10
1.46038e-10
1.46038e-10
1.46038e-10
1.46038e-10
1.46038e-10
1.46038e-10
1.46038e-10
1.46038e-10
1.46038e-10
1.46038e-10
1.46038e-10
1.46038e-10
1.46038e-10
1.46038e-10
1.46038e-10
1.46038e-10
1.46038e-10
1.46038e-10
1.46038e-10
1.46038e-10
1.46038e-10
1.46038e-10
1.46038e-10
1.46038e-10
1.46038e-10
1.46038e-10
1.46038e-10
1.46038e-10
1.46038e-10
1.46038e-10
1.46038e-10
1.46038e-10
1.46038e-10
1.46038e-10
1.46038e-10
1.46038e-10
1.46038e-10
1.46038e-10
1.46038e-10
1.46038e-10
1.46038e-10
1.46038e-10
1.46038e-10
1.46038e-10
1.46038e-10
1.46038e-10
1.46038e-10
1.46038e-10
1.46038e-10
1.46038e-10
1.46038e-10
1.46038e-10
1.46038e-10
1.46038e-10
1.46038e-10
1.46038e-10
1.46038e-10
1.46038e-10
1.46038e-10
1.46038e-10
1.46038e-10
1.46038e-10
1.46038e-10
1.46038e-10
1.46038e-10
1.46038e-10
1.46038e-10
1.46038e-10
1.46038e-10
1.46038e-10
1.46038e-10
1.46038e-10
1.46038e-10
1.46038e-10
1.46038e-10
1.46038e-10
1.46038e-10
1.46038e-10
1.46038e-10
1.46038e-10
1.46038e-10
1.46038e-10
1.46038e-10
1.46038e-10
1.46038e-10
1.46038e-10
1.46038e-10
1.46038e-10
1.46038e-10
1.46038e-10
1.46038e-10
1.46038e-10
1.46038e-10
1.46038e-10
1.46038e-10
1.46038e-10
1.46038e-10
1.46038e-10
1.46038e-10
1.46038e-10
1.46038e-10
1.46038e-10
1.46038e-10
1.46038e-10
1.46038e-10
1.46038e-10
1.46038e-10
1.46038e-10
1.46038e-10
1.46038e-10
1.46038e-10
1.46038e-10
1.46038e-10
1.46038e-10
1.46038e-10
1.46038e-10
1.46038e-10
1.46038e-10
1.46038e-10
1.46038e-10
1.46038e-10
1.46038e-10
1.46038e-10
1.46038e-10
1.46038e-10
1.46038e-10
1.46038e-10
1.46038e-10
1.46038e-10
1.46038e-10
1.46038e-10
1.46038e-10
1.46038e-10
1.46038e-10
1.46038e-10
1.46038e-10
1.46038e-10
1.46038e-10
1.46038e-10
1.46038e-10
1.46038e-10
1.46038e-10
1.46038e-10
1.46038e-10
1.46038e-10
1.46038e-10
1.46038e-10
1.46038e-10
1.46038e-10
1.46038e-10
1.46038e-10
1.46038e-10
1.46038e-10
1.46038e-10
1.46038e-10
1.46038e-10
1.46038e-10
1.46038e-10
1.46038e-10
1.46038e-10
1.46038e-10
1.46038e-10
1.46038e-10
1.46038e-10
1.46038e-10
1.46038e-10
1.46038e-10
1.46038e-10
1.46038e-10
1.46038e-10
1.46038e-10
1.46038e-10
1.46038e-10
1.46038e-10
1.46038e-10
1.46038e-10
1.46038e-10
1.46038e-10
1.46038e-10
1.46038e-10
1.46038e-10
1.46038e-10
1.46038e-10
1.46038e-10
1.46038e-10
1.46038e-10
1.46038e-10
1.46038e-10
1.46038e-10
1.46038e-10
1.46038e-10
1.46038e-10
1.46038e-10
1.46038e-10
1.46038e-10
1.46038e-10
1.46038e-10
1.46038e-10
1.46038e-10
1.46038e-10
1.46038e-10
1.46038e-10
1.46038e-10
1.46038e-10
1.46038e-10
1.46038e-10
1.46038e-10
1.46038e-10
1.46038e-10
1.46038e-10
1.46038e-10
1.46038e-10
1.46038e-10
1.46038e-10
1.46038e-10
1.46038e-10
1.46038e-10
1.46038e-10
1.46038e-10
1.46038e-10
1.46038e-10
1.46038e-10
1.46038e-10
1.46038e-10
1.46038e-10
1.46038e-10
1.46038e-10
1.46038e-10
1.46038e-10
1.46038e-10
1.46038e-10
1.46038e-10
1.46038e-10
1.46038e-10
1.46038e-10
1.46038e-10
1.46038e-10
1.46038e-10
1.46038e-10
1.46038e-10
1.46038e-10
1.46038e-10
1.46038e-10
1.46038e-10
1.46038e-10
1.46038e-10
1.46038e-10
1.46038e-10
1.46038e-10
1.46038e-10
1.46038e-10
1.46038e-10
1.46038e-10
1.46038e-10
1.46038e-10
1.46038e-10
1.46038e-10
1.46038e-10
1.46038e-10
1.46038e-10
1.46038e-10
1.46038e-10
1.46038e-10
1.46038e-10
1.46038e-10
1.46038e-10
1.46038e-10
1.46038e-10
1.46038e-10
1.46038e-10
1.46038e-10
1.46038e-10
1.46038e-10
1.46038e-10
1.46038e-10
1.46038e-10
1.46038e-10
1.46038e-10
1.46038e-10
1.46038e-10
1.46038e-10
1.46038e-10
1.46038e-10
1.46038e-10
1.46038e-10
1.46038e-10
1.46038e-10
1.46038e-10
1.46038e-10
1.46038e-10
1.46038e-10
1.46038e-10
1.46038e-10
1.46038e-10
1.46038e-10
1.46038e-10
1.46038e-10
1.46038e-10
1.46038e-10
1.46038e-10
1.46038e-10
1.46038e-10
1.46038e-10
1.46038e-10
1.46038e-10
1.46038e-10
1.46038e-10
1.46038e-10
1.46038e-10
1.46038e-10
1.46038e-10
1.46038e-10
1.46038e-10
1.46038e-10
1.46038e-10
1.46038e-10
1.46038e-10
1.46038e-10
1.46038e-10
1.46038e-10
1.46038e-10
1.46038e-10
1.46038e-10
1.46038e-10
1.46038e-10
1.46038e-10
1.46038e-10
1.46038e-10
1.46038e-10
1.46038e-10
1.46038e-10
1.46038e-10
1.46038e-10
1.46038e-10
1.46038e-10
1.46038e-10
1.46038e-10
1.46038e-10
1.46038e-10
1.46038e-10
1.46038e-10
1.46038e-10
1.46038e-10
1.46038e-10
1.46038e-10
1.46038e-10
1.46038e-10
1.46038e-10
1.46038e-10
1.46038e-10
1.46038e-10
1.46038e-10
1.46038e-10
1.46038e-10
1.46038e-10
1.46038e-10
1.46038e-10
1.46038e-10
1.46038e-10
1.46038e-10
1.46038e-10
1.46038e-10
1.46038e-10
1.46038e-10
1.46038e-10
1.46038e-10
1.46038e-10
1.46038e-10
1.46038e-10
1.46038e-10
1.46038e-10
1.46038e-10
1.46038e-10
1.46038e-10
1.46038e-10
1.46038e-10
1.46038e-10
1.46038e-10
1.46038e-10
1.46038e-10
1.46038e-10
1.46038e-10
1.46038e-10
1.46038e-10
1.46038e-10
1.46038e-10
1.46038e-10
1.46038e-10
1.46038e-10
1.46038e-10
1.46038e-10
1.46038e-10
1.46038e-10
1.46038e-10
1.46038e-10
1.46038e-10
1.46038e-10
1.46038e-10
1.46038e-10
1.46038e-10
1.46038e-10
1.46038e-10
1.46038e-10
1.46038e-10
1.46038e-10
1.46038e-10
1.46038e-10
1.46038e-10
1.46038e-10
1.46038e-10
1.46038e-10
1.46038e-10
1.46038e-10
1.46038e-10
1.46038e-10
1.46038e-10
1.46038e-10
1.46038e-10
1.46038e-10
1.46038e-10
1.46038e-10
1.46038e-10
1.46038e-10
1.46038e-10
1.46038e-10
1.46038e-10
1.46038e-10
1.46038e-10
1.46038e-10
1.46038e-10
1.46038e-10
1.46038e-10
1.46038e-10
1.46038e-10
1.46038e-10
1.46038e-10
1.46038e-10
1.46038e-10
1.46038e-10
1.46038e-10
1.46038e-10
1.46038e-10
1.46038e-10
1.46038e-10
1.46038e-10
1.46038e-10
1.46038e-10
1.46038e-10
1.46038e-10
1.46038e-10
1.46038e-10
1.46038e-10
1.46038e-10
1.46038e-10
1.46038e-10
1.46038e-10
1.46038e-10
1.46038e-10
1.46038e-10
1.46038e-10
1.46038e-10
1.46038e-10
1.46038e-10
1.46038e-10
1.46038e-10
1.46038e-10
1.46038e-10
1.46038e-10
1.46038e-10
1.46038e-10
1.46038e-10
1.46038e-10
1.46038e-10
1.46038e-10
1.46038e-10
1.46038e-10
1.46038e-10
1.46038e-10
1.46038e-10
1.46038e-10
1.46038e-10
1.46038e-10
1.46038e-10
1.46038e-10
1.46038e-10
1.46038e-10
1.46038e-10
1.46038e-10
1.46038e-10
1.46038e-10
1.46038e-10
1.46038e-10
1.46038e-10
1.46038e-10
1.46038e-10
1.46038e-10
1.46038e-10
1.46038e-10
1.46038e-10
1.46038e-10
1.46038e-10
1.46038e-10
1.46038e-10
1.46038e-10
1.46038e-10
1.46038e-10
1.46038e-10
1.46038e-10
1.46038e-10
1.46038e-10
1.46038e-10
1.46038e-10
1.46038e-10
1.46038e-10
1.46038e-10
1.46038e-10
1.46038e-10
1.46038e-10
1.46038e-10
1.46038e-10
1.46038e-10
1.46038e-10
1.46038e-10
1.46038e-10
1.46038e-10
1.46038e-10
1.46038e-10
1.46038e-10
1.46038e-10
1.46038e-10
1.46038e-10
1.46038e-10
1.46038e-10
1.46038e-10
1.46038e-10
1.46038e-10
1.46038e-10
1.46038e-10
1.46038e-10
1.46038e-10
1.46038e-10
1.46038e-10
1.46038e-10
1.46038e-10
1.46038e-10
1.46038e-10
1.46038e-10
1.46038e-10
1.46038e-10
1.46038e-10
1.46038e-10
1.46038e-10
1.46038e-10
1.46038e-10
1.46038e-10
1.46038e-10
1.46038e-10
1.46038e-10
1.46038e-10
1.46038e-10
1.46038e-10
1.46038e-10
1.46038e-10
1.46038e-10
1.46038e-10
1.46038e-10
1.46038e-10
1.46038e-10
1.46038e-10
1.46038e-10
1.46038e-10
1.46038e-10
1.46038e-10
1.46038e-10
1.46038e-10
1.46038e-10
1.46038e-10
1.46038e-10
1.46038e-10
1.46038e-10
1.46038e-10
1.46038e-10
1.46038e-10
1.46038e-10
1.46038e-10
1.46038e-10
1.46038e-10
1.46038e-10
1.46038e-10
1.46038e-10
1.46038e-10
1.46038e-10
1.46038e-10
1.46038e-10
1.46038e-10
1.46038e-10
1.46038e-10
1.46038e-10
1.46038e-10
1.46038e-10
1.46038e-10
1.46038e-10
1.46038e-10
1.46038e-10
1.46038e-10
1.46038e-10
1.46038e-10
1.46038e-10
1.46038e-10
1.46038e-10
1.46038e-10
1.46038e-10
1.46038e-10
1.46038e-10
1.46038e-10
1.46038e-10
1.46038e-10
1.46038e-10
1.46038e-10
1.46038e-10
1.46038e-10
1.46038e-10
1.46038e-10
1.46038e-10
1.46038e-10
1.46038e-10
1.46038e-10
1.46038e-10
1.46038e-10
1.46038e-10
1.46038e-10
1.46038e-10
1.46038e-10
1.46038e-10
1.46038e-10
1.46038e-10
1.46038e-10
1.46038e-10
1.46038e-10
1.46038e-10
1.46038e-10
1.46038e-10
1.46038e-10
1.46038e-10
1.46038e-10
1.46038e-10
1.46038e-10
1.46038e-10
1.46038e-10
1.46038e-10
1.46038e-10
1.46038e-10
1.46038e-10
1.46038e-10
1.46038e-10
1.46038e-10
1.46038e-10
1.46038e-10
1.46038e-10
1.46038e-10
1.46038e-10
1.46038e-10
1.46038e-10
1.46038e-10
1.46038e-10
1.46038e-10
1.46038e-10
1.46038e-10
1.46038e-10
1.46038e-10
1.46038e-10
1.46038e-10
1.46038e-10
1.46038e-10
1.46038e-10
1.46038e-10
1.46038e-10
1.46038e-10
1.46038e-10
1.46038e-10
1.46038e-10
1.46038e-10
1.46038e-10
1.46038e-10
1.46038e-10
1.46038e-10
1.46038e-10
1.46038e-10
1.46038e-10
1.46038e-10
1.46038e-10
1.46038e-10
1.46038e-10
1.46038e-10
1.46038e-10
1.46038e-10
1.46038e-10
1.46038e-10
1.46038e-10
1.46038e-10
1.46038e-10
1.46038e-10
1.46038e-10
1.46038e-10
1.46038e-10
1.46038e-10
1.46038e-10
1.46038e-10
1.46038e-10
1.46038e-10
1.46038e-10
1.46038e-10
1.46038e-10
1.46038e-10
1.46038e-10
1.46038e-10
1.46038e-10
1.46038e-10
1.46038e-10
1.46038e-10
1.46038e-10
1.46038e-10
1.46038e-10
1.46038e-10
1.46038e-10
1.46038e-10
1.46038e-10
1.46038e-10
1.46038e-10
1.46038e-10
1.46038e-10
1.46038e-10
1.46038e-10
1.46038e-10
1.46038e-10
1.46038e-10
1.46038e-10
1.46038e-10
1.46038e-10
1.46038e-10
1.46038e-10
1.46038e-10
1.46038e-10
1.46039e-10
1.46039e-10
1.46039e-10
1.46039e-10
1.46039e-10
1.46039e-10
1.46039e-10
1.46039e-10
1.46039e-10
1.46039e-10
1.46039e-10
1.46039e-10
1.4604e-10
1.4604e-10
1.4604e-10
1.4604e-10
1.46038e-10
1.46038e-10
1.46038e-10
1.46038e-10
1.46038e-10
1.46038e-10
1.46038e-10
1.46038e-10
1.46038e-10
1.46038e-10
1.46038e-10
1.46038e-10
1.46038e-10
1.46038e-10
1.46038e-10
1.46038e-10
1.46038e-10
1.46038e-10
1.46038e-10
1.46038e-10
1.46038e-10
1.46038e-10
1.46038e-10
1.46038e-10
1.46038e-10
1.46038e-10
1.46038e-10
1.46038e-10
1.46038e-10
1.46038e-10
1.46038e-10
1.46038e-10
1.46038e-10
1.46038e-10
1.46038e-10
1.46038e-10
1.46038e-10
1.46038e-10
1.46038e-10
1.46038e-10
1.46038e-10
1.46038e-10
1.46038e-10
1.46038e-10
1.46038e-10
1.46038e-10
1.46038e-10
1.46038e-10
1.46038e-10
1.46038e-10
1.46038e-10
1.46038e-10
1.46038e-10
1.46038e-10
1.46038e-10
1.46038e-10
1.46038e-10
1.46038e-10
1.46038e-10
1.46038e-10
1.46038e-10
1.46038e-10
1.46038e-10
1.46038e-10
1.46038e-10
1.46038e-10
1.46038e-10
1.46038e-10
1.46038e-10
1.46038e-10
1.46038e-10
1.46038e-10
1.46039e-10
1.46039e-10
1.46039e-10
1.46039e-10
1.46039e-10
1.46039e-10
1.46039e-10
1.46039e-10
1.46039e-10
1.46039e-10
1.46039e-10
1.4604e-10
1.4604e-10
1.4604e-10
1.4604e-10
1.4604e-10
1.4604e-10
1.46041e-10
1.46041e-10
1.46041e-10
1.46041e-10
1.46042e-10
1.46042e-10
1.46042e-10
1.46043e-10
1.46043e-10
1.46043e-10
1.46044e-10
1.46044e-10
1.46045e-10
1.46045e-10
1.46046e-10
1.46047e-10
1.46047e-10
1.46048e-10
1.46049e-10
1.46049e-10
1.4605e-10
1.46039e-10
1.46039e-10
1.46039e-10
1.46039e-10
1.46039e-10
1.4604e-10
1.4604e-10
1.4604e-10
1.4604e-10
1.4604e-10
1.4604e-10
1.4604e-10
1.4604e-10
1.4604e-10
1.4604e-10
1.4604e-10
1.4604e-10
1.4604e-10
1.4604e-10
1.4604e-10
1.4604e-10
1.4604e-10
1.4604e-10
1.4604e-10
1.4604e-10
1.4604e-10
1.4604e-10
1.4604e-10
1.4604e-10
1.4604e-10
1.4604e-10
1.4604e-10
1.4604e-10
1.46039e-10
1.46039e-10
1.46039e-10
1.46039e-10
1.46039e-10
1.46039e-10
1.46039e-10
1.46039e-10
1.46039e-10
1.46039e-10
1.46039e-10
1.46039e-10
1.46039e-10
1.46039e-10
1.46039e-10
1.46039e-10
1.46039e-10
1.46039e-10
1.46039e-10
1.46039e-10
1.46039e-10
1.46039e-10
1.46039e-10
1.46039e-10
1.46039e-10
1.46039e-10
1.46039e-10
1.46039e-10
1.46039e-10
1.46039e-10
1.46039e-10
1.46039e-10
1.4604e-10
1.4604e-10
1.4604e-10
1.4604e-10
1.4604e-10
1.46041e-10
1.46041e-10
1.46041e-10
1.46042e-10
1.46042e-10
1.46042e-10
1.46043e-10
1.46043e-10
1.46044e-10
1.46044e-10
1.46045e-10
1.46045e-10
1.46046e-10
1.46047e-10
1.46047e-10
1.46048e-10
1.46049e-10
1.4605e-10
1.46051e-10
1.46052e-10
1.46053e-10
1.46054e-10
1.46056e-10
1.46057e-10
1.46058e-10
1.4606e-10
1.46062e-10
1.46064e-10
1.46066e-10
1.46068e-10
1.4607e-10
1.46073e-10
1.46075e-10
1.46078e-10
1.46081e-10
1.46085e-10
1.46088e-10
1.46092e-10
1.46096e-10
1.46101e-10
1.46106e-10
1.46044e-10
1.46045e-10
1.46045e-10
1.46046e-10
1.46046e-10
1.46047e-10
1.46047e-10
1.46047e-10
1.46048e-10
1.46048e-10
1.46048e-10
1.46048e-10
1.46049e-10
1.46049e-10
1.46049e-10
1.46049e-10
1.46049e-10
1.46049e-10
1.46049e-10
1.46049e-10
1.46049e-10
1.46049e-10
1.46049e-10
1.46048e-10
1.46048e-10
1.46048e-10
1.46048e-10
1.46047e-10
1.46047e-10
1.46047e-10
1.46046e-10
1.46046e-10
1.46046e-10
1.46045e-10
1.46045e-10
1.46045e-10
1.46045e-10
1.46044e-10
1.46044e-10
1.46044e-10
1.46043e-10
1.46043e-10
1.46043e-10
1.46043e-10
1.46043e-10
1.46042e-10
1.46042e-10
1.46042e-10
1.46042e-10
1.46042e-10
1.46042e-10
1.46042e-10
1.46042e-10
1.46042e-10
1.46042e-10
1.46042e-10
1.46042e-10
1.46042e-10
1.46043e-10
1.46043e-10
1.46043e-10
1.46044e-10
1.46044e-10
1.46045e-10
1.46046e-10
1.46047e-10
1.46048e-10
1.46049e-10
1.4605e-10
1.46051e-10
1.46053e-10
1.46054e-10
1.46056e-10
1.46058e-10
1.46059e-10
1.46061e-10
1.46064e-10
1.46066e-10
1.46068e-10
1.46071e-10
1.46073e-10
1.46076e-10
1.46079e-10
1.46083e-10
1.46086e-10
1.4609e-10
1.46095e-10
1.46099e-10
1.46104e-10
1.4611e-10
1.46115e-10
1.46122e-10
1.46129e-10
1.46136e-10
1.46144e-10
1.46153e-10
1.46162e-10
1.46172e-10
1.46183e-10
1.46195e-10
1.46207e-10
1.46221e-10
1.46236e-10
1.46251e-10
1.46268e-10
1.46287e-10
1.46307e-10
1.46328e-10
1.46351e-10
1.46376e-10
1.46403e-10
1.46432e-10
1.46463e-10
1.46069e-10
1.46071e-10
1.46073e-10
1.46075e-10
1.46076e-10
1.46078e-10
1.4608e-10
1.46081e-10
1.46083e-10
1.46084e-10
1.46085e-10
1.46086e-10
1.46087e-10
1.46088e-10
1.46088e-10
1.46089e-10
1.46089e-10
1.46089e-10
1.46088e-10
1.46088e-10
1.46087e-10
1.46087e-10
1.46086e-10
1.46085e-10
1.46084e-10
1.46082e-10
1.46081e-10
1.4608e-10
1.46079e-10
1.46077e-10
1.46076e-10
1.46074e-10
1.46073e-10
1.46072e-10
1.4607e-10
1.46069e-10
1.46067e-10
1.46066e-10
1.46065e-10
1.46064e-10
1.46063e-10
1.46062e-10
1.46061e-10
1.4606e-10
1.46059e-10
1.46058e-10
1.46058e-10
1.46057e-10
1.46057e-10
1.46056e-10
1.46056e-10
1.46056e-10
1.46056e-10
1.46056e-10
1.46057e-10
1.46057e-10
1.46058e-10
1.46059e-10
1.4606e-10
1.46062e-10
1.46064e-10
1.46066e-10
1.46069e-10
1.46072e-10
1.46076e-10
1.4608e-10
1.46085e-10
1.4609e-10
1.46096e-10
1.46103e-10
1.4611e-10
1.46117e-10
1.46126e-10
1.46135e-10
1.46144e-10
1.46154e-10
1.46165e-10
1.46176e-10
1.46188e-10
1.46201e-10
1.46214e-10
1.46229e-10
1.46245e-10
1.46262e-10
1.4628e-10
1.463e-10
1.46322e-10
1.46346e-10
1.46372e-10
1.464e-10
1.4643e-10
1.46464e-10
1.465e-10
1.46539e-10
1.46581e-10
1.46627e-10
1.46676e-10
1.46729e-10
1.46787e-10
1.46849e-10
1.46916e-10
1.46989e-10
1.47067e-10
1.47151e-10
1.47243e-10
1.47342e-10
1.47449e-10
1.47565e-10
1.4769e-10
1.47826e-10
1.47973e-10
1.48133e-10
1.48306e-10
1.46162e-10
1.46171e-10
1.4618e-10
1.46189e-10
1.46197e-10
1.46206e-10
1.46214e-10
1.46221e-10
1.46228e-10
1.46235e-10
1.46241e-10
1.46246e-10
1.46251e-10
1.46255e-10
1.46258e-10
1.4626e-10
1.46262e-10
1.46262e-10
1.46262e-10
1.46261e-10
1.4626e-10
1.46257e-10
1.46254e-10
1.46251e-10
1.46247e-10
1.46242e-10
1.46237e-10
1.46232e-10
1.46226e-10
1.4622e-10
1.46214e-10
1.46208e-10
1.46202e-10
1.46196e-10
1.46189e-10
1.46183e-10
1.46177e-10
1.46171e-10
1.46166e-10
1.4616e-10
1.46155e-10
1.4615e-10
1.46145e-10
1.46141e-10
1.46137e-10
1.46133e-10
1.4613e-10
1.46127e-10
1.46125e-10
1.46123e-10
1.46121e-10
1.4612e-10
1.4612e-10
1.4612e-10
1.4612e-10
1.46122e-10
1.46123e-10
1.46126e-10
1.4613e-10
1.46135e-10
1.46141e-10
1.46149e-10
1.46159e-10
1.4617e-10
1.46184e-10
1.46199e-10
1.46217e-10
1.46238e-10
1.46261e-10
1.46288e-10
1.46317e-10
1.46349e-10
1.46384e-10
1.46421e-10
1.46462e-10
1.46506e-10
1.46553e-10
1.46603e-10
1.46655e-10
1.46712e-10
1.46771e-10
1.46835e-10
1.46903e-10
1.46977e-10
1.47056e-10
1.47141e-10
1.47234e-10
1.47336e-10
1.47446e-10
1.47566e-10
1.47698e-10
1.47841e-10
1.47998e-10
1.48168e-10
1.48353e-10
1.48555e-10
1.48774e-10
1.49011e-10
1.49267e-10
1.49545e-10
1.49844e-10
1.50168e-10
1.50518e-10
1.50896e-10
1.51304e-10
1.51746e-10
1.52224e-10
1.52742e-10
1.53304e-10
1.53913e-10
1.54575e-10
1.55293e-10
1.56072e-10
1.56917e-10
1.57834e-10
1.46605e-10
1.46644e-10
1.46683e-10
1.46721e-10
1.46758e-10
1.46794e-10
1.46828e-10
1.4686e-10
1.4689e-10
1.46917e-10
1.46941e-10
1.46963e-10
1.46981e-10
1.46996e-10
1.47007e-10
1.47015e-10
1.47019e-10
1.47019e-10
1.47016e-10
1.4701e-10
1.47001e-10
1.46989e-10
1.46974e-10
1.46957e-10
1.46938e-10
1.46917e-10
1.46894e-10
1.46869e-10
1.46844e-10
1.46818e-10
1.46791e-10
1.46764e-10
1.46737e-10
1.4671e-10
1.46683e-10
1.46657e-10
1.46632e-10
1.46607e-10
1.46583e-10
1.4656e-10
1.46538e-10
1.46517e-10
1.46498e-10
1.4648e-10
1.46463e-10
1.46448e-10
1.46435e-10
1.46423e-10
1.46414e-10
1.46406e-10
1.464e-10
1.46397e-10
1.46397e-10
1.46399e-10
1.46402e-10
1.46408e-10
1.46418e-10
1.46433e-10
1.46452e-10
1.46477e-10
1.46508e-10
1.46546e-10
1.46592e-10
1.46647e-10
1.46712e-10
1.46788e-10
1.46875e-10
1.46975e-10
1.47088e-10
1.47215e-10
1.47355e-10
1.4751e-10
1.47679e-10
1.47862e-10
1.4806e-10
1.48273e-10
1.485e-10
1.48743e-10
1.49001e-10
1.49275e-10
1.49568e-10
1.4988e-10
1.50214e-10
1.50573e-10
1.5096e-10
1.5138e-10
1.51836e-10
1.52332e-10
1.52873e-10
1.53463e-10
1.54107e-10
1.54811e-10
1.55579e-10
1.56417e-10
1.5733e-10
1.58323e-10
1.59401e-10
1.60569e-10
1.61833e-10
1.63198e-10
1.64668e-10
1.66251e-10
1.67953e-10
1.69781e-10
1.71745e-10
1.73855e-10
1.76123e-10
1.78564e-10
1.81194e-10
1.84031e-10
1.87093e-10
1.90404e-10
1.93984e-10
1.97857e-10
2.02046e-10
2.06581e-10
1.47476e-10
1.47622e-10
1.47775e-10
1.47933e-10
1.48096e-10
1.48262e-10
1.4843e-10
1.48598e-10
1.48766e-10
1.48931e-10
1.49093e-10
1.49249e-10
1.49398e-10
1.49539e-10
1.4967e-10
1.4979e-10
1.49899e-10
1.49994e-10
1.50076e-10
1.50143e-10
1.50196e-10
1.50233e-10
1.50255e-10
1.50261e-10
1.50254e-10
1.50232e-10
1.50197e-10
1.50149e-10
1.50089e-10
1.50019e-10
1.4994e-10
1.49852e-10
1.49757e-10
1.49655e-10
1.49549e-10
1.49438e-10
1.49325e-10
1.4921e-10
1.49094e-10
1.48978e-10
1.48864e-10
1.48752e-10
1.48642e-10
1.48535e-10
1.48432e-10
1.48332e-10
1.48236e-10
1.48146e-10
1.48061e-10
1.47982e-10
1.47909e-10
1.47843e-10
1.47783e-10
1.4773e-10
1.47684e-10
1.47646e-10
1.47616e-10
1.47598e-10
1.47593e-10
1.47597e-10
1.47606e-10
1.47626e-10
1.47661e-10
1.47712e-10
1.47783e-10
1.47876e-10
1.47994e-10
1.48142e-10
1.48322e-10
1.48539e-10
1.48798e-10
1.49104e-10
1.4946e-10
1.49871e-10
1.5034e-10
1.50871e-10
1.51465e-10
1.52124e-10
1.52848e-10
1.53637e-10
1.54491e-10
1.55412e-10
1.56398e-10
1.57452e-10
1.58574e-10
1.59766e-10
1.61034e-10
1.6238e-10
1.63814e-10
1.65343e-10
1.66981e-10
1.6874e-10
1.70635e-10
1.72681e-10
1.74891e-10
1.77284e-10
1.79875e-10
1.82682e-10
1.85725e-10
1.89022e-10
1.92595e-10
1.96465e-10
2.00652e-10
2.05178e-10
2.10064e-10
2.1533e-10
2.20996e-10
2.2708e-10
2.33601e-10
2.40581e-10
2.4804e-10
2.56004e-10
2.64502e-10
2.73568e-10
2.83244e-10
2.93579e-10
3.04628e-10
3.16458e-10
3.29142e-10
3.42762e-10
3.57411e-10
3.73185e-10
3.90208e-10
1.52542e-10
1.53173e-10
1.53828e-10
1.54503e-10
1.55193e-10
1.55891e-10
1.56592e-10
1.5729e-10
1.57977e-10
1.58648e-10
1.59296e-10
1.59915e-10
1.60499e-10
1.61043e-10
1.61542e-10
1.61993e-10
1.6239e-10
1.62732e-10
1.63016e-10
1.6324e-10
1.63403e-10
1.63505e-10
1.63546e-10
1.63526e-10
1.63454e-10
1.63324e-10
1.6314e-10
1.62908e-10
1.62635e-10
1.62325e-10
1.61982e-10
1.61608e-10
1.61206e-10
1.60782e-10
1.60339e-10
1.59883e-10
1.59419e-10
1.5895e-10
1.58481e-10
1.58014e-10
1.57555e-10
1.57104e-10
1.56665e-10
1.56238e-10
1.55826e-10
1.5543e-10
1.55052e-10
1.54695e-10
1.54361e-10
1.54051e-10
1.53766e-10
1.53508e-10
1.53277e-10
1.53075e-10
1.52902e-10
1.52761e-10
1.5266e-10
1.52612e-10
1.52611e-10
1.52635e-10
1.52694e-10
1.52806e-10
1.5298e-10
1.53228e-10
1.53559e-10
1.53986e-10
1.54525e-10
1.5519e-10
1.55998e-10
1.56967e-10
1.58114e-10
1.59459e-10
1.6102e-10
1.62815e-10
1.64856e-10
1.67149e-10
1.69697e-10
1.72498e-10
1.75548e-10
1.78842e-10
1.82374e-10
1.8614e-10
1.90137e-10
1.94367e-10
1.98833e-10
2.03544e-10
2.08511e-10
2.1375e-10
2.19287e-10
2.25156e-10
2.31399e-10
2.38063e-10
2.45193e-10
2.52836e-10
2.61036e-10
2.6984e-10
2.79297e-10
2.89455e-10
3.00369e-10
3.12094e-10
3.2469e-10
3.38221e-10
3.52758e-10
3.68373e-10
3.85146e-10
4.03156e-10
4.22487e-10
4.43223e-10
4.65448e-10
4.89242e-10
5.14685e-10
5.41854e-10
5.70823e-10
6.01663e-10
6.3444e-10
6.69218e-10
7.06052e-10
7.44987e-10
7.86058e-10
8.29286e-10
8.74679e-10
9.22227e-10
9.71947e-10
1.74155e-10
1.76667e-10
1.79239e-10
1.81853e-10
1.8449e-10
1.87129e-10
1.89745e-10
1.92314e-10
1.94811e-10
1.97213e-10
1.99496e-10
2.01641e-10
2.03629e-10
2.05444e-10
2.07071e-10
2.085e-10
2.09722e-10
2.10729e-10
2.11518e-10
2.1209e-10
2.12446e-10
2.12591e-10
2.12514e-10
2.12263e-10
2.11813e-10
2.1116e-10
2.1033e-10
2.09352e-10
2.08249e-10
2.07034e-10
2.05716e-10
2.04302e-10
2.02801e-10
2.01226e-10
1.99598e-10
1.97934e-10
1.96249e-10
1.94555e-10
1.92864e-10
1.91188e-10
1.89539e-10
1.87928e-10
1.8636e-10
1.8484e-10
1.83371e-10
1.81961e-10
1.80618e-10
1.79349e-10
1.78162e-10
1.77062e-10
1.76055e-10
1.75149e-10
1.74345e-10
1.73643e-10
1.7305e-10
1.72585e-10
1.72286e-10
1.72189e-10
1.7222e-10
1.72369e-10
1.72677e-10
1.7319e-10
1.73947e-10
1.74984e-10
1.7634e-10
1.78062e-10
1.802e-10
1.82807e-10
1.8593e-10
1.89618e-10
1.93922e-10
1.98897e-10
2.04599e-10
2.11077e-10
2.18366e-10
2.26482e-10
2.35428e-10
2.45195e-10
2.55762e-10
2.67101e-10
2.79181e-10
2.91969e-10
3.05442e-10
3.19587e-10
3.34401e-10
3.49892e-10
3.66081e-10
3.83009e-10
4.00746e-10
4.19396e-10
4.39101e-10
4.60013e-10
4.82288e-10
5.06074e-10
5.31508e-10
5.58722e-10
5.87834e-10
6.18947e-10
6.5214e-10
6.87473e-10
7.24984e-10
7.64689e-10
8.0658e-10
8.50628e-10
8.96786e-10
9.44992e-10
9.95184e-10
1.0473e-09
1.10131e-09
1.15718e-09
1.21491e-09
1.27453e-09
1.33611e-09
1.39973e-09
1.46551e-09
1.5336e-09
1.60419e-09
1.67749e-09
1.75376e-09
1.83325e-09
1.91625e-09
2.00306e-09
2.09403e-09
2.56552e-10
2.65158e-10
2.73794e-10
2.82402e-10
2.90919e-10
2.99282e-10
3.07424e-10
3.15276e-10
3.2277e-10
3.29841e-10
3.36429e-10
3.42483e-10
3.47956e-10
3.5281e-10
3.57013e-10
3.60543e-10
3.63395e-10
3.65554e-10
3.67006e-10
3.67793e-10
3.67999e-10
3.67519e-10
3.66499e-10
3.6492e-10
3.62763e-10
3.60021e-10
3.56776e-10
3.53169e-10
3.49267e-10
3.45099e-10
3.40673e-10
3.35994e-10
3.31086e-10
3.25997e-10
3.20784e-10
3.15506e-10
3.10207e-10
3.04915e-10
2.99658e-10
2.9447e-10
2.89389e-10
2.84443e-10
2.79648e-10
2.75013e-10
2.70548e-10
2.66267e-10
2.62193e-10
2.58351e-10
2.54763e-10
2.51444e-10
2.48414e-10
2.457e-10
2.43312e-10
2.41237e-10
2.39489e-10
2.38182e-10
2.37447e-10
2.37169e-10
2.37385e-10
2.38033e-10
2.3918e-10
2.40968e-10
2.43515e-10
2.46928e-10
2.5132e-10
2.56821e-10
2.63569e-10
2.71695e-10
2.81305e-10
2.925e-10
3.05396e-10
3.20141e-10
3.36895e-10
3.55805e-10
3.76988e-10
4.00528e-10
4.26478e-10
4.54849e-10
4.85599e-10
5.18632e-10
5.53797e-10
5.9091e-10
6.29791e-10
6.70268e-10
7.12168e-10
7.55325e-10
7.9959e-10
8.4484e-10
8.91012e-10
9.38133e-10
9.86307e-10
1.0357e-09
1.08651e-09
1.13899e-09
1.19332e-09
1.24969e-09
1.30828e-09
1.36927e-09
1.43279e-09
1.49896e-09
1.5679e-09
1.63975e-09
1.71467e-09
1.79284e-09
1.87445e-09
1.95972e-09
2.04889e-09
2.14219e-09
2.23983e-09
2.34196e-09
2.44867e-09
2.56023e-09
2.67664e-09
2.79775e-09
2.9238e-09
3.05505e-09
3.19172e-09
3.33407e-09
3.48245e-09
3.63718e-09
3.79865e-09
3.9672e-09
4.14312e-09
4.32673e-09
4.5183e-09
5.26729e-10
5.51303e-10
5.75385e-10
5.98801e-10
6.21393e-10
6.43009e-10
6.63504e-10
6.82754e-10
7.00638e-10
7.17035e-10
7.31856e-10
7.45043e-10
7.56534e-10
7.66264e-10
7.74185e-10
7.80273e-10
7.84614e-10
7.87095e-10
7.87839e-10
7.87017e-10
7.84812e-10
7.81195e-10
7.76117e-10
7.69635e-10
7.61844e-10
7.52705e-10
7.42414e-10
7.3138e-10
7.19719e-10
7.07545e-10
6.94833e-10
6.81518e-10
6.67687e-10
6.53499e-10
6.39089e-10
6.24601e-10
6.10152e-10
5.95797e-10
5.8158e-10
5.67586e-10
5.53926e-10
5.40681e-10
5.2789e-10
5.15566e-10
5.03722e-10
4.92389e-10
4.81617e-10
4.71468e-10
4.61998e-10
4.53239e-10
4.45243e-10
4.38118e-10
4.31897e-10
4.26472e-10
4.21879e-10
4.18653e-10
4.16601e-10
4.15663e-10
4.1651e-10
4.18414e-10
4.21546e-10
4.26309e-10
4.33011e-10
4.4192e-10
4.53287e-10
4.6742e-10
4.8468e-10
5.05357e-10
5.29637e-10
5.57677e-10
5.89697e-10
6.26001e-10
6.66876e-10
7.12481e-10
7.62855e-10
8.17994e-10
8.77888e-10
9.42438e-10
1.01139e-09
1.08429e-09
1.16037e-09
1.23872e-09
1.31859e-09
1.3993e-09
1.48033e-09
1.56142e-09
1.64253e-09
1.72372e-09
1.80519e-09
1.88735e-09
1.9709e-09
2.05659e-09
2.14522e-09
2.23752e-09
2.3341e-09
2.4355e-09
2.54227e-09
2.65455e-09
2.77237e-09
2.89597e-09
3.02552e-09
3.16109e-09
3.30277e-09
3.45068e-09
3.60501e-09
3.76592e-09
3.93354e-09
4.10798e-09
4.28945e-09
4.47826e-09
4.6746e-09
4.87868e-09
5.09056e-09
5.31044e-09
5.53867e-09
5.77553e-09
6.02166e-09
6.27766e-09
6.54394e-09
6.8209e-09
7.10894e-09
7.40843e-09
7.71971e-09
8.04315e-09
8.37931e-09
1.24903e-09
1.30271e-09
1.35396e-09
1.40241e-09
1.44779e-09
1.48984e-09
1.5283e-09
1.56292e-09
1.5936e-09
1.62033e-09
1.64285e-09
1.66112e-09
1.67562e-09
1.68636e-09
1.69293e-09
1.69545e-09
1.69386e-09
1.68977e-09
1.68281e-09
1.67277e-09
1.6602e-09
1.64544e-09
1.62825e-09
1.60863e-09
1.58699e-09
1.56371e-09
1.53906e-09
1.51336e-09
1.48682e-09
1.4593e-09
1.43068e-09
1.4011e-09
1.37098e-09
1.34062e-09
1.31015e-09
1.27971e-09
1.24941e-09
1.21928e-09
1.18939e-09
1.15994e-09
1.13117e-09
1.10322e-09
1.07616e-09
1.05001e-09
1.02478e-09
1.00053e-09
9.77364e-10
9.55416e-10
9.34774e-10
9.15483e-10
8.97743e-10
8.81848e-10
8.67846e-10
8.55644e-10
8.45561e-10
8.37591e-10
8.31396e-10
8.28305e-10
8.30003e-10
8.33596e-10
8.39438e-10
8.48437e-10
8.61366e-10
8.7854e-10
9.00037e-10
9.26533e-10
9.58865e-10
9.97153e-10
1.0415e-09