/*--------------------------------*- C++ -*----------------------------------*\
| =========                 |                                                 |
| \\      /  F ield         | OpenFOAM: The Open Source CFD Toolbox           |
|  \\    /   O peration     | Version:  v1706                                 |
|   \\  /    A nd           | Web:      www.OpenFOAM.com                      |
|    \\/     M anipulation  |                                                 |
\*---------------------------------------------------------------------------*/
FoamFile
{
    version     2.0;
    format      ascii;
    class       volScalarField;
    location    "5e-06";
    object      Mach;
}
// * * * * * * * * * * * * * * * * * * * * * * * * * * * * * * * * * * * * * //

dimensions      [0 0 0 0 0 0 0];


internalField   nonuniform List<scalar> 
29871
(
11.2859
11.2859
11.2859
11.2859
11.2859
11.2859
11.2859
11.2859
11.2859
11.2859
11.2859
11.2859
11.2859
11.2859
11.2859
11.2859
11.2859
11.2859
11.2859
11.2859
11.2859
11.2859
11.2859
11.2859
11.2859
11.2859
11.2859
11.2859
11.2859
11.2859
11.2859
11.2859
11.2859
11.2859
11.2859
11.2859
11.2859
11.2859
11.2859
11.2859
11.2859
11.2859
11.2859
11.2859
11.2859
11.2859
11.2859
11.2859
11.2859
11.2859
11.2859
11.2859
11.2859
11.2859
11.2859
11.2859
11.2859
11.2859
11.2859
11.2859
11.2859
11.2859
11.2859
11.2859
11.2859
11.2859
11.2859
11.2859
11.2859
11.2859
11.2859
11.2859
11.2859
11.2859
11.2859
11.2859
11.2859
11.2859
11.2859
11.2859
11.2859
11.2859
11.2859
11.2859
11.2859
11.2859
11.2859
11.2859
11.2859
11.2859
11.2859
11.2859
11.2859
11.2859
11.2859
11.2859
11.2859
11.2859
11.2859
11.2859
11.2859
11.2859
11.2859
11.2859
11.2859
11.2859
11.2859
11.2859
11.2859
11.2859
11.2859
11.2859
11.2859
11.2859
11.2859
11.2859
11.2859
11.2859
11.2859
11.2859
11.2859
11.2859
11.2859
11.2859
11.2859
11.2859
11.2859
11.2859
11.2859
11.2859
11.2859
11.2859
11.2859
11.2859
11.2859
11.2859
11.2859
11.2859
11.2859
11.2859
11.2859
11.2859
11.2859
11.2859
11.2859
11.2859
11.2859
11.2859
11.2859
11.2859
11.2859
11.2859
11.2859
11.2859
11.2859
11.2859
11.2859
11.2859
11.2859
11.2859
11.2859
11.2859
11.2859
11.2859
11.2859
11.2859
11.2859
11.2859
11.2859
11.2859
11.2859
11.2859
11.2859
11.2859
11.2859
11.2859
11.2859
11.2859
11.2859
11.2859
11.2859
11.2859
11.2859
11.2859
11.2859
11.2859
11.2859
11.2859
11.2859
11.2859
11.2859
11.2859
11.2859
11.2859
11.2859
11.2859
11.2859
11.2859
11.2859
11.2859
11.2859
11.2859
11.2859
11.2859
11.2859
11.2859
11.2859
11.2859
11.2859
11.2859
11.2859
11.2859
11.2859
11.2859
11.2859
11.2859
11.2859
11.2859
11.2859
11.2859
11.2859
11.2859
11.2859
11.2859
11.2859
11.2859
11.2859
11.2859
11.2859
11.2859
11.2859
11.2859
11.2859
11.2859
11.2859
11.2859
11.2859
11.2859
11.2859
11.2859
11.2859
11.2859
11.2859
11.2859
11.2859
11.2859
11.2859
11.2859
11.2859
11.2859
11.2859
11.2859
11.2859
11.2859
11.2859
11.2859
11.2859
11.2859
11.2859
11.2859
11.2859
11.2859
11.2859
11.2859
11.2859
11.2859
11.2859
11.2859
11.2859
11.2859
11.2859
11.2859
11.2859
11.2859
11.2859
11.2859
11.2859
11.2859
11.2859
11.2859
11.2859
11.2859
11.2859
11.2859
11.2859
11.2859
11.2859
11.2859
11.2859
11.2859
11.2859
11.2859
11.2859
11.2859
11.2859
11.2859
11.2859
11.2859
11.2859
11.2859
11.2859
11.2859
11.2859
11.2859
11.2859
11.2859
11.2859
11.2859
11.2859
11.2859
11.2859
11.2859
11.2859
11.2859
11.2859
11.2859
11.2859
11.2859
11.2859
11.2859
11.2859
11.2859
11.2859
11.2859
11.2859
11.2859
11.2859
11.2859
11.2859
11.2859
11.2859
11.2859
11.2859
11.2859
11.2859
11.2859
11.2859
11.2859
11.2859
11.2859
11.2859
11.2859
11.2859
11.2859
11.2859
11.2859
11.2859
11.2859
11.2859
11.2859
11.2859
11.2859
11.2859
11.2859
11.2859
11.2859
11.2859
11.2859
11.2859
11.2859
11.2859
11.2859
11.2859
11.2859
11.2859
11.2859
11.2859
11.2859
11.2859
11.2859
11.2859
11.2859
11.2859
11.2859
11.2859
11.2859
11.2859
11.2859
11.2859
11.2859
11.2859
11.2859
11.2859
11.2859
11.2859
11.2859
11.2859
11.2859
11.2859
11.2859
11.2859
11.2859
11.2859
11.2859
11.2859
11.2859
11.2859
11.2859
11.2859
11.2859
11.2859
11.2859
11.2859
11.2859
11.2859
11.2859
11.2859
11.2859
11.2859
11.2859
11.2859
11.2859
11.2859
11.2859
11.2859
11.2859
11.2859
11.2859
11.2859
11.2859
11.2859
11.2859
11.2859
11.2859
11.2859
11.2859
11.2859
11.2859
11.2859
11.2859
11.2859
11.2859
11.2859
11.2859
11.2859
11.2859
11.2859
11.2859
11.2859
11.2859
11.2859
11.2859
11.2859
11.2859
11.2859
11.2859
11.2859
11.2859
11.2859
11.2859
11.2859
11.2859
11.2859
11.2859
11.2859
11.2859
11.2859
11.2859
11.2859
11.2859
11.2859
11.2859
11.2859
11.2859
11.2859
11.2859
11.2859
11.2859
11.2859
11.2859
11.2859
11.2859
11.2859
11.2859
11.2859
11.2859
11.2859
11.2859
11.2859
11.2859
11.2859
11.2859
11.2859
11.2859
11.2859
11.2859
11.2859
11.2859
11.2859
11.2859
11.2859
11.2859
11.2859
11.2859
11.2859
11.2859
11.2859
11.2859
11.2859
11.2859
11.2859
11.2859
11.2859
11.2859
11.2859
11.2859
11.2859
11.2859
11.2859
11.2859
11.2859
11.2859
11.2859
11.2859
11.2859
11.2859
11.2859
11.2859
11.2859
11.2859
11.2859
11.2859
11.2859
11.2859
11.2859
11.2859
11.2859
11.2859
11.2859
11.2859
11.2859
11.2859
11.2859
11.2859
11.2859
11.2859
11.2859
11.2859
11.2859
11.2859
11.2859
11.2859
11.2859
11.2859
11.2859
11.2859
11.2859
11.2859
11.2859
11.2859
11.2859
11.2859
11.2859
11.2859
11.2859
11.2859
11.2859
11.2859
11.2859
11.2859
11.2859
11.2859
11.2859
11.2859
11.2859
11.2859
11.2859
11.2859
11.2859
11.2859
11.2859
11.2859
11.2859
11.2859
11.2859
11.2859
11.2859
11.2859
11.2859
11.2859
11.2859
11.2859
11.2859
11.2859
11.2859
11.2859
11.2859
11.2859
11.2859
11.2859
11.2859
11.2859
11.2859
11.2859
11.2859
11.2859
11.2859
11.2859
11.2859
11.2859
11.2859
11.2859
11.2859
11.2859
11.2859
11.2859
11.2859
11.2859
11.2859
11.2859
11.2859
11.2859
11.2859
11.2859
11.2859
11.2859
11.2859
11.2859
11.2859
11.2859
11.2859
11.2859
11.2859
11.2859
11.2859
11.2859
11.2859
11.2859
11.2859
11.2859
11.2859
11.2859
11.2859
11.2859
11.2859
11.2859
11.2859
11.2859
11.2859
11.2859
11.2859
11.2859
11.2859
11.2859
11.2859
11.2859
11.2859
11.2859
11.2859
11.2859
11.2859
11.2859
11.2859
11.2859
11.2859
11.2859
11.2859
11.2859
11.2859
11.2859
11.2859
11.2859
11.2859
11.2859
11.2859
11.2859
11.2859
11.2859
11.2859
11.2859
11.2859
11.2859
11.2859
11.2859
11.2859
11.2859
11.2859
11.2859
11.2859
11.2859
11.2859
11.2859
11.2859
11.2859
11.2859
11.2859
11.2859
11.2859
11.2859
11.2859
11.2859
11.2859
11.2859
11.2859
11.2859
11.2859
11.2859
11.2859
11.2859
11.2859
11.2859
11.2859
11.2859
11.2859
11.2859
11.2859
11.2859
11.2859
11.2859
11.2859
11.2859
11.2859
11.2859
11.2859
11.2859
11.2859
11.2859
11.2859
11.2859
11.2859
11.2859
11.2859
11.2859
11.2859
11.2859
11.2859
11.2859
11.2859
11.2859
11.2859
11.2859
11.2859
11.2859
11.2859
11.2859
11.2859
11.2859
11.2859
11.2859
11.2859
11.2859
11.2859
11.2859
11.2859
11.2859
11.2859
11.2859
11.2859
11.2859
11.2859
11.2859
11.2859
11.2859
11.2859
11.2859
11.2859
11.2859
11.2859
11.2859
11.2859
11.2859
11.2859
11.2859
11.2859
11.2859
11.2859
11.2859
11.2859
11.2859
11.2859
11.2859
11.2859
11.2859
11.2859
11.2859
11.2859
11.2859
11.2859
11.2859
11.2859
11.2859
11.2859
11.2859
11.2859
11.2859
11.2859
11.2859
11.2859
11.2859
11.2859
11.2859
11.2859
11.2859
11.2859
11.2859
11.2859
11.2859
11.2859
11.2859
11.2859
11.2859
11.2859
11.2859
11.2859
11.2859
11.2859
11.2859
11.2859
11.2859
11.2859
11.2859
11.2859
11.2859
11.2859
11.2859
11.2859
11.2859
11.2859
11.2859
11.2859
11.2859
11.2859
11.2859
11.2859
11.2859
11.2859
11.2859
11.2859
11.2859
11.2859
11.2859
11.2859
11.2859
11.2859
11.2859
11.2859
11.2859
11.2859
11.2859
11.2859
11.2859
11.2859
11.2859
11.2859
11.2859
11.2859
11.2859
11.2859
11.2859
11.2859
11.2859
11.2859
11.2859
11.2859
11.2859
11.2859
11.2859
11.2859
11.2859
11.2859
11.2859
11.2859
11.2859
11.2859
11.2859
11.2859
11.2859
11.2859
11.2859
11.2859
11.2859
11.2859
11.2859
11.2859
11.2859
11.2859
11.2859
11.2859
11.2859
11.2859
11.2859
11.2859
11.2859
11.2859
11.2859
11.2859
11.2859
11.2859
11.2859
11.2859
11.2859
11.2859
11.2859
11.2859
11.2859
11.2859
11.2859
11.2859
11.2859
11.2859
11.2859
11.2859
11.2859
11.2859
11.2859
11.2859
11.2859
11.2859
11.2859
11.2859
11.2859
11.2859
11.2859
11.2859
11.2859
11.2859
11.2859
11.2859
11.2859
11.2859
11.2859
11.2859
11.2859
11.2859
11.2859
11.2859
11.2859
11.2859
11.2859
11.2859
11.2859
11.2859
11.2859
11.2859
11.2859
11.2859
11.2859
11.2859
11.2859
11.2859
11.2859
11.2859
11.2859
11.2859
11.2859
11.2859
11.2859
11.2859
11.2859
11.2859
11.2858
11.2858
11.2858
11.2858
11.2858
11.2858
11.2858
11.2858
11.2858
11.2858
11.2858
11.2858
11.2858
11.2858
11.2858
11.2858
11.2859
11.2859
11.2859
11.2859
11.2859
11.2859
11.2859
11.2859
11.2859
11.2859
11.2859
11.2859
11.2859
11.2859
11.2859
11.2859
11.2859
11.2859
11.2859
11.2859
11.2859
11.2859
11.2859
11.2859
11.2859
11.2859
11.2859
11.2859
11.2859
11.2859
11.2859
11.2859
11.2859
11.2859
11.2859
11.2859
11.2859
11.2859
11.2859
11.2859
11.2859
11.2859
11.2859
11.2859
11.2859
11.2859
11.2859
11.2859
11.2859
11.2859
11.2859
11.2859
11.2859
11.2859
11.2859
11.2859
11.2859
11.2859
11.2859
11.2859
11.2859
11.2859
11.2859
11.2859
11.2859
11.2859
11.2859
11.2859
11.2859
11.2859
11.2859
11.2859
11.2858
11.2858
11.2858
11.2858
11.2858
11.2858
11.2858
11.2858
11.2858
11.2858
11.2858
11.2858
11.2858
11.2858
11.2858
11.2858
11.2858
11.2858
11.2858
11.2858
11.2858
11.2858
11.2858
11.2858
11.2858
11.2858
11.2858
11.2858
11.2858
11.2858
11.2858
11.2858
11.2858
11.2858
11.2858
11.2857
11.2857
11.2857
11.2858
11.2858
11.2858
11.2858
11.2858
11.2858
11.2858
11.2858
11.2858
11.2858
11.2858
11.2858
11.2858
11.2858
11.2858
11.2858
11.2858
11.2858
11.2858
11.2858
11.2858
11.2858
11.2858
11.2858
11.2858
11.2858
11.2858
11.2858
11.2858
11.2858
11.2858
11.2858
11.2858
11.2858
11.2858
11.2858
11.2858
11.2858
11.2858
11.2858
11.2858
11.2858
11.2858
11.2858
11.2858
11.2858
11.2858
11.2858
11.2858
11.2858
11.2858
11.2858
11.2858
11.2858
11.2858
11.2858
11.2858
11.2858
11.2858
11.2858
11.2858
11.2858
11.2858
11.2858
11.2858
11.2858
11.2858
11.2858
11.2858
11.2858
11.2858
11.2858
11.2858
11.2858
11.2858
11.2858
11.2858
11.2858
11.2858
11.2858
11.2858
11.2858
11.2858
11.2858
11.2857
11.2857
11.2857
11.2857
11.2857
11.2857
11.2857
11.2857
11.2857
11.2856
11.2856
11.2856
11.2856
11.2856
11.2855
11.2855
11.2855
11.2855
11.2854
11.2854
11.2854
11.2853
11.2853
11.2853
11.2852
11.2852
11.2858
11.2858
11.2858
11.2858
11.2858
11.2858
11.2857
11.2857
11.2857
11.2857
11.2857
11.2857
11.2857
11.2857
11.2857
11.2857
11.2857
11.2857
11.2857
11.2857
11.2857
11.2857
11.2857
11.2857
11.2857
11.2857
11.2857
11.2857
11.2857
11.2857
11.2857
11.2858
11.2858
11.2858
11.2858
11.2858
11.2858
11.2858
11.2858
11.2858
11.2858
11.2858
11.2858
11.2858
11.2858
11.2858
11.2858
11.2858
11.2858
11.2858
11.2858
11.2858
11.2858
11.2858
11.2858
11.2858
11.2858
11.2858
11.2858
11.2858
11.2858
11.2858
11.2858
11.2858
11.2858
11.2858
11.2857
11.2857
11.2857
11.2857
11.2857
11.2857
11.2857
11.2856
11.2856
11.2856
11.2856
11.2855
11.2855
11.2855
11.2855
11.2854
11.2854
11.2854
11.2853
11.2853
11.2852
11.2852
11.2851
11.2851
11.285
11.285
11.2849
11.2848
11.2847
11.2846
11.2845
11.2844
11.2843
11.2842
11.2841
11.2839
11.2838
11.2836
11.2835
11.2833
11.2831
11.2829
11.2827
11.2824
11.2822
11.2855
11.2855
11.2854
11.2854
11.2854
11.2854
11.2854
11.2853
11.2853
11.2853
11.2853
11.2853
11.2853
11.2852
11.2852
11.2852
11.2852
11.2852
11.2852
11.2852
11.2852
11.2853
11.2853
11.2853
11.2853
11.2853
11.2853
11.2853
11.2853
11.2854
11.2854
11.2854
11.2854
11.2854
11.2854
11.2855
11.2855
11.2855
11.2855
11.2855
11.2855
11.2856
11.2856
11.2856
11.2856
11.2856
11.2856
11.2856
11.2856
11.2856
11.2856
11.2856
11.2856
11.2856
11.2856
11.2856
11.2856
11.2856
11.2856
11.2856
11.2855
11.2855
11.2855
11.2855
11.2854
11.2854
11.2853
11.2852
11.2852
11.2851
11.285
11.2849
11.2849
11.2848
11.2847
11.2845
11.2844
11.2843
11.2842
11.284
11.2839
11.2837
11.2836
11.2834
11.2832
11.283
11.2828
11.2825
11.2822
11.2819
11.2816
11.2813
11.2809
11.2805
11.2801
11.2796
11.2792
11.2786
11.2781
11.2774
11.2768
11.2761
11.2753
11.2745
11.2736
11.2727
11.2717
11.2706
11.2694
11.2681
11.2668
11.2653
11.2637
11.2842
11.2841
11.284
11.2839
11.2838
11.2837
11.2836
11.2835
11.2834
11.2833
11.2833
11.2832
11.2832
11.2832
11.2831
11.2831
11.2831
11.2831
11.2831
11.2831
11.2832
11.2832
11.2833
11.2833
11.2834
11.2834
11.2835
11.2836
11.2836
11.2837
11.2838
11.2839
11.2839
11.284
11.2841
11.2842
11.2842
11.2843
11.2844
11.2844
11.2845
11.2845
11.2846
11.2846
11.2847
11.2847
11.2848
11.2848
11.2848
11.2848
11.2848
11.2848
11.2848
11.2848
11.2848
11.2848
11.2847
11.2847
11.2846
11.2845
11.2844
11.2843
11.2841
11.2839
11.2837
11.2835
11.2833
11.283
11.2826
11.2823
11.2819
11.2815
11.281
11.2806
11.2801
11.2795
11.279
11.2784
11.2777
11.2771
11.2763
11.2756
11.2748
11.2739
11.2729
11.2719
11.2707
11.2695
11.2681
11.2667
11.2651
11.2634
11.2615
11.2595
11.2574
11.255
11.2525
11.2498
11.2469
11.2437
11.2404
11.2367
11.2328
11.2286
11.2241
11.2192
11.2139
11.2083
11.2021
11.1956
11.1885
11.1809
11.1727
11.2792
11.2788
11.2783
11.2779
11.2774
11.277
11.2765
11.2761
11.2758
11.2754
11.2751
11.2748
11.2746
11.2743
11.2742
11.2741
11.274
11.2739
11.2739
11.274
11.2741
11.2742
11.2743
11.2745
11.2747
11.275
11.2752
11.2755
11.2758
11.2761
11.2764
11.2767
11.2771
11.2774
11.2777
11.278
11.2784
11.2787
11.279
11.2793
11.2795
11.2798
11.28
11.2803
11.2805
11.2807
11.2808
11.281
11.2811
11.2812
11.2813
11.2814
11.2814
11.2814
11.2813
11.2813
11.2812
11.281
11.2808
11.2805
11.2802
11.2797
11.2792
11.2786
11.2779
11.277
11.2761
11.2749
11.2737
11.2723
11.2708
11.2691
11.2673
11.2653
11.2632
11.2609
11.2585
11.2559
11.2532
11.2504
11.2473
11.2441
11.2406
11.2369
11.2329
11.2286
11.2239
11.2188
11.2133
11.2073
11.2007
11.1937
11.186
11.1777
11.1687
11.1589
11.1485
11.1372
11.1251
11.1121
11.0982
11.0833
11.0673
11.0503
11.032
11.0124
10.9914
10.969
10.9448
10.919
10.8912
10.8614
10.8296
10.7954
10.7589
11.2566
11.2546
11.2526
11.2507
11.2488
11.247
11.2453
11.2437
11.2422
11.2408
11.2395
11.2384
11.2375
11.2367
11.2362
11.2358
11.2355
11.2355
11.2356
11.2359
11.2363
11.2369
11.2376
11.2384
11.2394
11.2404
11.2415
11.2427
11.244
11.2453
11.2467
11.248
11.2494
11.2507
11.2521
11.2534
11.2547
11.256
11.2572
11.2584
11.2595
11.2605
11.2615
11.2624
11.2633
11.264
11.2647
11.2653
11.2658
11.2662
11.2665
11.2666
11.2666
11.2665
11.2663
11.266
11.2654
11.2647
11.2636
11.2623
11.2606
11.2586
11.2561
11.2532
11.2498
11.2458
11.2413
11.2361
11.2302
11.2237
11.2165
11.2087
11.2002
11.1911
11.1813
11.1708
11.1598
11.148
11.1357
11.1226
11.1087
11.0941
11.0785
11.0618
11.044
11.0248
11.0042
10.9819
10.9579
10.932
10.904
10.8738
10.8412
10.8062
10.7686
10.7283
10.6853
10.6394
10.5906
10.539
10.4844
10.427
10.3666
10.3033
10.237
10.1677
10.0952
10.0195
9.94043
9.85788
9.77176
9.68197
9.58849
9.49136
9.39068
9.28663
11.2141
11.2071
11.1998
11.1922
11.1844
11.1765
11.1685
11.1605
11.1525
11.1447
11.1371
11.1297
11.1227
11.116
11.1098
11.1041
11.0989
11.0944
11.0904
11.0871
11.0845
11.0826
11.0814
11.0809
11.0811
11.0819
11.0834
11.0854
11.088
11.0911
11.0946
11.0985
11.1028
11.1074
11.1123
11.1174
11.1226
11.128
11.1334
11.1388
11.1442
11.1495
11.1547
11.1598
11.1647
11.1695
11.1741
11.1785
11.1826
11.1864
11.19
11.1932
11.1961
11.1987
11.2009
11.2028
11.2041
11.205
11.205
11.2048
11.2043
11.2032
11.2013
11.1986
11.1948
11.19
11.1838
11.1762
11.167
11.156
11.1429
11.1276
11.11
11.0899
11.0672
11.0418
11.0139
10.9835
10.9506
10.9154
10.8779
10.8383
10.7966
10.7529
10.7072
10.6595
10.6097
10.5577
10.5034
10.4465
10.3867
10.3238
10.2575
10.1876
10.1141
10.0366
9.95528
9.86992
9.78051
9.68707
9.58962
9.48827
9.38316
9.27454
9.16272
9.04808
8.93109
8.81224
8.69206
8.57105
8.44968
8.32833
8.20731
8.0868
7.96688
7.84752
7.72861
7.60999
7.49144
7.37277
7.25381
7.13448
7.0148
10.9871
10.96
10.9322
10.9038
10.875
10.8461
10.8173
10.789
10.7612
10.7343
10.7085
10.684
10.6609
10.6395
10.6199
10.6022
10.5865
10.5729
10.5615
10.5522
10.5453
10.5406
10.5382
10.538
10.5398
10.5438
10.5497
10.5574
10.5668
10.5777
10.5899
10.6034
10.6181
10.6339
10.6505
10.6677
10.6855
10.7036
10.7219
10.7403
10.7585
10.7766
10.7945
10.8119
10.8289
10.8454
10.8612
10.8762
10.8904
10.9036
10.9158
10.9268
10.9367
10.9454
10.9528
10.9588
10.9629
10.9644
10.9639
10.9627
10.9596
10.954
10.9454
10.9334
10.9177
10.8976
10.8726
10.8421
10.8056
10.7626
10.7125
10.6551
10.5899
10.517
10.4365
10.349
10.2553
10.1562
10.0528
9.94611
9.83689
9.72592
9.61375
9.5007
9.387
9.27273
9.15792
9.04249
8.92624
8.80891
8.69025
8.57011
8.44856
8.3258
8.20211
8.0778
7.95318
7.82853
7.70406
7.57993
7.45621
7.33293
7.2101
7.08776
6.96596
6.84489
6.72479
6.60607
6.4892
6.37477
6.26341
6.15576
6.05243
5.954
5.86092
5.77353
5.69206
5.61661
5.54714
5.48351
5.42547
5.37268
5.32476
10.2129
10.1351
10.0575
9.98062
9.90504
9.83127
9.75982
9.6912
9.62587
9.56423
9.50661
9.45328
9.40444
9.36024
9.32079
9.28613
9.25627
9.23121
9.21091
9.19525
9.18426
9.17794
9.17644
9.17839
9.18504
9.19637
9.21103
9.22935
9.25078
9.27503
9.30203
9.33179
9.36424
9.39914
9.43613
9.47479
9.51478
9.55586
9.5978
9.64028
9.683
9.72567
9.7681
9.81009
9.85145
9.8919
9.9311
9.9687
10.0043
10.0378
10.0687
10.0967
10.1217
10.1436
10.162
10.176
10.1839
10.1838
10.1812
10.1749
10.162
10.1415
10.1123
10.0736
10.0243
9.9632
9.88943
9.8023
9.7016
9.58758
9.46075
9.32189
9.17213
9.01315
8.84719
8.6768
8.50465
8.33324
8.16474
8.00091
7.84298
7.69169
7.54722
7.40932
7.27744
7.15089
7.02889
6.91067
6.79541
6.6823
6.57075
6.46046
6.35155
6.24437
6.13947
6.03751
5.93918
5.84518
5.75615
5.67261
5.59493
5.5233
5.45777
5.39821
5.34437
5.29588
5.2523
5.21314
5.1779
5.14609
5.11724
5.09094
5.06678
5.04446
5.02369
5.00423
4.98587
4.96839
4.95161
4.93536
4.91951
4.90394
4.88858
8.51513
8.39156
8.27424
8.16325
8.05865
7.9605
7.86888
7.78386
7.7055
7.63387
7.56894
7.51062
7.45884
7.41348
7.37435
7.34123
7.31387
7.29208
7.27568
7.26432
7.25768
7.25657
7.25911
7.26574
7.27743
7.29485
7.31487
7.33834
7.36462
7.39364
7.42563
7.46085
7.49934
7.54087
7.585
7.63125
7.67929
7.72899
7.7802
7.83266
7.88601
7.93991
7.99415
8.04854
8.10281
8.15658
8.20932
8.26044
8.30936
8.35558
8.39848
8.4373
8.47158
8.50146
8.52629
8.54282
8.5469
8.54227
8.53436
8.51746
8.48913
8.44838
8.39413
8.3254
8.24146
8.1418
8.02645
7.89642
7.75378
7.60112
7.44098
7.27564
7.10736
6.93852
6.77152
6.60858
6.45156
6.30203
6.16122
6.03009
5.90935
5.79942
5.70026
5.61148
5.53254
5.46274
5.40121
5.34701
5.29908
5.25636
5.21793
5.18313
5.15146
5.12248
5.09587
5.07133
5.04861
5.02747
5.00771
4.98914
4.97158
4.95486
4.93879
4.92322
4.90802
4.89308
4.87835
4.86383
4.84952
4.83545
4.82172
4.80839
4.79574
4.78403
4.77323
4.76327
4.75385
4.74486
4.73625
4.72798
4.72001
4.71228
4.70476
4.69741
4.68999
6.52875
6.42757
6.33567
6.25236
6.17691
6.10867
6.04706
5.99157
5.94184
5.89763
5.85868
5.82471
5.79559
5.77123
5.75145
5.73598
5.7245
5.71689
5.71305
5.71309
5.71558
5.72072
5.72895
5.74015
5.75404
5.77305
5.79418
5.81388
5.83588
5.85946
5.88482
5.91248
5.94244
5.9744
6.00804
6.04293
6.07875
6.11553
6.15336
6.19215
6.23161
6.27149
6.31166
6.35201
6.39236
6.43239
6.47167
6.50965
6.54582
6.57979
6.61098
6.63828
6.66134
6.68127
6.69752
6.70179
6.69472
6.68746
6.67303
6.64904
6.61502
6.5702
6.51384
6.44554
6.36536
6.27354
6.17097
6.05978
5.94321
5.82482
5.70776
5.59455
5.48762
5.3894
5.30185
5.22592
5.16154
5.10801
5.06426
5.02902
5.00105
4.97899
4.9614
4.94701
4.93471
4.92367
4.91328
4.90309
4.89283
4.88253
4.87186
4.86035
4.84823
4.83596
4.82367
4.8114
4.79932
4.78779
4.777
4.76701
4.75778
4.74899
4.74056
4.73247
4.72467
4.71713
4.70975
4.70252
4.69536
4.6885
4.68183
4.67531
4.66865
4.66163
4.65415
4.64615
4.63807
4.63002
4.62196
4.61383
4.60561
4.59727
4.5888
4.5803
4.57171
5.13304
5.08084
5.0367
5.00036
4.97129
4.94887
4.93245
4.92128
4.91458
4.91175
4.91242
4.916
4.92151
4.92894
4.93852
4.94968
4.96196
4.97505
4.98911
5.00422
5.01961
5.03517
5.05153
5.06857
5.08654
5.10559
5.12455
5.1423
5.16261
5.17832
5.19605
5.21534
5.23467
5.2537
5.273
5.29253
5.3118
5.33068
5.34923
5.36744
5.38532
5.4029
5.42019
5.43712
5.45352
5.46923
5.48405
5.49773
5.51017
5.52132
5.5306
5.53734
5.54175
5.54428
5.54305
5.536
5.52372
5.5145
5.49904
5.47764
5.4514
5.42037
5.38414
5.3435
5.2996
5.25218
5.20191
5.15156
5.10306
5.05751
5.01533
4.97676
4.94231
4.91218
4.88612
4.86373
4.84443
4.8275
4.81304
4.79952
4.78623
4.77437
4.76323
4.75312
4.7442
4.73654
4.73004
4.72433
4.71886
4.71371
4.70865
4.70334
4.69794
4.6925
4.68701
4.68151
4.67595
4.67005
4.66368
4.65676
4.64918
4.64145
4.6337
4.62589
4.61799
4.60999
4.60194
4.59391
4.58582
4.57754
4.56902
4.56019
4.55112
4.54188
4.53252
4.52316
4.5136
4.50378
4.49371
4.4834
4.47285
4.46208
4.45109
4.43989
4.42845
4.54422
4.5465
4.55109
4.5571
4.56506
4.57423
4.58417
4.59483
4.60606
4.61756
4.62902
4.64085
4.6538
4.66616
4.67908
4.69335
4.70715
4.72086
4.73634
4.75113
4.76469
4.77994
4.79572
4.81128
4.82686
4.8426
4.85881
4.87492
4.89113
4.90748
4.92343
4.93946
4.95588
4.97237
4.9886
5.0045
5.02013
5.03554
5.05065
5.06545
5.07988
5.09385
5.10727
5.12012
5.13233
5.14382
5.15443
5.164
5.17243
5.17965
5.18556
5.19001
5.19231
5.19274
5.19148
5.18791
5.18147
5.17287
5.16279
5.1502
5.13481
5.11691
5.09631
5.07231
5.04652
5.02026
4.99261
4.96039
4.92707
4.89818
4.87015
4.84371
4.81929
4.79539
4.77226
4.75217
4.7348
4.71937
4.70557
4.69323
4.68224
4.67247
4.66388
4.6564
4.64981
4.64381
4.63793
4.63173
4.62561
4.6197
4.61384
4.60789
4.60189
4.59576
4.58935
4.58258
4.57535
4.56763
4.55947
4.55095
4.54216
4.53327
4.52412
4.51468
4.50499
4.49505
4.48492
4.47459
4.46405
4.45327
4.44226
4.43102
4.41957
4.40794
4.3961
4.38406
4.37177
4.3592
4.34637
4.33329
4.31997
4.30641
4.29262
4.2786
4.26435
4.24986
4.35727
4.36503
4.37439
4.38458
4.39639
4.40993
4.42376
4.43674
4.4517
4.46728
4.48146
4.49658
4.51343
4.52865
4.54342
4.56077
4.57734
4.59231
4.60954
4.62567
4.63964
4.65524
4.67172
4.68697
4.70184
4.71685
4.73156
4.74596
4.76063
4.77528
4.78941
4.80313
4.81683
4.83052
4.84394
4.85696
4.86958
4.88177
4.8935
4.90481
4.91569
4.92609
4.93591
4.94512
4.95366
4.96151
4.96859
4.97485
4.98023
4.98468
4.98818
4.99067
4.99175
4.99103
4.98923
4.98625
4.9817
4.97563
4.96799
4.95868
4.94765
4.9349
4.92036
4.90385
4.8861
4.86783
4.84922
4.82738
4.80614
4.78673
4.7667
4.74675
4.72641
4.70747
4.68953
4.6718
4.65502
4.63932
4.62452
4.61049
4.59732
4.58517
4.57385
4.56317
4.55299
4.54318
4.53379
4.52496
4.51647
4.50812
4.49978
4.4914
4.48288
4.47413
4.46506
4.45561
4.44576
4.43551
4.4249
4.41393
4.40264
4.39101
4.37904
4.36677
4.35424
4.34146
4.32846
4.31523
4.30179
4.28813
4.27426
4.26018
4.24589
4.23136
4.21659
4.20159
4.18634
4.17087
4.15517
4.13925
4.12312
4.10677
4.09021
4.07344
4.05646
4.03927
4.02187
4.00427
4.25749
4.27314
4.28901
4.30438
4.31946
4.33442
4.34897
4.36329
4.37861
4.3935
4.40742
4.42234
4.43879
4.45267
4.46649
4.48293
4.49854
4.5118
4.52696
4.54193
4.55548
4.56779
4.58276
4.59648
4.60956
4.62273
4.63572
4.64842
4.66109
4.67379
4.68641
4.69888
4.7113
4.72365
4.73573
4.74743
4.75878
4.76984
4.78062
4.7911
4.80123
4.81089
4.82001
4.82854
4.83646
4.84375
4.85036
4.85625
4.8614
4.86576
4.8693
4.87201
4.87373
4.87382
4.87274
4.87069
4.86749
4.86291
4.8568
4.84917
4.83999
4.82918
4.81671
4.80265
4.7875
4.77163
4.75445
4.73561
4.71823
4.7001
4.68071
4.66017
4.63977
4.61981
4.60049
4.58177
4.5634
4.54531
4.52757
4.51028
4.49359
4.47755
4.46213
4.44732
4.43313
4.41955
4.40657
4.39409
4.38197
4.3701
4.35836
4.34667
4.33493
4.32307
4.31101
4.29868
4.28601
4.27298
4.25958
4.2458
4.23166
4.2172
4.20244
4.18741
4.17216
4.15668
4.141
4.12512
4.10905
4.0928
4.07636
4.05972
4.04289
4.02586
4.00863
3.99121
3.97361
3.95581
3.93784
3.91968
3.90134
3.88282
3.86414
3.84529
3.82627
3.8071
3.78778
3.76832
4.19838
4.21269
4.22683
4.2408
4.25488
4.269
4.28283
4.29671
4.31071
4.32395
4.33688
4.35079
4.36438
4.3764
4.38868
4.40365
4.41653
4.42791
4.44078
4.45448
4.46607
4.4765
4.48928
4.50149
4.51234
4.52356
4.53474
4.54557
4.55621
4.56683
4.57748
4.58812
4.59879
4.60945
4.6199
4.62999
4.63979
4.6494
4.65889
4.66823
4.67734
4.68607
4.69431
4.70204
4.70925
4.71589
4.72195
4.72739
4.73219
4.73631
4.7397
4.74238
4.74421
4.74472
4.74392
4.74238
4.73985
4.73614
4.7311
4.72464
4.71666
4.70713
4.69606
4.68375
4.67049
4.65486
4.63849
4.62302
4.60639
4.58814
4.56819
4.54751
4.52673
4.50603
4.48535
4.46451
4.44345
4.42229
4.40122
4.38041
4.36002
4.34013
4.32082
4.30217
4.28418
4.26686
4.25018
4.23407
4.21844
4.20318
4.18818
4.17337
4.15863
4.14388
4.12901
4.11395
4.09862
4.083
4.06705
4.0508
4.03425
4.01744
4.00039
3.98312
3.96566
3.94803
3.93024
3.9123
3.89421
3.87598
3.85761
3.8391
3.82044
3.80164
3.78269
3.76361
3.74438
3.72502
3.70552
3.68588
3.66612
3.64624
3.62624
3.60614
3.58593
3.56563
3.54524
3.52477
4.13891
4.15175
4.16448
4.17716
4.18976
4.20213
4.21431
4.22645
4.23828
4.24972
4.26105
4.27279
4.28342
4.29365
4.30421
4.31677
4.32642
4.336
4.34676
4.35816
4.3674
4.37641
4.38689
4.39696
4.406
4.41475
4.42377
4.43257
4.44112
4.44959
4.45807
4.46655
4.4751
4.48366
4.49205
4.50016
4.50805
4.51582
4.52354
4.5312
4.5387
4.54591
4.55271
4.55908
4.56499
4.57043
4.57537
4.5798
4.58372
4.58709
4.58986
4.59202
4.59347
4.5938
4.59298
4.59147
4.58902
4.58551
4.5808
4.57473
4.56723
4.5583
4.54806
4.53686
4.52374
4.50787
4.49388
4.47881
4.46212
4.44348
4.42325
4.40227
4.38108
4.35956
4.33742
4.31456
4.29114
4.26743
4.24364
4.21998
4.19659
4.17362
4.1512
4.12941
4.10832
4.08793
4.06824
4.0492
4.03072
4.01271
3.99509
3.97773
3.96055
3.94343
3.92627
3.90901
3.89157
3.87393
3.85606
3.83797
3.81966
3.80116
3.78249
3.76367
3.74471
3.72564
3.70647
3.68719
3.66783
3.64838
3.62884
3.6092
3.58948
3.56967
3.54976
3.52976
3.50967
3.48949
3.46922
3.44887
3.42845
3.40797
3.38742
3.36682
3.34616
3.32547
3.30473
3.28396
3.26315
4.08648
4.09743
4.1082
4.11872
4.12902
4.13913
4.14904
4.15865
4.16801
4.1773
4.18632
4.19478
4.20295
4.21168
4.22028
4.22769
4.2351
4.24351
4.25197
4.2587
4.26567
4.27382
4.28143
4.28782
4.29438
4.30143
4.30761
4.31392
4.32011
4.32623
4.33238
4.33857
4.34473
4.35077
4.35664
4.36237
4.36803
4.37364
4.3792
4.38466
4.3899
4.39481
4.39934
4.40347
4.40717
4.41042
4.41325
4.41567
4.41766
4.41919
4.4202
4.42058
4.41998
4.41865
4.41657
4.4136
4.40969
4.4047
4.39848
4.39098
4.38222
4.37242
4.36171
4.34725
4.3335
4.3198
4.30458
4.28764
4.26878
4.2483
4.22713
4.20563
4.18347
4.16029
4.1361
4.11116
4.08578
4.06019
4.03462
4.00925
3.98424
3.95973
3.93585
3.91266
3.8902
3.86846
3.84741
3.82697
3.80705
3.78757
3.76843
3.74951
3.73073
3.71199
3.69322
3.67437
3.65541
3.63631
3.61707
3.5977
3.57821
3.55862
3.53895
3.5192
3.49939
3.47954
3.45963
3.43969
3.4197
3.39967
3.37959
3.35947
3.3393
3.31907
3.2988
3.27848
3.25811
3.23771
3.21726
3.19679
3.17629
3.15577
3.13524
3.11469
3.09414
3.07359
3.05303
3.03248
4.015
4.0238
4.03233
4.04059
4.04861
4.05639
4.06391
4.07116
4.07816
4.08495
4.0914
4.09758
4.10351
4.10948
4.11494
4.12016
4.12526
4.13082
4.1358
4.14041
4.14501
4.15017
4.15499
4.15897
4.16302
4.16747
4.172
4.17574
4.17906
4.18274
4.1865
4.19024
4.19375
4.19725
4.20084
4.20429
4.20761
4.21094
4.21418
4.21731
4.22032
4.22309
4.22553
4.22763
4.22934
4.23062
4.23151
4.23209
4.23237
4.23228
4.23172
4.23054
4.22881
4.22639
4.22326
4.21937
4.21465
4.20897
4.20222
4.19434
4.1854
4.17564
4.16435
4.14989
4.13719
4.12331
4.10782
4.09064
4.07162
4.05113
4.03005
4.0085
3.98602
3.96233
3.93753
3.91191
3.88577
3.85936
3.8329
3.8066
3.78061
3.75511
3.73019
3.70594
3.68241
3.65958
3.63742
3.61589
3.59489
3.57435
3.55417
3.53426
3.51453
3.49489
3.4753
3.4557
3.43606
3.41637
3.39661
3.3768
3.35694
3.33704
3.31711
3.29716
3.2772
3.25723
3.23725
3.21727
3.19728
3.17728
3.15727
3.13725
3.1172
3.09715
3.07707
3.05699
3.03689
3.01678
2.99667
2.97655
2.95644
2.93635
2.91626
2.89619
2.87615
2.85612
2.83613
2.81616
3.94305
3.94918
3.95503
3.96059
3.96587
3.97086
3.97557
3.98001
3.98416
3.98805
3.9917
3.9951
3.99825
4.00115
4.00388
4.00647
4.00896
4.0112
4.01337
4.01546
4.01759
4.01947
4.02117
4.02278
4.02449
4.02632
4.02779
4.02885
4.03003
4.03134
4.03254
4.03344
4.03446
4.03561
4.03684
4.03748
4.03854
4.0397
4.04048
4.04101
4.0416
4.04198
4.04199
4.04167
4.04092
4.03981
4.03846
4.03692
4.03511
4.03288
4.03017
4.02697
4.02322
4.01889
4.01392
4.0082
4.00164
3.99414
3.98568
3.97636
3.96636
3.95372
3.94067
3.92785
3.91365
3.89793
3.88064
3.86164
3.84141
3.82067
3.7993
3.77682
3.75311
3.72833
3.70276
3.67667
3.6503
3.62386
3.59752
3.57148
3.54588
3.52082
3.49638
3.47259
3.44947
3.42699
3.40509
3.38371
3.36277
3.3422
3.32191
3.30182
3.28187
3.26202
3.24221
3.22243
3.20266
3.18288
3.16311
3.14335
3.12359
3.10384
3.08412
3.06441
3.04472
3.02506
3.00541
2.98579
2.96617
2.94657
2.92698
2.9074
2.88783
2.86826
2.8487
2.82916
2.80963
2.79011
2.77062
2.75115
2.73172
2.71231
2.69295
2.67362
2.65433
2.63509
2.61589
3.85865
3.86197
3.86497
3.86766
3.87005
3.87215
3.87395
3.87548
3.87676
3.8778
3.87859
3.87914
3.87951
3.87968
3.87966
3.87948
3.87919
3.87882
3.87833
3.87774
3.87707
3.87633
3.87551
3.87467
3.87384
3.8729
3.87185
3.87074
3.86959
3.86835
3.86701
3.86571
3.86455
3.86335
3.86179
3.86035
3.85945
3.85842
3.85638
3.85473
3.85356
3.85164
3.84923
3.84671
3.84374
3.84052
3.83721
3.83378
3.83002
3.82581
3.82119
3.81615
3.81064
3.80458
3.79787
3.7904
3.78212
3.77305
3.76332
3.75267
3.73953
3.7273
3.71416
3.69965
3.6838
3.66661
3.64786
3.62809
3.60785
3.58685
3.5647
3.54138
3.51712
3.49216
3.46674
3.44104
3.41525
3.38956
3.36412
3.33906
3.31449
3.29048
3.26705
3.24422
3.22195
3.20023
3.17898
3.15814
3.13765
3.11743
3.09744
3.07761
3.05791
3.03829
3.01875
2.99926
2.97981
2.96041
2.94105
2.92174
2.90247
2.88323
2.86405
2.8449
2.82579
2.80672
2.78769
2.76869
2.74971
2.73076
2.71184
2.69294
2.67406
2.65521
2.63638
2.61758
2.59882
2.58009
2.56141
2.54276
2.52416
2.50561
2.4871
2.46865
2.45025
2.4319
2.41361
2.39537
3.761
3.76177
3.7622
3.76231
3.76212
3.76164
3.76087
3.75985
3.75859
3.75709
3.75536
3.75344
3.75135
3.74905
3.74659
3.744
3.74132
3.73854
3.73565
3.73269
3.72969
3.72663
3.72351
3.72037
3.71724
3.7141
3.71091