/*--------------------------------*- C++ -*----------------------------------*\
| =========                 |                                                 |
| \\      /  F ield         | OpenFOAM: The Open Source CFD Toolbox           |
|  \\    /   O peration     | Version:  v1706                                 |
|   \\  /    A nd           | Web:      www.OpenFOAM.com                      |
|    \\/     M anipulation  |                                                 |
\*---------------------------------------------------------------------------*/
FoamFile
{
    version     2.0;
    format      ascii;
    class       volScalarField;
    location    "5e-06";
    object      mu;
}
// * * * * * * * * * * * * * * * * * * * * * * * * * * * * * * * * * * * * * //

dimensions      [1 -1 -1 0 0 0 0];


internalField   nonuniform List<scalar> 
29871
(
1.0351e-05
1.0351e-05
1.0351e-05
1.0351e-05
1.0351e-05
1.0351e-05
1.0351e-05
1.0351e-05
1.0351e-05
1.0351e-05
1.0351e-05
1.0351e-05
1.0351e-05
1.0351e-05
1.0351e-05
1.0351e-05
1.0351e-05
1.0351e-05
1.0351e-05
1.0351e-05
1.0351e-05
1.0351e-05
1.0351e-05
1.0351e-05
1.0351e-05
1.0351e-05
1.0351e-05
1.0351e-05
1.0351e-05
1.0351e-05
1.0351e-05
1.0351e-05
1.0351e-05
1.0351e-05
1.0351e-05
1.0351e-05
1.0351e-05
1.0351e-05
1.0351e-05
1.0351e-05
1.0351e-05
1.0351e-05
1.0351e-05
1.0351e-05
1.0351e-05
1.0351e-05
1.0351e-05
1.0351e-05
1.0351e-05
1.0351e-05
1.0351e-05
1.0351e-05
1.0351e-05
1.0351e-05
1.0351e-05
1.0351e-05
1.0351e-05
1.0351e-05
1.0351e-05
1.0351e-05
1.0351e-05
1.0351e-05
1.0351e-05
1.0351e-05
1.0351e-05
1.0351e-05
1.0351e-05
1.0351e-05
1.0351e-05
1.0351e-05
1.0351e-05
1.0351e-05
1.0351e-05
1.0351e-05
1.0351e-05
1.0351e-05
1.0351e-05
1.0351e-05
1.0351e-05
1.0351e-05
1.0351e-05
1.0351e-05
1.0351e-05
1.0351e-05
1.0351e-05
1.0351e-05
1.0351e-05
1.0351e-05
1.0351e-05
1.0351e-05
1.0351e-05
1.0351e-05
1.0351e-05
1.0351e-05
1.0351e-05
1.0351e-05
1.0351e-05
1.0351e-05
1.0351e-05
1.0351e-05
1.0351e-05
1.0351e-05
1.0351e-05
1.0351e-05
1.0351e-05
1.0351e-05
1.0351e-05
1.0351e-05
1.0351e-05
1.0351e-05
1.0351e-05
1.0351e-05
1.0351e-05
1.0351e-05
1.0351e-05
1.0351e-05
1.0351e-05
1.0351e-05
1.0351e-05
1.0351e-05
1.0351e-05
1.0351e-05
1.0351e-05
1.0351e-05
1.0351e-05
1.0351e-05
1.0351e-05
1.0351e-05
1.0351e-05
1.0351e-05
1.0351e-05
1.0351e-05
1.0351e-05
1.0351e-05
1.0351e-05
1.0351e-05
1.0351e-05
1.0351e-05
1.0351e-05
1.0351e-05
1.0351e-05
1.0351e-05
1.0351e-05
1.0351e-05
1.0351e-05
1.0351e-05
1.0351e-05
1.0351e-05
1.0351e-05
1.0351e-05
1.0351e-05
1.0351e-05
1.0351e-05
1.0351e-05
1.0351e-05
1.0351e-05
1.0351e-05
1.0351e-05
1.0351e-05
1.0351e-05
1.0351e-05
1.0351e-05
1.0351e-05
1.0351e-05
1.0351e-05
1.0351e-05
1.0351e-05
1.0351e-05
1.0351e-05
1.0351e-05
1.0351e-05
1.0351e-05
1.0351e-05
1.0351e-05
1.0351e-05
1.0351e-05
1.0351e-05
1.0351e-05
1.0351e-05
1.0351e-05
1.0351e-05
1.0351e-05
1.0351e-05
1.0351e-05
1.0351e-05
1.0351e-05
1.0351e-05
1.0351e-05
1.0351e-05
1.0351e-05
1.0351e-05
1.0351e-05
1.0351e-05
1.0351e-05
1.0351e-05
1.0351e-05
1.0351e-05
1.0351e-05
1.0351e-05
1.0351e-05
1.0351e-05
1.0351e-05
1.0351e-05
1.0351e-05
1.0351e-05
1.0351e-05
1.0351e-05
1.0351e-05
1.0351e-05
1.0351e-05
1.0351e-05
1.0351e-05
1.0351e-05
1.0351e-05
1.0351e-05
1.0351e-05
1.0351e-05
1.0351e-05
1.0351e-05
1.0351e-05
1.0351e-05
1.0351e-05
1.0351e-05
1.0351e-05
1.0351e-05
1.0351e-05
1.0351e-05
1.0351e-05
1.0351e-05
1.0351e-05
1.0351e-05
1.0351e-05
1.0351e-05
1.0351e-05
1.0351e-05
1.0351e-05
1.0351e-05
1.0351e-05
1.0351e-05
1.0351e-05
1.0351e-05
1.0351e-05
1.0351e-05
1.0351e-05
1.0351e-05
1.0351e-05
1.0351e-05
1.0351e-05
1.0351e-05
1.0351e-05
1.0351e-05
1.0351e-05
1.0351e-05
1.0351e-05
1.0351e-05
1.0351e-05
1.0351e-05
1.0351e-05
1.0351e-05
1.0351e-05
1.0351e-05
1.0351e-05
1.0351e-05
1.0351e-05
1.0351e-05
1.0351e-05
1.0351e-05
1.0351e-05
1.0351e-05
1.0351e-05
1.0351e-05
1.0351e-05
1.0351e-05
1.0351e-05
1.0351e-05
1.0351e-05
1.0351e-05
1.0351e-05
1.0351e-05
1.0351e-05
1.0351e-05
1.0351e-05
1.0351e-05
1.0351e-05
1.0351e-05
1.0351e-05
1.0351e-05
1.0351e-05
1.0351e-05
1.0351e-05
1.0351e-05
1.0351e-05
1.0351e-05
1.0351e-05
1.0351e-05
1.0351e-05
1.0351e-05
1.0351e-05
1.0351e-05
1.0351e-05
1.0351e-05
1.0351e-05
1.0351e-05
1.0351e-05
1.0351e-05
1.0351e-05
1.0351e-05
1.0351e-05
1.0351e-05
1.0351e-05
1.0351e-05
1.0351e-05
1.0351e-05
1.0351e-05
1.0351e-05
1.0351e-05
1.0351e-05
1.0351e-05
1.0351e-05
1.0351e-05
1.0351e-05
1.0351e-05
1.0351e-05
1.0351e-05
1.0351e-05
1.0351e-05
1.0351e-05
1.0351e-05
1.0351e-05
1.0351e-05
1.0351e-05
1.0351e-05
1.0351e-05
1.0351e-05
1.0351e-05
1.0351e-05
1.0351e-05
1.0351e-05
1.0351e-05
1.0351e-05
1.0351e-05
1.0351e-05
1.0351e-05
1.0351e-05
1.0351e-05
1.0351e-05
1.0351e-05
1.0351e-05
1.0351e-05
1.0351e-05
1.0351e-05
1.0351e-05
1.0351e-05
1.0351e-05
1.0351e-05
1.0351e-05
1.0351e-05
1.0351e-05
1.0351e-05
1.0351e-05
1.0351e-05
1.0351e-05
1.0351e-05
1.0351e-05
1.0351e-05
1.0351e-05
1.0351e-05
1.0351e-05
1.0351e-05
1.0351e-05
1.0351e-05
1.0351e-05
1.0351e-05
1.0351e-05
1.0351e-05
1.0351e-05
1.0351e-05
1.0351e-05
1.0351e-05
1.0351e-05
1.0351e-05
1.0351e-05
1.0351e-05
1.0351e-05
1.0351e-05
1.0351e-05
1.0351e-05
1.0351e-05
1.0351e-05
1.0351e-05
1.0351e-05
1.0351e-05
1.0351e-05
1.0351e-05
1.0351e-05
1.0351e-05
1.0351e-05
1.0351e-05
1.0351e-05
1.0351e-05
1.0351e-05
1.0351e-05
1.0351e-05
1.0351e-05
1.0351e-05
1.0351e-05
1.0351e-05
1.0351e-05
1.0351e-05
1.0351e-05
1.0351e-05
1.0351e-05
1.0351e-05
1.0351e-05
1.0351e-05
1.0351e-05
1.0351e-05
1.0351e-05
1.0351e-05
1.0351e-05
1.0351e-05
1.0351e-05
1.0351e-05
1.0351e-05
1.0351e-05
1.0351e-05
1.0351e-05
1.0351e-05
1.0351e-05
1.0351e-05
1.0351e-05
1.0351e-05
1.0351e-05
1.0351e-05
1.0351e-05
1.0351e-05
1.0351e-05
1.0351e-05
1.0351e-05
1.0351e-05
1.0351e-05
1.0351e-05
1.0351e-05
1.0351e-05
1.0351e-05
1.0351e-05
1.0351e-05
1.0351e-05
1.0351e-05
1.0351e-05
1.0351e-05
1.0351e-05
1.0351e-05
1.0351e-05
1.0351e-05
1.0351e-05
1.0351e-05
1.0351e-05
1.0351e-05
1.0351e-05
1.0351e-05
1.0351e-05
1.0351e-05
1.0351e-05
1.0351e-05
1.0351e-05
1.0351e-05
1.0351e-05
1.0351e-05
1.0351e-05
1.0351e-05
1.0351e-05
1.0351e-05
1.0351e-05
1.0351e-05
1.0351e-05
1.0351e-05
1.0351e-05
1.0351e-05
1.0351e-05
1.0351e-05
1.0351e-05
1.0351e-05
1.0351e-05
1.0351e-05
1.0351e-05
1.0351e-05
1.0351e-05
1.0351e-05
1.0351e-05
1.0351e-05
1.0351e-05
1.0351e-05
1.0351e-05
1.0351e-05
1.0351e-05
1.0351e-05
1.0351e-05
1.0351e-05
1.0351e-05
1.0351e-05
1.0351e-05
1.0351e-05
1.0351e-05
1.0351e-05
1.0351e-05
1.0351e-05
1.0351e-05
1.0351e-05
1.0351e-05
1.0351e-05
1.0351e-05
1.0351e-05
1.0351e-05
1.0351e-05
1.0351e-05
1.0351e-05
1.0351e-05
1.0351e-05
1.0351e-05
1.0351e-05
1.0351e-05
1.0351e-05
1.0351e-05
1.0351e-05
1.0351e-05
1.0351e-05
1.0351e-05
1.0351e-05
1.0351e-05
1.0351e-05
1.0351e-05
1.0351e-05
1.0351e-05
1.0351e-05
1.0351e-05
1.0351e-05
1.0351e-05
1.0351e-05
1.0351e-05
1.0351e-05
1.0351e-05
1.0351e-05
1.0351e-05
1.0351e-05
1.0351e-05
1.0351e-05
1.0351e-05
1.0351e-05
1.0351e-05
1.0351e-05
1.0351e-05
1.0351e-05
1.0351e-05
1.0351e-05
1.0351e-05
1.0351e-05
1.0351e-05
1.0351e-05
1.0351e-05
1.0351e-05
1.0351e-05
1.0351e-05
1.0351e-05
1.0351e-05
1.0351e-05
1.0351e-05
1.0351e-05
1.0351e-05
1.0351e-05
1.0351e-05
1.0351e-05
1.0351e-05
1.0351e-05
1.0351e-05
1.0351e-05
1.0351e-05
1.0351e-05
1.0351e-05
1.0351e-05
1.0351e-05
1.0351e-05
1.0351e-05
1.0351e-05
1.0351e-05
1.0351e-05
1.0351e-05
1.0351e-05
1.0351e-05
1.0351e-05
1.0351e-05
1.0351e-05
1.0351e-05
1.0351e-05
1.0351e-05
1.0351e-05
1.0351e-05
1.0351e-05
1.0351e-05
1.0351e-05
1.0351e-05
1.0351e-05
1.0351e-05
1.0351e-05
1.0351e-05
1.0351e-05
1.0351e-05
1.0351e-05
1.0351e-05
1.0351e-05
1.0351e-05
1.0351e-05
1.0351e-05
1.0351e-05
1.0351e-05
1.0351e-05
1.0351e-05
1.0351e-05
1.0351e-05
1.0351e-05
1.0351e-05
1.0351e-05
1.0351e-05
1.0351e-05
1.0351e-05
1.0351e-05
1.0351e-05
1.0351e-05
1.0351e-05
1.0351e-05
1.0351e-05
1.0351e-05
1.0351e-05
1.0351e-05
1.0351e-05
1.0351e-05
1.0351e-05
1.0351e-05
1.0351e-05
1.0351e-05
1.0351e-05
1.0351e-05
1.0351e-05
1.0351e-05
1.0351e-05
1.0351e-05
1.0351e-05
1.0351e-05
1.0351e-05
1.0351e-05
1.0351e-05
1.0351e-05
1.0351e-05
1.0351e-05
1.0351e-05
1.0351e-05
1.0351e-05
1.0351e-05
1.0351e-05
1.0351e-05
1.0351e-05
1.0351e-05
1.0351e-05
1.0351e-05
1.0351e-05
1.0351e-05
1.0351e-05
1.0351e-05
1.0351e-05
1.0351e-05
1.0351e-05
1.0351e-05
1.0351e-05
1.0351e-05
1.0351e-05
1.0351e-05
1.0351e-05
1.0351e-05
1.0351e-05
1.0351e-05
1.0351e-05
1.0351e-05
1.0351e-05
1.0351e-05
1.0351e-05
1.0351e-05
1.0351e-05
1.0351e-05
1.0351e-05
1.0351e-05
1.0351e-05
1.0351e-05
1.0351e-05
1.0351e-05
1.0351e-05
1.0351e-05
1.0351e-05
1.0351e-05
1.0351e-05
1.0351e-05
1.0351e-05
1.0351e-05
1.0351e-05
1.0351e-05
1.0351e-05
1.0351e-05
1.0351e-05
1.0351e-05
1.0351e-05
1.0351e-05
1.0351e-05
1.0351e-05
1.0351e-05
1.0351e-05
1.0351e-05
1.0351e-05
1.0351e-05
1.0351e-05
1.0351e-05
1.0351e-05
1.0351e-05
1.0351e-05
1.0351e-05
1.0351e-05
1.0351e-05
1.0351e-05
1.0351e-05
1.0351e-05
1.0351e-05
1.0351e-05
1.0351e-05
1.0351e-05
1.0351e-05
1.0351e-05
1.0351e-05
1.0351e-05
1.0351e-05
1.0351e-05
1.0351e-05
1.0351e-05
1.0351e-05
1.0351e-05
1.0351e-05
1.0351e-05
1.0351e-05
1.0351e-05
1.0351e-05
1.0351e-05
1.0351e-05
1.0351e-05
1.0351e-05
1.0351e-05
1.0351e-05
1.0351e-05
1.0351e-05
1.0351e-05
1.0351e-05
1.0351e-05
1.0351e-05
1.0351e-05
1.0351e-05
1.0351e-05
1.0351e-05
1.0351e-05
1.0351e-05
1.0351e-05
1.0351e-05
1.0351e-05
1.0351e-05
1.0351e-05
1.0351e-05
1.0351e-05
1.0351e-05
1.0351e-05
1.0351e-05
1.0351e-05
1.0351e-05
1.0351e-05
1.0351e-05
1.0351e-05
1.0351e-05
1.0351e-05
1.0351e-05
1.0351e-05
1.0351e-05
1.0351e-05
1.0351e-05
1.0351e-05
1.0351e-05
1.0351e-05
1.0351e-05
1.0351e-05
1.0351e-05
1.0351e-05
1.0351e-05
1.0351e-05
1.0351e-05
1.0351e-05
1.0351e-05
1.0351e-05
1.0351e-05
1.0351e-05
1.0351e-05
1.0351e-05
1.0351e-05
1.0351e-05
1.0351e-05
1.0351e-05
1.0351e-05
1.0351e-05
1.0351e-05
1.0351e-05
1.0351e-05
1.0351e-05
1.0351e-05
1.0351e-05
1.0351e-05
1.0351e-05
1.0351e-05
1.0351e-05
1.0351e-05
1.0351e-05
1.0351e-05
1.0351e-05
1.0351e-05
1.0351e-05
1.0351e-05
1.0351e-05
1.0351e-05
1.0351e-05
1.0351e-05
1.0351e-05
1.0351e-05
1.0351e-05
1.0351e-05
1.0351e-05
1.0351e-05
1.0351e-05
1.0351e-05
1.0351e-05
1.0351e-05
1.0351e-05
1.0351e-05
1.0351e-05
1.0351e-05
1.0351e-05
1.0351e-05
1.0351e-05
1.0351e-05
1.0351e-05
1.0351e-05
1.0351e-05
1.0351e-05
1.0351e-05
1.0351e-05
1.0351e-05
1.0351e-05
1.0351e-05
1.0351e-05
1.0351e-05
1.0351e-05
1.0351e-05
1.0351e-05
1.0351e-05
1.0351e-05
1.0351e-05
1.0351e-05
1.0351e-05
1.0351e-05
1.0351e-05
1.0351e-05
1.0351e-05
1.0351e-05
1.0351e-05
1.0351e-05
1.0351e-05
1.0351e-05
1.0351e-05
1.0351e-05
1.0351e-05
1.0351e-05
1.0351e-05
1.0351e-05
1.0351e-05
1.0351e-05
1.0351e-05
1.0351e-05
1.0351e-05
1.0351e-05
1.0351e-05
1.0351e-05
1.0351e-05
1.0351e-05
1.0351e-05
1.0351e-05
1.0351e-05
1.0351e-05
1.0351e-05
1.0351e-05
1.0351e-05
1.0351e-05
1.0351e-05
1.0351e-05
1.0351e-05
1.0351e-05
1.0351e-05
1.0351e-05
1.0351e-05
1.0351e-05
1.0351e-05
1.0351e-05
1.0351e-05
1.0351e-05
1.0351e-05
1.0351e-05
1.0351e-05
1.0351e-05
1.0351e-05
1.0351e-05
1.0351e-05
1.0351e-05
1.0351e-05
1.0351e-05
1.0351e-05
1.0351e-05
1.0351e-05
1.0351e-05
1.0351e-05
1.0351e-05
1.0351e-05
1.0351e-05
1.0351e-05
1.0351e-05
1.0351e-05
1.0351e-05
1.0351e-05
1.0351e-05
1.0351e-05
1.0351e-05
1.0351e-05
1.0351e-05
1.0351e-05
1.0351e-05
1.0351e-05
1.0351e-05
1.0351e-05
1.0351e-05
1.0351e-05
1.0351e-05
1.0351e-05
1.0351e-05
1.0351e-05
1.0351e-05
1.0351e-05
1.0351e-05
1.0351e-05
1.0351e-05
1.0351e-05
1.0351e-05
1.0351e-05
1.0351e-05
1.0351e-05
1.0351e-05
1.0351e-05
1.0351e-05
1.0351e-05
1.0351e-05
1.0351e-05
1.0351e-05
1.0351e-05
1.0351e-05
1.0351e-05
1.0351e-05
1.0351e-05
1.0351e-05
1.0351e-05
1.0351e-05
1.0351e-05
1.0351e-05
1.0351e-05
1.0351e-05
1.0351e-05
1.0351e-05
1.0351e-05
1.0351e-05
1.0351e-05
1.0351e-05
1.0351e-05
1.0351e-05
1.0351e-05
1.0351e-05
1.0351e-05
1.0351e-05
1.0351e-05
1.0351e-05
1.0351e-05
1.0351e-05
1.0351e-05
1.0351e-05
1.0351e-05
1.0351e-05
1.0351e-05
1.0351e-05
1.0351e-05
1.0351e-05
1.0351e-05
1.0351e-05
1.0351e-05
1.0351e-05
1.0351e-05
1.0351e-05
1.0351e-05
1.0351e-05
1.0351e-05
1.0351e-05
1.0351e-05
1.0351e-05
1.0351e-05
1.0351e-05
1.0351e-05
1.0351e-05
1.0351e-05
1.0351e-05
1.0351e-05
1.0351e-05
1.0351e-05
1.0351e-05
1.0351e-05
1.0351e-05
1.0351e-05
1.0351e-05
1.0351e-05
1.0351e-05
1.0351e-05
1.0351e-05
1.0351e-05
1.0351e-05
1.0351e-05
1.0351e-05
1.0351e-05
1.0351e-05
1.0351e-05
1.0351e-05
1.0351e-05
1.0351e-05
1.0351e-05
1.0351e-05
1.0351e-05
1.0351e-05
1.0351e-05
1.0351e-05
1.0351e-05
1.0351e-05
1.0351e-05
1.0351e-05
1.0351e-05
1.0351e-05
1.0351e-05
1.03511e-05
1.03511e-05
1.03511e-05
1.03511e-05
1.03511e-05
1.03511e-05
1.03511e-05
1.03511e-05
1.03511e-05
1.03511e-05
1.03511e-05
1.03511e-05
1.03511e-05
1.03511e-05
1.03511e-05
1.03511e-05
1.03512e-05
1.03512e-05
1.0351e-05
1.0351e-05
1.0351e-05
1.0351e-05
1.0351e-05
1.0351e-05
1.0351e-05
1.0351e-05
1.0351e-05
1.0351e-05
1.0351e-05
1.0351e-05
1.0351e-05
1.0351e-05
1.0351e-05
1.0351e-05
1.0351e-05
1.0351e-05
1.0351e-05
1.0351e-05
1.0351e-05
1.0351e-05
1.0351e-05
1.0351e-05
1.0351e-05
1.0351e-05
1.0351e-05
1.0351e-05
1.0351e-05
1.0351e-05
1.0351e-05
1.0351e-05
1.0351e-05
1.0351e-05
1.0351e-05
1.0351e-05
1.0351e-05
1.0351e-05
1.0351e-05
1.0351e-05
1.0351e-05
1.0351e-05
1.0351e-05
1.0351e-05
1.0351e-05
1.0351e-05
1.0351e-05
1.0351e-05
1.0351e-05
1.0351e-05
1.0351e-05
1.0351e-05
1.0351e-05
1.0351e-05
1.0351e-05
1.0351e-05
1.0351e-05
1.0351e-05
1.0351e-05
1.0351e-05
1.0351e-05
1.0351e-05
1.0351e-05
1.0351e-05
1.0351e-05
1.0351e-05
1.0351e-05
1.0351e-05
1.0351e-05
1.0351e-05
1.0351e-05
1.03511e-05
1.03511e-05
1.03511e-05
1.03511e-05
1.03511e-05
1.03511e-05
1.03511e-05
1.03511e-05
1.03511e-05
1.03511e-05
1.03511e-05
1.03511e-05
1.03511e-05
1.03511e-05
1.03512e-05
1.03512e-05
1.03512e-05
1.03512e-05
1.03512e-05
1.03512e-05
1.03512e-05
1.03513e-05
1.03513e-05
1.03513e-05
1.03513e-05
1.03513e-05
1.03514e-05
1.03514e-05
1.03514e-05
1.03515e-05
1.03515e-05
1.03515e-05
1.03516e-05
1.03516e-05
1.03517e-05
1.03517e-05
1.03518e-05
1.03518e-05
1.03519e-05
1.03511e-05
1.03511e-05
1.03511e-05
1.03511e-05
1.03511e-05
1.03511e-05
1.03511e-05
1.03511e-05
1.03512e-05
1.03512e-05
1.03512e-05
1.03512e-05
1.03512e-05
1.03512e-05
1.03512e-05
1.03512e-05
1.03512e-05
1.03512e-05
1.03512e-05
1.03512e-05
1.03512e-05
1.03512e-05
1.03512e-05
1.03512e-05
1.03512e-05
1.03512e-05
1.03512e-05
1.03512e-05
1.03512e-05
1.03511e-05
1.03511e-05
1.03511e-05
1.03511e-05
1.03511e-05
1.03511e-05
1.03511e-05
1.03511e-05
1.03511e-05
1.03511e-05
1.03511e-05
1.03511e-05
1.03511e-05
1.03511e-05
1.03511e-05
1.03511e-05
1.03511e-05
1.03511e-05
1.03511e-05
1.03511e-05
1.03511e-05
1.03511e-05
1.03511e-05
1.03511e-05
1.03511e-05
1.03511e-05
1.03511e-05
1.03511e-05
1.03511e-05
1.03511e-05
1.03511e-05
1.03511e-05
1.03511e-05
1.03511e-05
1.03511e-05
1.03511e-05
1.03511e-05
1.03511e-05
1.03512e-05
1.03512e-05
1.03512e-05
1.03512e-05
1.03512e-05
1.03513e-05
1.03513e-05
1.03513e-05
1.03513e-05
1.03514e-05
1.03514e-05
1.03514e-05
1.03515e-05
1.03515e-05
1.03515e-05
1.03516e-05
1.03516e-05
1.03517e-05
1.03517e-05
1.03518e-05
1.03518e-05
1.03519e-05
1.0352e-05
1.03521e-05
1.03521e-05
1.03522e-05
1.03523e-05
1.03524e-05
1.03525e-05
1.03527e-05
1.03528e-05
1.03529e-05
1.03531e-05
1.03532e-05
1.03534e-05
1.03536e-05
1.03538e-05
1.0354e-05
1.03542e-05
1.03544e-05
1.03547e-05
1.0355e-05
1.03553e-05
1.03556e-05
1.03515e-05
1.03515e-05
1.03515e-05
1.03516e-05
1.03516e-05
1.03516e-05
1.03516e-05
1.03517e-05
1.03517e-05
1.03517e-05
1.03517e-05
1.03517e-05
1.03518e-05
1.03518e-05
1.03518e-05
1.03518e-05
1.03518e-05
1.03518e-05
1.03518e-05
1.03518e-05
1.03518e-05
1.03518e-05
1.03518e-05
1.03517e-05
1.03517e-05
1.03517e-05
1.03517e-05
1.03517e-05
1.03517e-05
1.03516e-05
1.03516e-05
1.03516e-05
1.03516e-05
1.03515e-05
1.03515e-05
1.03515e-05
1.03515e-05
1.03515e-05
1.03514e-05
1.03514e-05
1.03514e-05
1.03514e-05
1.03514e-05
1.03514e-05
1.03513e-05
1.03513e-05
1.03513e-05
1.03513e-05
1.03513e-05
1.03513e-05
1.03513e-05
1.03513e-05
1.03513e-05
1.03513e-05
1.03513e-05
1.03513e-05
1.03513e-05
1.03513e-05
1.03513e-05
1.03514e-05
1.03514e-05
1.03514e-05
1.03515e-05
1.03515e-05
1.03516e-05
1.03516e-05
1.03517e-05
1.03518e-05
1.03518e-05
1.03519e-05
1.0352e-05
1.03521e-05
1.03523e-05
1.03524e-05
1.03525e-05
1.03526e-05
1.03528e-05
1.03529e-05
1.03531e-05
1.03533e-05
1.03535e-05
1.03537e-05
1.03539e-05
1.03541e-05
1.03543e-05
1.03546e-05
1.03549e-05
1.03552e-05
1.03555e-05
1.03559e-05
1.03563e-05
1.03567e-05
1.03572e-05
1.03577e-05
1.03582e-05
1.03588e-05
1.03594e-05
1.03601e-05
1.03608e-05
1.03616e-05
1.03624e-05
1.03633e-05
1.03643e-05
1.03653e-05
1.03664e-05
1.03676e-05
1.03689e-05
1.03703e-05
1.03718e-05
1.03734e-05
1.03751e-05
1.0377e-05
1.0379e-05
1.03531e-05
1.03533e-05
1.03534e-05
1.03535e-05
1.03536e-05
1.03538e-05
1.03539e-05
1.0354e-05
1.03541e-05
1.03542e-05
1.03543e-05
1.03543e-05
1.03544e-05
1.03544e-05
1.03545e-05
1.03545e-05
1.03545e-05
1.03545e-05
1.03545e-05
1.03544e-05
1.03544e-05
1.03544e-05
1.03543e-05
1.03542e-05
1.03542e-05
1.03541e-05
1.0354e-05
1.03539e-05
1.03538e-05
1.03537e-05
1.03536e-05
1.03535e-05
1.03534e-05
1.03533e-05
1.03532e-05
1.03532e-05
1.03531e-05
1.0353e-05
1.03529e-05
1.03528e-05
1.03527e-05
1.03527e-05
1.03526e-05
1.03525e-05
1.03525e-05
1.03524e-05
1.03524e-05
1.03524e-05
1.03523e-05
1.03523e-05
1.03523e-05
1.03523e-05
1.03523e-05
1.03523e-05
1.03523e-05
1.03524e-05
1.03524e-05
1.03525e-05
1.03526e-05
1.03527e-05
1.03528e-05
1.0353e-05
1.03532e-05
1.03534e-05
1.03537e-05
1.03539e-05
1.03543e-05
1.03546e-05
1.0355e-05
1.03555e-05
1.0356e-05
1.03565e-05
1.0357e-05
1.03576e-05
1.03583e-05
1.03589e-05
1.03596e-05
1.03604e-05
1.03612e-05
1.0362e-05
1.0363e-05
1.03639e-05
1.0365e-05
1.03661e-05
1.03673e-05
1.03687e-05
1.03701e-05
1.03717e-05
1.03734e-05
1.03752e-05
1.03772e-05
1.03794e-05
1.03817e-05
1.03843e-05
1.0387e-05
1.039e-05
1.03931e-05
1.03966e-05
1.04003e-05
1.04042e-05
1.04085e-05
1.04131e-05
1.04181e-05
1.04234e-05
1.04292e-05
1.04354e-05
1.04421e-05
1.04493e-05
1.04571e-05
1.04655e-05
1.04746e-05
1.04844e-05
1.04949e-05
1.03594e-05
1.036e-05
1.03606e-05
1.03611e-05
1.03617e-05
1.03623e-05
1.03628e-05
1.03633e-05
1.03638e-05
1.03643e-05
1.03647e-05
1.0365e-05
1.03653e-05
1.03656e-05
1.03658e-05
1.0366e-05
1.03661e-05
1.03661e-05
1.03661e-05
1.03661e-05
1.0366e-05
1.03658e-05
1.03656e-05
1.03654e-05
1.03651e-05
1.03648e-05
1.03645e-05
1.03642e-05
1.03638e-05
1.03634e-05
1.0363e-05
1.03626e-05
1.03622e-05
1.03617e-05
1.03613e-05
1.03609e-05
1.03605e-05
1.03601e-05
1.03598e-05
1.03594e-05
1.0359e-05
1.03587e-05
1.03584e-05
1.03581e-05
1.03578e-05
1.03576e-05
1.03574e-05
1.03572e-05
1.0357e-05
1.03569e-05
1.03567e-05
1.03567e-05
1.03567e-05
1.03567e-05
1.03567e-05
1.03568e-05
1.03569e-05
1.03571e-05
1.03574e-05
1.03577e-05
1.03581e-05
1.03587e-05
1.03593e-05
1.03601e-05
1.0361e-05
1.03621e-05
1.03633e-05
1.03647e-05
1.03663e-05
1.0368e-05
1.037e-05
1.03721e-05
1.03744e-05
1.03769e-05
1.03796e-05
1.03825e-05
1.03856e-05
1.03888e-05
1.03923e-05
1.03959e-05
1.03998e-05
1.04039e-05
1.04083e-05
1.04131e-05
1.04181e-05
1.04236e-05
1.04296e-05
1.04361e-05
1.04431e-05
1.04507e-05
1.04591e-05
1.04681e-05
1.0478e-05
1.04887e-05
1.05002e-05
1.05128e-05
1.05263e-05
1.0541e-05
1.05567e-05
1.05737e-05
1.0592e-05
1.06116e-05
1.06327e-05
1.06553e-05
1.06797e-05
1.0706e-05
1.07342e-05
1.07646e-05
1.07974e-05
1.08328e-05
1.0871e-05
1.09122e-05
1.09565e-05
1.10043e-05
1.10557e-05
1.03882e-05
1.03907e-05
1.03932e-05
1.03957e-05
1.03981e-05
1.04004e-05
1.04027e-05
1.04048e-05
1.04067e-05
1.04085e-05
1.04101e-05
1.04115e-05
1.04127e-05
1.04137e-05
1.04145e-05
1.0415e-05
1.04153e-05
1.04154e-05
1.04153e-05
1.04149e-05
1.04144e-05
1.04137e-05
1.04128e-05
1.04117e-05
1.04105e-05
1.04091e-05
1.04077e-05
1.04061e-05
1.04045e-05
1.04028e-05
1.04011e-05
1.03994e-05
1.03976e-05
1.03959e-05
1.03942e-05
1.03925e-05
1.03908e-05
1.03892e-05
1.03876e-05
1.03861e-05
1.03847e-05
1.03833e-05
1.0382e-05
1.03809e-05
1.03798e-05
1.03788e-05
1.03779e-05
1.03771e-05
1.03765e-05
1.0376e-05
1.03756e-05
1.03754e-05
1.03754e-05
1.03755e-05
1.03758e-05
1.03762e-05
1.03769e-05
1.03779e-05
1.03792e-05
1.03809e-05
1.03829e-05
1.03855e-05
1.03886e-05
1.03923e-05
1.03966e-05
1.04017e-05
1.04075e-05
1.04141e-05
1.04215e-05
1.04298e-05
1.04389e-05
1.04489e-05
1.04598e-05
1.04715e-05
1.04841e-05
1.04975e-05
1.05119e-05
1.0527e-05
1.05432e-05
1.05602e-05
1.05783e-05
1.05976e-05
1.06181e-05
1.06401e-05
1.06638e-05
1.06893e-05
1.07169e-05
1.07469e-05
1.07794e-05
1.08146e-05
1.08529e-05
1.08945e-05
1.09397e-05
1.09886e-05
1.10415e-05
1.10986e-05
1.11602e-05
1.12264e-05
1.12974e-05
1.13733e-05
1.14543e-05
1.15405e-05
1.16321e-05
1.17294e-05
1.18326e-05
1.1942e-05
1.2058e-05
1.21812e-05
1.23119e-05
1.24508e-05
1.25984e-05
1.27554e-05
1.29223e-05
1.30996e-05
1.32878e-05
1.3487e-05
1.04426e-05
1.04517e-05
1.04612e-05
1.04711e-05
1.04812e-05
1.04915e-05
1.05019e-05
1.05124e-05
1.05228e-05
1.05331e-05
1.05431e-05
1.05528e-05
1.05621e-05
1.05708e-05
1.05791e-05
1.05866e-05
1.05935e-05
1.05995e-05
1.06048e-05
1.06091e-05
1.06126e-05
1.06152e-05
1.06168e-05
1.06174e-05
1.06173e-05
1.06162e-05
1.06143e-05
1.06116e-05
1.06082e-05
1.06042e-05
1.05995e-05
1.05943e-05
1.05887e-05
1.05826e-05
1.05762e-05
1.05695e-05
1.05626e-05
1.05555e-05
1.05485e-05
1.05414e-05
1.05343e-05
1.05273e-05
1.05205e-05
1.05138e-05
1.05074e-05
1.05011e-05
1.04951e-05
1.04894e-05
1.0484e-05
1.0479e-05
1.04744e-05
1.04702e-05
1.04664e-05
1.0463e-05
1.04601e-05
1.04577e-05
1.04558e-05
1.04547e-05
1.04545e-05
1.04548e-05
1.04554e-05
1.04568e-05
1.04591e-05
1.04626e-05
1.04673e-05
1.04735e-05
1.04813e-05
1.0491e-05
1.05028e-05
1.0517e-05
1.05338e-05
1.05536e-05
1.05765e-05
1.06028e-05
1.06327e-05
1.06662e-05
1.07033e-05
1.07442e-05
1.07886e-05
1.08367e-05
1.08882e-05
1.09431e-05
1.10014e-05
1.10631e-05
1.11282e-05
1.11969e-05
1.12693e-05
1.13457e-05
1.14263e-05
1.15117e-05
1.16024e-05
1.16989e-05
1.1802e-05
1.19121e-05
1.20297e-05
1.21554e-05
1.22897e-05
1.24332e-05
1.25863e-05
1.27496e-05
1.29237e-05
1.31088e-05
1.33055e-05
1.35139e-05
1.37342e-05
1.39664e-05
1.42101e-05
1.4465e-05
1.47305e-05
1.50062e-05
1.52914e-05
1.55854e-05
1.5888e-05
1.61987e-05
1.65177e-05
1.6845e-05
1.71811e-05
1.75266e-05
1.78824e-05
1.82494e-05
1.86284e-05
1.90204e-05
1.94258e-05
1.07426e-05
1.07793e-05
1.08172e-05
1.08562e-05
1.08959e-05
1.09361e-05
1.09764e-05
1.10163e-05
1.10557e-05
1.10941e-05
1.11311e-05
1.11665e-05
1.12e-05
1.12313e-05
1.12601e-05
1.12863e-05
1.13096e-05
1.13298e-05
1.1347e-05
1.13609e-05
1.13714e-05
1.13786e-05
1.13824e-05
1.13828e-05
1.13804e-05
1.13747e-05
1.1366e-05
1.13545e-05
1.13407e-05
1.13247e-05
1.13068e-05
1.1287e-05
1.12655e-05
1.12425e-05
1.12183e-05
1.11932e-05
1.11675e-05
1.11414e-05
1.1115e-05
1.10887e-05
1.10626e-05
1.10368e-05
1.10115e-05
1.09868e-05
1.09628e-05
1.09397e-05
1.09176e-05
1.08965e-05
1.08768e-05
1.08584e-05
1.08415e-05
1.08262e-05
1.08125e-05
1.08004e-05
1.07901e-05
1.07819e-05
1.07761e-05
1.07737e-05
1.07741e-05
1.07757e-05
1.07797e-05
1.07871e-05
1.07986e-05
1.08146e-05
1.08358e-05
1.08631e-05
1.08971e-05
1.0939e-05
1.09896e-05
1.10498e-05
1.11205e-05
1.12027e-05
1.12971e-05
1.14043e-05
1.15245e-05
1.16575e-05
1.18028e-05
1.19595e-05
1.21266e-05
1.23032e-05
1.24883e-05
1.2681e-05
1.28808e-05
1.30873e-05
1.33006e-05
1.35206e-05
1.37477e-05
1.39824e-05
1.42253e-05
1.44773e-05
1.47396e-05
1.5013e-05
1.52981e-05
1.5595e-05
1.59036e-05
1.62239e-05
1.65555e-05
1.68981e-05
1.72514e-05
1.76155e-05
1.79903e-05
1.8376e-05
1.87727e-05
1.91808e-05
1.96003e-05
2.00309e-05
2.04722e-05
2.09232e-05
2.13822e-05
2.18473e-05
2.23159e-05
2.2785e-05
2.32517e-05
2.37126e-05
2.41645e-05
2.46046e-05
2.50301e-05
2.54389e-05
2.58291e-05
2.61994e-05
2.65489e-05
2.6877e-05
2.71838e-05
1.18804e-05
1.2006e-05
1.21335e-05
1.22619e-05
1.23904e-05
1.25181e-05
1.26438e-05
1.27666e-05
1.28853e-05
1.2999e-05
1.31067e-05
1.32078e-05
1.33015e-05
1.33872e-05
1.34646e-05
1.35332e-05
1.35928e-05
1.36433e-05
1.36845e-05
1.37166e-05
1.37393e-05
1.37527e-05
1.37562e-05
1.37526e-05
1.37403e-05
1.37187e-05
1.36891e-05
1.36526e-05
1.36102e-05
1.35624e-05
1.35095e-05
1.34514e-05
1.33886e-05
1.33214e-05
1.32508e-05
1.31776e-05
1.31025e-05
1.30259e-05
1.29485e-05
1.28707e-05
1.27932e-05
1.27166e-05
1.2641e-05
1.2567e-05
1.24947e-05
1.24246e-05
1.23572e-05
1.2293e-05
1.22326e-05
1.21763e-05
1.21246e-05
1.20779e-05
1.20364e-05
1.20002e-05
1.19697e-05
1.19464e-05
1.19328e-05
1.19313e-05
1.19348e-05
1.19446e-05
1.19644e-05
1.19964e-05
1.20424e-05
1.21042e-05
1.21839e-05
1.22839e-05
1.24066e-05
1.25543e-05
1.27286e-05
1.29308e-05
1.31621e-05
1.34233e-05
1.37147e-05
1.40358e-05
1.43846e-05
1.47581e-05
1.51524e-05
1.55628e-05
1.59846e-05
1.64133e-05
1.68448e-05
1.72758e-05
1.77041e-05
1.81291e-05
1.85505e-05
1.89692e-05
1.93864e-05
1.98036e-05
2.02227e-05
2.06461e-05
2.10758e-05
2.15131e-05
2.19579e-05
2.24092e-05
2.28649e-05
2.33223e-05
2.37782e-05
2.42292e-05
2.46715e-05
2.51018e-05
2.55169e-05
2.59143e-05
2.6292e-05
2.66486e-05
2.69831e-05
2.7295e-05
2.75845e-05
2.78517e-05
2.80973e-05
2.83221e-05
2.85269e-05
2.87127e-05
2.88808e-05
2.90321e-05
2.91679e-05
2.92893e-05
2.93978e-05
2.94947e-05
2.95816e-05
2.96601e-05
2.97319e-05
2.97986e-05
2.98622e-05
1.51935e-05
1.54916e-05
1.57833e-05
1.60673e-05
1.63426e-05
1.66079e-05
1.6862e-05
1.71036e-05
1.73314e-05
1.75442e-05
1.77411e-05
1.79212e-05
1.80839e-05
1.82287e-05
1.83555e-05
1.84644e-05
1.85556e-05
1.86292e-05
1.86856e-05
1.87256e-05
1.87501e-05
1.87559e-05
1.87499e-05
1.873e-05
1.86949e-05
1.86435e-05
1.85777e-05
1.8502e-05
1.84181e-05
1.83262e-05
1.82258e-05
1.81162e-05
1.79973e-05
1.78701e-05
1.7736e-05
1.75969e-05
1.7454e-05
1.73079e-05
1.71593e-05
1.70088e-05
1.68577e-05
1.6707e-05
1.65574e-05
1.64096e-05
1.6264e-05
1.61217e-05
1.59837e-05
1.58515e-05
1.57264e-05
1.56094e-05
1.55017e-05
1.54048e-05
1.53198e-05
1.52459e-05
1.51845e-05
1.51424e-05
1.51287e-05
1.51332e-05
1.51504e-05
1.51881e-05
1.52515e-05
1.53443e-05
1.54703e-05
1.56333e-05
1.58371e-05
1.60853e-05
1.63811e-05
1.67256e-05
1.71179e-05
1.75548e-05
1.80329e-05
1.85487e-05
1.9098e-05
1.96752e-05
2.02733e-05
2.08845e-05
2.15008e-05
2.21144e-05
2.27177e-05
2.33035e-05
2.38654e-05
2.43978e-05
2.48975e-05
2.53631e-05
2.57944e-05
2.61922e-05
2.65581e-05
2.68943e-05
2.72033e-05
2.74881e-05
2.77512e-05
2.79944e-05
2.8219e-05
2.84263e-05
2.86171e-05
2.87919e-05
2.89512e-05
2.9096e-05
2.92269e-05
2.93445e-05
2.94501e-05
2.95447e-05
2.96299e-05
2.97072e-05
2.9778e-05
2.98443e-05
2.99077e-05
2.99698e-05
3.00317e-05
3.00941e-05
3.0157e-05
3.02214e-05
3.02868e-05
3.03514e-05
3.0416e-05
3.04809e-05
3.05457e-05
3.06105e-05
3.06753e-05
3.07405e-05
3.08062e-05
3.08722e-05
3.09383e-05
3.10039e-05
3.10686e-05
2.13827e-05
2.18024e-05
2.21951e-05
2.2561e-05
2.29007e-05
2.32149e-05
2.35046e-05
2.37704e-05
2.40126e-05
2.42314e-05
2.44269e-05
2.46e-05
2.47506e-05
2.48785e-05
2.49843e-05
2.5069e-05
2.51339e-05
2.51797e-05
2.52063e-05
2.52124e-05
2.52072e-05
2.51885e-05
2.51538e-05
2.51036e-05
2.50391e-05
2.49589e-05
2.48651e-05
2.47634e-05
2.46548e-05
2.45408e-05
2.44198e-05
2.42884e-05
2.41467e-05
2.39959e-05
2.38377e-05
2.36742e-05
2.35075e-05
2.33378e-05
2.31646e-05
2.29882e-05
2.281e-05
2.26315e-05
2.24536e-05
2.2277e-05
2.21023e-05
2.19305e-05
2.17632e-05
2.16024e-05
2.14501e-05
2.13078e-05
2.11773e-05
2.10625e-05
2.09648e-05
2.08804e-05
2.08119e-05
2.0784e-05
2.07896e-05
2.08128e-05
2.08622e-05
2.09446e-05
2.10649e-05
2.12275e-05
2.14369e-05
2.16968e-05
2.20097e-05
2.23775e-05
2.28005e-05
2.32741e-05
2.37879e-05
2.43284e-05
2.48824e-05
2.5438e-05
2.5983e-05
2.65037e-05
2.69878e-05
2.74275e-05
2.78207e-05
2.8169e-05
2.84755e-05
2.87443e-05
2.89765e-05
2.91738e-05
2.93394e-05
2.94768e-05
2.95895e-05
2.96819e-05
2.97585e-05
2.98227e-05
2.98773e-05
2.99255e-05
2.99711e-05
3.0016e-05
3.00616e-05
3.01087e-05
3.01578e-05
3.02092e-05
3.02636e-05
3.03202e-05
3.03777e-05
3.04369e-05
3.0498e-05
3.05604e-05
3.06238e-05
3.0688e-05
3.07532e-05
3.0819e-05
3.08847e-05
3.09495e-05
3.10133e-05
3.10764e-05
3.11391e-05
3.12007e-05
3.12611e-05
3.13219e-05
3.13832e-05
3.14444e-05
3.15068e-05
3.15711e-05
3.16369e-05
3.1704e-05
3.17719e-05
3.18402e-05
3.19088e-05
3.19781e-05
3.20479e-05
2.83711e-05
2.8695e-05
2.8976e-05
2.92148e-05
2.94143e-05
2.95777e-05
2.97081e-05
2.98086e-05
2.98832e-05
2.9935e-05
2.99648e-05
2.99745e-05
2.99719e-05
2.99567e-05
2.99246e-05
2.98799e-05
2.98264e-05
2.97655e-05
2.96968e-05
2.96207e-05
2.95414e-05
2.94597e-05
2.93722e-05
2.92779e-05
2.91788e-05
2.90798e-05
2.89823e-05
2.88839e-05
2.87862e-05
2.86857e-05
2.85805e-05
2.84721e-05
2.83628e-05
2.82534e-05
2.81433e-05
2.80339e-05
2.79261e-05
2.78192e-05
2.77123e-05
2.7605e-05
2.74978e-05
2.73914e-05
2.72865e-05
2.71833e-05
2.70824e-05
2.69841e-05
2.68893e-05
2.67994e-05
2.6715e-05
2.66368e-05
2.65675e-05
2.65105e-05
2.64651e-05
2.64309e-05
2.64183e-05
2.64246e-05
2.64457e-05
2.64858e-05
2.65505e-05
2.66404e-05
2.67545e-05
2.68951e-05
2.7066e-05
2.7263e-05
2.7479e-05
2.7716e-05
2.79736e-05
2.82378e-05
2.84971e-05
2.87454e-05
2.89807e-05
2.92014e-05
2.94041e-05
2.9586e-05
2.97459e-05
2.98836e-05
3.00002e-05
3.00984e-05
3.01837e-05
3.02588e-05
3.03256e-05
3.03897e-05
3.045e-05
3.05064e-05
3.05602e-05
3.06126e-05
3.06645e-05
3.07159e-05
3.07658e-05
3.0815e-05
3.0865e-05
3.09151e-05
3.09645e-05
3.10137e-05
3.10635e-05
3.11146e-05
3.11665e-05
3.12196e-05
3.12751e-05
3.13325e-05
3.13911e-05
3.14517e-05
3.15148e-05
3.15797e-05
3.16458e-05
3.17125e-05
3.17796e-05
3.18476e-05
3.19163e-05
3.19855e-05
3.20552e-05
3.21255e-05
3.21973e-05
3.22711e-05
3.23472e-05
3.24259e-05
3.25067e-05
3.25888e-05
3.26722e-05
3.27567e-05
3.28423e-05
3.29291e-05
3.30173e-05
3.3107e-05
3.31984e-05
3.24561e-05
3.24844e-05
3.24868e-05
3.24725e-05
3.2433e-05
3.2374e-05
3.23028e-05
3.22225e-05
3.21347e-05
3.20431e-05
3.19489e-05
3.18475e-05
3.17484e-05
3.16508e-05
3.15476e-05
3.14431e-05
3.13424e-05
3.12379e-05
3.11334e-05
3.10332e-05
3.09322e-05
3.08271e-05
3.07246e-05
3.06233e-05
3.05219e-05
3.04199e-05
3.03196e-05
3.0221e-05
3.01239e-05
3.00301e-05
2.99383e-05
2.98461e-05
2.97535e-05
2.96619e-05