/*--------------------------------*- C++ -*----------------------------------*\
| =========                 |                                                 |
| \\      /  F ield         | OpenFOAM: The Open Source CFD Toolbox           |
|  \\    /   O peration     | Version:  v1706                                 |
|   \\  /    A nd           | Web:      www.OpenFOAM.com                      |
|    \\/     M anipulation  |                                                 |
\*---------------------------------------------------------------------------*/
FoamFile
{
    version     2.0;
    format      ascii;
    class       volScalarField;
    location    "5e-06";
    object      p;
}
// * * * * * * * * * * * * * * * * * * * * * * * * * * * * * * * * * * * * * //

dimensions      [1 -1 -2 0 0 0 0];


internalField   nonuniform List<scalar> 
29871
(
21.9139
21.9139
21.9139
21.9139
21.9139
21.9139
21.9139
21.9139
21.9139
21.9139
21.9139
21.9139
21.9139
21.9139
21.9139
21.9139
21.9139
21.9139
21.9139
21.9139
21.9139
21.9139
21.9139
21.9139
21.9139
21.9139
21.9139
21.9139
21.9139
21.9139
21.9139
21.9139
21.9139
21.9139
21.9139
21.9139
21.9139
21.9139
21.9139
21.9139
21.9139
21.9139
21.9139
21.9139
21.9139
21.9139
21.9139
21.9139
21.9139
21.9139
21.9139
21.9139
21.9139
21.9139
21.9139
21.9139
21.9139
21.9139
21.9139
21.9139
21.9139
21.9139
21.9139
21.9139
21.9139
21.9139
21.9139
21.9139
21.9139
21.9139
21.9139
21.9139
21.9139
21.9139
21.9139
21.9139
21.9139
21.9139
21.9139
21.9139
21.9139
21.9139
21.9139
21.9139
21.9139
21.9139
21.9139
21.9139
21.9139
21.9139
21.9139
21.9139
21.9139
21.9139
21.9139
21.9139
21.9139
21.9139
21.9139
21.9139
21.9139
21.9139
21.9139
21.9139
21.9139
21.9139
21.9139
21.9139
21.9139
21.9139
21.9139
21.9139
21.9139
21.9139
21.9139
21.9139
21.9139
21.9139
21.9139
21.9139
21.9139
21.9139
21.9139
21.9139
21.9139
21.9139
21.9139
21.9139
21.9139
21.9139
21.9139
21.9139
21.9139
21.9139
21.9139
21.9139
21.9139
21.9139
21.9139
21.9139
21.9139
21.9139
21.9139
21.9139
21.9139
21.9139
21.9139
21.9139
21.9139
21.9139
21.9139
21.9139
21.9139
21.9139
21.9139
21.9139
21.9139
21.9139
21.9139
21.9139
21.9139
21.9139
21.9139
21.9139
21.9139
21.9139
21.9139
21.9139
21.9139
21.9139
21.9139
21.9139
21.9139
21.9139
21.9139
21.9139
21.9139
21.9139
21.9139
21.9139
21.9139
21.9139
21.9139
21.9139
21.9139
21.9139
21.9139
21.9139
21.9139
21.9139
21.9139
21.9139
21.9139
21.9139
21.9139
21.9139
21.9139
21.9139
21.9139
21.9139
21.9139
21.9139
21.9139
21.9139
21.9139
21.9139
21.9139
21.9139
21.9139
21.9139
21.9139
21.9139
21.9139
21.9139
21.9139
21.9139
21.9139
21.9139
21.9139
21.9139
21.9139
21.9139
21.9139
21.9139
21.9139
21.9139
21.9139
21.9139
21.9139
21.9139
21.9139
21.9139
21.9139
21.9139
21.9139
21.9139
21.9139
21.9139
21.9139
21.9139
21.9139
21.9139
21.9139
21.9139
21.9139
21.9139
21.9139
21.9139
21.9139
21.9139
21.9139
21.9139
21.9139
21.9139
21.9139
21.9139
21.9139
21.9139
21.9139
21.9139
21.9139
21.9139
21.9139
21.9139
21.9139
21.9139
21.9139
21.9139
21.9139
21.9139
21.9139
21.9139
21.9139
21.9139
21.9139
21.9139
21.9139
21.9139
21.9139
21.9139
21.9139
21.9139
21.9139
21.9139
21.9139
21.9139
21.9139
21.9139
21.9139
21.9139
21.9139
21.9139
21.9139
21.9139
21.9139
21.9139
21.9139
21.9139
21.9139
21.9139
21.9139
21.9139
21.9139
21.9139
21.9139
21.9139
21.9139
21.9139
21.9139
21.9139
21.9139
21.9139
21.9139
21.9139
21.9139
21.9139
21.9139
21.9139
21.9139
21.9139
21.9139
21.9139
21.9139
21.9139
21.9139
21.9139
21.9139
21.9139
21.9139
21.9139
21.9139
21.9139
21.9139
21.9139
21.9139
21.9139
21.9139
21.9139
21.9139
21.9139
21.9139
21.9139
21.9139
21.9139
21.9139
21.9139
21.9139
21.9139
21.9139
21.9139
21.9139
21.9139
21.9139
21.9139
21.9139
21.9139
21.9139
21.9139
21.9139
21.9139
21.9139
21.9139
21.9139
21.9139
21.9139
21.9139
21.9139
21.9139
21.9139
21.9139
21.9139
21.9139
21.9139
21.9139
21.9139
21.9139
21.9139
21.9139
21.9139
21.9139
21.9139
21.9139
21.9139
21.9139
21.9139
21.9139
21.9139
21.9139
21.9139
21.9139
21.9139
21.9139
21.9139
21.9139
21.9139
21.9139
21.9139
21.9139
21.9139
21.9139
21.9139
21.9139
21.9139
21.9139
21.9139
21.9139
21.9139
21.9139
21.9139
21.9139
21.9139
21.9139
21.9139
21.9139
21.9139
21.9139
21.9139
21.9139
21.9139
21.9139
21.9139
21.9139
21.9139
21.9139
21.9139
21.9139
21.9139
21.9139
21.9139
21.9139
21.9139
21.9139
21.9139
21.9139
21.9139
21.9139
21.9139
21.9139
21.9139
21.9139
21.9139
21.9139
21.9139
21.9139
21.9139
21.9139
21.9139
21.9139
21.9139
21.9139
21.9139
21.9139
21.9139
21.9139
21.9139
21.9139
21.9139
21.9139
21.9139
21.9139
21.9139
21.9139
21.9139
21.9139
21.9139
21.9139
21.9139
21.9139
21.9139
21.9139
21.9139
21.9139
21.9139
21.9139
21.9139
21.9139
21.9139
21.9139
21.9139
21.9139
21.9139
21.9139
21.9139
21.9139
21.9139
21.9139
21.9139
21.9139
21.9139
21.9139
21.9139
21.9139
21.9139
21.9139
21.9139
21.9139
21.9139
21.9139
21.9139
21.9139
21.9139
21.9139
21.9139
21.9139
21.9139
21.9139
21.9139
21.9139
21.9139
21.9139
21.9139
21.9139
21.9139
21.9139
21.9139
21.9139
21.9139
21.9139
21.9139
21.9139
21.9139
21.9139
21.9139
21.9139
21.9139
21.9139
21.9139
21.9139
21.9139
21.9139
21.9139
21.9139
21.9139
21.9139
21.9139
21.9139
21.9139
21.9139
21.9139
21.9139
21.9139
21.9139
21.9139
21.9139
21.9139
21.9139
21.9139
21.9139
21.9139
21.9139
21.9139
21.9139
21.9139
21.9139
21.9139
21.9139
21.9139
21.9139
21.9139
21.9139
21.9139
21.9139
21.9139
21.9139
21.9139
21.9139
21.9139
21.9139
21.9139
21.9139
21.9139
21.9139
21.9139
21.9139
21.9139
21.9139
21.9139
21.9139
21.9139
21.9139
21.9139
21.9139
21.9139
21.9139
21.9139
21.9139
21.9139
21.9139
21.9139
21.9139
21.9139
21.9139
21.9139
21.9139
21.9139
21.9139
21.9139
21.9139
21.9139
21.9139
21.9139
21.9139
21.9139
21.9139
21.9139
21.9139
21.9139
21.9139
21.9139
21.9139
21.9139
21.9139
21.9139
21.9139
21.9139
21.9139
21.9139
21.9139
21.9139
21.9139
21.9139
21.9139
21.9139
21.9139
21.9139
21.9139
21.9139
21.9139
21.9139
21.9139
21.9139
21.9139
21.9139
21.9139
21.9139
21.9139
21.9139
21.9139
21.9139
21.9139
21.9139
21.9139
21.9139
21.9139
21.9139
21.9139
21.9139
21.9139
21.9139
21.9139
21.9139
21.9139
21.9139
21.9139
21.9139
21.9139
21.9139
21.9139
21.9139
21.9139
21.9139
21.9139
21.9139
21.9139
21.9139
21.9139
21.9139
21.9139
21.9139
21.9139
21.9139
21.9139
21.9139
21.9139
21.9139
21.9139
21.9139
21.9139
21.9139
21.9139
21.9139
21.9139
21.9139
21.9139
21.9139
21.9139
21.9139
21.9139
21.9139
21.9139
21.9139
21.9139
21.9139
21.9139
21.9139
21.9139
21.9139
21.9139
21.9139
21.9139
21.9139
21.9139
21.9139
21.9139
21.9139
21.9139
21.9139
21.9139
21.9139
21.9139
21.9139
21.9139
21.9139
21.9139
21.9139
21.9139
21.9139
21.9139
21.9139
21.9139
21.9139
21.9139
21.9139
21.9139
21.9139
21.9139
21.9139
21.9139
21.9139
21.9139
21.9139
21.9139
21.9139
21.9139
21.9139
21.9139
21.9139
21.9139
21.9139
21.9139
21.9139
21.9139
21.9139
21.9139
21.9139
21.9139
21.9139
21.9139
21.9139
21.9139
21.9139
21.9139
21.9139
21.9139
21.9139
21.9139
21.9139
21.9139
21.9139
21.9139
21.9139
21.9139
21.9139
21.9139
21.9139
21.9139
21.9139
21.9139
21.9139
21.9139
21.9139
21.9139
21.9139
21.9139
21.9139
21.9139
21.9139
21.9139
21.9139
21.9139
21.9139
21.9139
21.9139
21.9139
21.9139
21.9139
21.9139
21.9139
21.9139
21.9139
21.9139
21.9139
21.9139
21.9139
21.9139
21.9139
21.9139
21.9139
21.9139
21.9139
21.9139
21.9139
21.9139
21.9139
21.9139
21.9139
21.9139
21.9139
21.9139
21.9139
21.9139
21.9139
21.9139
21.9139
21.9139
21.9139
21.9139
21.9139
21.9139
21.9139
21.9139
21.9139
21.9139
21.9139
21.9139
21.9139
21.9139
21.9139
21.9139
21.9139
21.9139
21.9139
21.9139
21.9139
21.9139
21.9139
21.9139
21.9139
21.9139
21.9139
21.9139
21.9139
21.9139
21.9139
21.9139
21.9139
21.9139
21.9139
21.9139
21.9139
21.9139
21.9139
21.9139
21.9139
21.9139
21.9139
21.9139
21.9139
21.9139
21.9139
21.9139
21.9139
21.9139
21.9139
21.9139
21.9139
21.9139
21.9139
21.9139
21.9139
21.9139
21.9139
21.9139
21.9139
21.9139
21.9139
21.9139
21.9139
21.9139
21.9139
21.9139
21.9139
21.9139
21.9139
21.9139
21.9139
21.9139
21.9139
21.9139
21.9139
21.9139
21.9139
21.9139
21.9139
21.9139
21.9139
21.9139
21.9139
21.9139
21.9139
21.9139
21.9139
21.9139
21.9139
21.9139
21.9139
21.9139
21.9139
21.9139
21.9139
21.9139
21.9139
21.9139
21.9139
21.9139
21.9139
21.9139
21.9139
21.9139
21.9139
21.9139
21.9139
21.9139
21.9139
21.9139
21.9139
21.9139
21.9139
21.9139
21.9139
21.9139
21.9139
21.9139
21.9139
21.9139
21.9139
21.9139
21.9139
21.9139
21.9139
21.9139
21.9139
21.9139
21.9139
21.9139
21.9139
21.9139
21.9139
21.9139
21.9139
21.9139
21.9139
21.9139
21.9139
21.914
21.914
21.914
21.914
21.914
21.914
21.914
21.914
21.914
21.914
21.914
21.914
21.9139
21.9139
21.9139
21.9139
21.9139
21.9139
21.9139
21.9139
21.9139
21.9139
21.9139
21.9139
21.9139
21.9139
21.9139
21.9139
21.9139
21.9139
21.9139
21.9139
21.9139
21.9139
21.9139
21.9139
21.9139
21.9139
21.9139
21.9139
21.9139
21.9139
21.9139
21.9139
21.9139
21.9139
21.9139
21.9139
21.9139
21.9139
21.9139
21.9139
21.9139
21.9139
21.9139
21.9139
21.9139
21.9139
21.9139
21.9139
21.9139
21.9139
21.9139
21.9139
21.9139
21.9139
21.9139
21.9139
21.9139
21.9139
21.9139
21.9139
21.9139
21.9139
21.9139
21.9139
21.9139
21.9139
21.9139
21.9139
21.9139
21.9139
21.9139
21.9139
21.9139
21.9139
21.9139
21.914
21.914
21.914
21.914
21.914
21.914
21.914
21.914
21.914
21.914
21.914
21.914
21.914
21.914
21.914
21.9141
21.9141
21.9141
21.9141
21.9141
21.9141
21.9141
21.9142
21.9142
21.9142
21.9142
21.9142
21.9143
21.9143
21.9143
21.9143
21.9144
21.9144
21.9144
21.9145
21.914
21.914
21.914
21.914
21.914
21.914
21.914
21.914
21.914
21.914
21.914
21.914
21.914
21.914
21.914
21.914
21.914
21.914
21.914
21.914
21.914
21.914
21.914
21.914
21.914
21.914
21.914
21.914
21.914
21.914
21.914
21.914
21.914
21.914
21.914
21.914
21.914
21.914
21.914
21.914
21.914
21.914
21.914
21.914
21.914
21.914
21.914
21.914
21.914
21.914
21.914
21.9139
21.9139
21.914
21.914
21.914
21.914
21.914
21.914
21.914
21.914
21.914
21.914
21.914
21.914
21.914
21.914
21.914
21.914
21.9141
21.9141
21.9141
21.9141
21.9141
21.9141
21.9142
21.9142
21.9142
21.9142
21.9143
21.9143
21.9143
21.9143
21.9144
21.9144
21.9144
21.9145
21.9145
21.9146
21.9146
21.9147
21.9147
21.9148
21.9149
21.915
21.915
21.9151
21.9152
21.9153
21.9154
21.9155
21.9156
21.9158
21.9159
21.9161
21.9162
21.9164
21.9166
21.9168
21.917
21.9142
21.9143
21.9143
21.9143
21.9143
21.9144
21.9144
21.9144
21.9144
21.9144
21.9145
21.9145
21.9145
21.9145
21.9145
21.9145
21.9145
21.9145
21.9145
21.9145
21.9145
21.9145
21.9145
21.9145
21.9145
21.9145
21.9145
21.9144
21.9144
21.9144
21.9144
21.9144
21.9144
21.9143
21.9143
21.9143
21.9143
21.9143
21.9143
21.9142
21.9142
21.9142
21.9142
21.9142
21.9142
21.9142
21.9142
21.9141
21.9141
21.9141
21.9141
21.9141
21.9141
21.9141
21.9141
21.9141
21.9141
21.9142
21.9142
21.9142
21.9142
21.9142
21.9142
21.9143
21.9143
21.9144
21.9144
21.9145
21.9145
21.9146
21.9146
21.9147
21.9148
21.9149
21.915
21.9151
21.9152
21.9153
21.9154
21.9155
21.9156
21.9158
21.9159
21.9161
21.9163
21.9164
21.9166
21.9169
21.9171
21.9173
21.9176
21.9179
21.9182
21.9186
21.9189
21.9193
21.9197
21.9202
21.9207
21.9212
21.9217
21.9223
21.9229
21.9236
21.9243
21.9251
21.926
21.9268
21.9278
21.9289
21.93
21.9155
21.9156
21.9157
21.9158
21.9159
21.916
21.9161
21.9162
21.9162
21.9163
21.9164
21.9165
21.9165
21.9166
21.9166
21.9166
21.9166
21.9166
21.9166
21.9166
21.9166
21.9166
21.9165
21.9165
21.9164
21.9164
21.9163
21.9163
21.9162
21.9161
21.916
21.916
21.9159
21.9158
21.9157
21.9157
21.9156
21.9155
21.9154
21.9154
21.9153
21.9153
21.9152
21.9152
21.9151
21.9151
21.915
21.915
21.915
21.9149
21.9149
21.9149
21.9149
21.9149
21.9149
21.915
21.915
21.915
21.9151
21.9152
21.9153
21.9154
21.9155
21.9157
21.9159
21.9161
21.9163
21.9166
21.9168
21.9172
21.9175
21.9179
21.9183
21.9187
21.9192
21.9196
21.9201
21.9207
21.9212
21.9218
21.9225
21.9232
21.9239
21.9247
21.9255
21.9265
21.9274
21.9285
21.9297
21.9309
21.9323
21.9338
21.9354
21.9371
21.9389
21.9409
21.9431
21.9454
21.9479
21.9506
21.9535
21.9567
21.96
21.9637
21.9676
21.9718
21.9763
21.9812
21.9865
21.9921
21.9982
22.0048
22.0119
21.921
21.9215
21.922
21.9224
21.9229
21.9233
21.9237
21.9241
21.9244
21.9248
21.925
21.9253
21.9255
21.9257
21.9258
21.9259
21.9259
21.9259
21.9259
21.9258
21.9257
21.9256
21.9254
21.9252
21.9249
21.9247
21.9244
21.9241
21.9238
21.9234
21.9231
21.9228
21.9225
21.9221
21.9218
21.9215
21.9212
21.9209
21.9206
21.9203
21.92
21.9198
21.9195
21.9193
21.9191
21.919
21.9188
21.9187
21.9186
21.9185
21.9184
21.9184
21.9185
21.9185
21.9186
21.9187
21.9189
21.9191
21.9194
21.9198
21.9203
21.9208
21.9215
21.9222
21.9231
21.9241
21.9252
21.9265
21.9279
21.9294
21.931
21.9328
21.9347
21.9368
21.939
21.9413
21.9437
21.9464
21.9491
21.9521
21.9552
21.9586
21.9622
21.9661
21.9704
21.975
21.98
21.9855
21.9914
21.9979
22.0049
22.0124
22.0206
22.0295
22.039
22.0493
22.0604
22.0723
22.0851
22.0989
22.1136
22.1295
22.1466
22.165
22.1849
22.2062
22.2293
22.2541
22.281
22.3099
22.3412
22.3749
22.4113
21.942
21.944
21.946
21.948
21.95
21.9519
21.9538
21.9556
21.9573
21.9588
21.9603
21.9616
21.9627
21.9636
21.9644
21.9651
21.9655
21.9657
21.9658
21.9657
21.9654
21.965
21.9644
21.9636
21.9628
21.9618
21.9607
21.9595
21.9583
21.957
21.9556
21.9542
21.9528
21.9514
21.95
21.9486
21.9473
21.9459
21.9446
21.9433
21.9421
21.941
21.9399
21.9389
21.9379
21.937
21.9363
21.9356
21.935
21.9345
21.9341
21.9338
21.9337
21.9338
21.9339
21.9341
21.9345
21.9352
21.9361
21.9372
21.9387
21.9405
21.9427
21.9453
21.9484
21.9521
21.9562
21.961
21.9664
21.9724
21.9791
21.9865
21.9945
22.0032
22.0125
22.0225
22.0331
22.0443
22.0563
22.069
22.0824
22.0967
22.112
22.1283
22.1459
22.1649
22.1855
22.2078
22.232
22.2583
22.287
22.3181
22.352
22.3887
22.4286
22.4718
22.5186
22.5691
22.6237
22.6826
22.7462
22.8146
22.8885
22.9681
23.0541
23.1469
23.2472
23.3557
23.4731
23.6003
23.738
23.8871
24.0484
24.2229
24.4113
22.0381
22.0467
22.0552
22.0637
22.072
22.08
22.0877
22.0951
22.1019
22.1082
22.114
22.119
22.1234
22.1271
22.13
22.1322
22.1335
22.1341
22.134
22.1331
22.1315
22.1292
22.1264
22.123
22.119
22.1147
22.1099
22.1047
22.0993
22.0937
22.0879
22.082
22.0761
22.0701
22.0642
22.0584
22.0527
22.0471
22.0417
22.0364
22.0315
22.0268
22.0223
22.0182
22.0144
22.011
22.0079
22.0052
22.0029
22.001
21.9996
21.999
21.999
21.9993
22
22.0014
22.0037
22.007
22.0114
22.0171
22.0242
22.033
22.0435
22.0561
22.0709
22.0882
22.108
22.1305
22.1559
22.1842
22.2155
22.2498
22.287
22.3272
22.3705
22.4167
22.4659
22.5183
22.5739
22.6328
22.6955
22.7623
22.8338
22.9105
22.9932
23.0828
23.1799
23.2857
23.4008
23.5264
23.6633
23.8126
23.9753
24.1524
24.345
24.554
24.7804
25.025
25.2888
25.5726
25.8772
26.2037
26.553
26.9264
27.3256
27.7523
28.2086
28.6973
29.2211
29.7835
30.3879
31.0382
31.7383
32.4924
33.3043
34.1782
22.2168
22.2474
22.2794
22.3126
22.3469
22.382
22.4176
22.4534
22.4891
22.5244
22.5591
22.5927
22.6251
22.6559
22.6849
22.7117
22.7361
22.758
22.7771
22.7932
22.8064
22.8164
22.8232
22.8268
22.8274
22.8249
22.8195
22.8114
22.8007
22.7877
22.7726
22.7556
22.7368
22.7165
22.6949
22.6724
22.649
22.6252
22.6011
22.5768
22.5527
22.5288
22.5053
22.4823
22.4599
22.4382
22.4174
22.3976
22.3789
22.3615
22.3453
22.3305
22.3171
22.3053
22.295
22.2864
22.2796
22.2754
22.2743
22.275
22.277
22.2815
22.2892
22.3007
22.3164
22.3371
22.3635
22.3962
22.4362
22.4844
22.5416
22.6089
22.6872
22.7773
22.8799
22.9955
23.1245
23.2671
23.4231
23.5927
23.7757
23.972
24.1818
24.4053
24.6427
24.8948
25.1621
25.446
25.7478
26.0696
26.4139
26.7834
27.1806
27.6084
28.0695
28.5669
29.1038
29.6834
30.3093
30.9853
31.7153
32.5032
33.3532
34.2691
35.255
36.3143
37.4507
38.6676
39.9686
41.3578
42.84
44.4217
46.1106
47.917
49.8538
51.9371
54.1866
56.6255
59.2811
62.1849
65.3723
68.8822
72.7571
23.2171
23.3426
23.4729
23.6075
23.7453
23.8853
24.0265
24.1676
24.3074
24.4447
24.5783
24.7069
24.8297
24.9453
25.0529
25.1516
25.2405
25.319
25.3865
25.4425
25.4867
25.5187
25.5382
25.5457
25.5422
25.5265
25.4996
25.4625
25.4164
25.3622
25.3004
25.2316
25.1565
25.0756
24.9901
24.9011
24.8096
24.7164
24.6223
24.5281
24.4346
24.3423
24.2517
24.1632
24.0772
23.9943
23.9148
23.8394
23.7685
23.7025
23.6417
23.5865
23.537
23.4934
23.4562
23.4259
23.4042
23.3942
23.3943
23.3997
23.4129
23.4377
23.4766
23.5315
23.6048
23.6995
23.8187
23.966
24.145
24.3594
24.6132
24.9104
25.2546
25.6491
26.0957
26.5952
27.1469
27.7495
28.4012
29.0998
29.8437
30.6315
31.4626
32.3374
33.2573
34.2247
35.243
36.3166
37.4517
38.6566
39.9409
41.3149
42.7888
44.3726
46.0767
47.9124
49.8928
52.0328
54.3498
56.8644
59.601
62.5875
65.8559
69.4418
73.3838
77.7228
82.5007
87.7595
93.5401
99.8807
106.816
114.375
122.581
131.449
140.986
151.186
162.029
173.482
185.494
197.993
210.891
224.08
237.437
27.2015
27.6725
28.1568
28.6516
29.154
29.66
30.1657
30.6667
31.1585
31.6367
32.0972
32.5361
32.9497
33.3349
33.6887
34.0088
34.2933
34.5404
34.7488
34.9182
35.0473
35.135
35.18
35.1926
35.1633
35.0922
34.9858
34.8476
34.6816
34.49
34.2742
34.0349
33.7739
33.4941
33.1993
32.8932
32.5789
32.2586
31.9347
31.6101
31.2874
30.9689
30.6561
30.3502
30.0525
29.7647
29.4888
29.227
28.9811
28.7524
28.5425
28.3531
28.185
28.0384
27.9142
27.8168
27.7576
27.7456
27.7573
27.7921
27.8644
27.9836
28.1573
28.3935
28.7011
29.0907
29.5739
30.1623
30.8667
31.6971
32.6641
33.7791
35.053
36.4945
38.1088
39.8972
41.8578
43.9855
46.2735
48.7147
51.3029
54.035
56.9139
59.9499
63.1599
66.5672
70.2011
74.0975
78.3007
82.8651
87.8525
93.3245
99.3387
105.948
113.2
121.137
129.791
139.183
149.319
160.188
171.758
183.978
196.77
210.033
223.641
237.45
251.3
265.03
278.476
291.482
303.902
315.608
326.502
336.495
345.518
353.537
360.548
366.575
371.67
375.91
379.396
382.247
384.596
40.9412
42.4035
43.8782
45.3587
46.8381
48.3087
49.7619
51.188
52.5769
53.9186
55.2032
56.4211
57.5636
58.623
59.5923
60.4656
61.2391
61.908
62.4697
62.9242
63.2719
63.4951
63.6231
63.6484
63.5622
63.3478
63.0218
62.6164
62.1452
61.6109
61.0113
60.3441
59.6104
58.8162
57.9735
57.0966
56.1968
55.281
54.3546
53.4239
52.4962
51.5781
50.6748
49.7898
48.9271
48.0917
47.2899
46.5287
45.8138
45.1502
44.5429
43.9981
43.5203
43.1062
42.7586
42.5088
42.3967
42.3976
42.4729
42.6446
42.9449
43.3995
44.0334
44.873
45.9488
47.2967
48.9549
50.9602
53.3468
56.1492
59.4076
63.1705
67.4922
72.4265
78.0202
84.3073
91.309
99.0359
107.491
116.669
126.552
137.102
148.278
160.034
172.312
185.035
198.116
211.457
224.967
238.56
252.145
265.625
278.902
291.856
304.34
316.209
327.334
337.607
346.921
355.195
362.398
368.542
373.677
377.891
381.306
384.067
386.328
388.239
389.914
391.444
392.877
394.305
395.723
397.061
398.375
399.708
401.062
402.439
403.838
405.254
406.668
408.052
409.362
410.568
411.638
78.9426
82.7736
86.6406
90.5409
94.4709
98.4214
102.382
106.341
110.276
114.151
117.941
121.626
125.163
128.513
131.646
134.539
137.175
139.524
141.56
143.253
144.656
145.761
146.536
146.961
147.03
146.657
145.922
144.98
143.807
142.456
140.911
139.114
137.066
134.81
132.39
129.861
127.268
124.62
121.913
119.164
116.412
113.692
111.022
108.411
105.868
103.406
101.048
98.8181
96.7421
94.8287
93.0868
91.5646
90.2813
89.1537
88.1868
87.6622
87.6131
87.7966
88.2287
89.0221
90.2633
92.0275
94.4002
97.4929
101.425
106.328
112.36
119.671
128.354
138.447
149.971
162.954
177.369
193.062
209.76
227.164
244.993
262.949
280.701
297.879
314
328.625
341.488
352.439
361.47
368.758
374.573
379.126
382.577
385.209
387.359
389.188
390.763
392.159
393.443
394.665
395.898
397.118
398.295
399.494
400.756
402.072
403.433
404.832
406.247
407.642
408.957
410.151
411.22
412.17
413.041
413.806
414.472
415.171
415.898
416.62
417.348
418.097
418.843
419.558
420.216
420.794
421.279
421.697
422.05
179.927
191.365
202.908
214.401
225.698
236.662
247.154
257.036
266.218
274.685
282.339
289.063
295.003
300.235
304.596
308.101
310.956
313.286
314.967
316.012
316.729
317.201
317.217
316.751
315.803
314.564
313.186
311.754
310.279
308.556
306.427
303.91
301.195
298.334
295.288
292.133
288.94
285.64
282.136
278.408
274.513
270.518
266.465
262.366
258.232
254.083
249.969
245.97
242.14
238.491
235.122
232.176
229.638
227.449
225.885
225.053
224.907
225.509
226.899
229.258
232.598
237.073
242.972
250.272
258.741
268.589
280.124
293.009
306.668
320.594
334.479
348.018
360.704
372.093
381.84
389.636
395.334
399.057
401.288
402.564
403.044
403.243
403.398
403.585
403.911
404.43
405.202
406.133
407.087
408.08
409.157
410.216
411.152
411.984
412.711
413.376
413.962
414.507
415.111
415.765
416.422
417.086
417.768
418.441
419.069
419.626
420.117
420.576
420.991
421.361
421.685
421.962
422.239
422.53
422.829
423.141
423.452
423.732
423.967
424.152
424.287
424.38
424.443
424.487
424.516
365.057
376.121
384.839
391.471
396.034
398.877
400.367
400.725
400.228
399.318
397.985
396.105
394.267
392.5
390.353
388.115
386.228
384.071
381.847
380.094
378.329
376.216
374.352
372.705
371.056
369.329
367.626
365.989
364.425
363.074
361.961
360.916
359.82
358.663
357.46
356.252
355.114
354.13
353.332
352.674
352.093
351.558
351.071
350.651
350.318
350.081
349.944
349.914
349.988
350.159
350.44
350.86
351.486
352.263
353.22
354.528
356.064
357.64
359.573
361.961
364.703
367.784
371.393
375.516
379.71
383.989
389.043
394.364
398.303
401.698
404.903
407.76
410.174
412.385
414.317
415.676
416.636
417.405
418.133
418.858
419.395
419.545
419.496
419.367
419.27
419.285
419.409
419.608
419.83
420.043
420.257
420.492
420.766
421.047
421.299
421.513
421.696
421.852
422.015
422.187
422.361
422.548
422.739
422.908
423.045
423.155
423.25
423.343
423.439
423.534
423.63
423.733
423.853
423.991
424.14
424.29
424.427
424.535
424.608
424.653
424.676
424.684
424.684
424.682
424.682
424.688
439.733
437.487
435.301
433.123
430.826
428.725
426.852
424.769
422.544
420.537
418.429
415.919
413.51
411.301
408.8
406.117
403.858
401.449
398.935
396.952
395.044
392.78
390.75
389.053
387.409
385.679
384.03
382.452
380.95
379.676
378.694
377.842
376.963
376.016
375.019
374.015
373.088
372.332
371.782
371.385
371.071
370.805
370.593
370.457
370.415
370.477
370.648
370.927
371.311
371.8
372.409
373.154
374.058
375.171
376.445
377.947
379.612
381.393
383.39
385.651
388.15
390.905
394.002
397.337
400.667
404.083
408.135
412.271
415.046
417.574
420.078
422.399
424.483
426.128
427.299
428.074
428.52
428.792
428.928
428.863
428.561
428.147
427.692
427.22
426.752
426.287
425.836
425.427
425.06
424.729
424.46
424.266
424.133
424.034
423.952
423.885
423.832
423.799
423.784
423.782
423.789
423.795
423.789
423.77
423.747
423.729
423.722
423.73
423.754
423.795
423.857
423.936
424.028
424.123
424.214
424.292
424.354
424.4
424.433
424.458
424.476
424.491
424.503
424.514
424.525
424.534
424.54
424.541
456.181
452.581
449.233
446.095
442.947
439.848
436.938
433.884
430.78
428.051
425.225
421.945
419.236
416.888
414.054
411.035
408.883
406.683
404.086
402.072
400.428
398.51
396.435
394.783
393.334
391.896
390.503
389.185
387.939
386.844
385.991
385.346
384.757
384.118
383.41
382.665
381.965
381.412
381.058
380.871
380.783
380.755
380.785
380.89
381.092
381.405
381.833
382.37
383.006
383.745
384.606
385.59
386.693
388.006
389.496
391.12
392.847
394.685
396.677
398.834
401.161
403.736
406.61
409.53
412.42
415.637
419.09
421.603
423.807
425.946
428.084
429.994
431.477
432.468
433.077
433.44
433.592
433.51
433.187
432.662
432.02
431.329
430.6
429.838
429.062
428.305
427.601
426.958
426.372
425.855
425.424
425.071
424.782
424.547
424.362
424.22
424.115
424.035
423.971
423.915
423.86
423.802
423.747
423.697
423.659
423.634
423.625
423.633
423.657
423.697
423.751
423.813
423.879
423.945
424.007
424.064
424.116
424.162
424.202
424.236
424.262
424.281
424.293
424.298
424.297
424.289
424.276
424.258
457.729
453.704
449.867
446.087
442.404
438.963
435.564
432.055
428.866
425.966
422.755
419.503
417.134
414.809
411.709
408.964
407.224
405.289
402.775
400.842
399.463
397.828
395.851
394.302
393.056
391.868
390.771
389.768
388.807
387.919
387.209
386.723
386.359
385.984
385.542
385.051
384.585
384.237
384.065
384.056
384.157
384.33
384.564
384.868
385.261
385.761
386.377
387.097
387.906
388.81
389.825
390.947
392.164
393.543
395.114
396.778
398.552
400.431
402.401
404.468
406.7
409.185
411.809
414.373
417.25
420.274
422.474
424.398
426.35
428.426
430.482
432.264
433.597
434.448
434.938
435.192
435.223
435.015
434.589
434
433.297
432.512
431.666
430.782
429.896
429.04
428.233
427.483
426.8
426.199
425.687
425.259
424.909
424.626
424.403
424.228
424.089
423.975
423.878
423.791
423.714
423.646
423.588
423.541
423.507
423.485
423.476
423.48
423.497
423.525
423.563
423.608
423.66
423.716
423.773
423.829
423.881
423.928
423.966
423.995
424.013
424.022
424.022
424.013
423.999
423.979
423.956
423.931
452.362
448.288
444.345
440.528
436.937
433.505
430.051
426.73
423.761
420.821
417.673
415.022
412.865
410.443
407.447
405.489
403.996
402.128
399.762
398.158
396.965
395.458
393.679
392.354
391.283
390.316
389.408
388.595
387.843
387.147
386.582
386.2
385.924
385.646
385.326
384.98
384.667
384.458
384.401
384.488
384.681
384.954
385.295
385.705
386.199
386.799
387.513
388.328
389.226
390.208
391.288
392.464
393.728
395.133
396.703
398.366
400.147
402.018
403.951
405.983
408.202
410.594
412.983
415.603
418.711
420.943
422.802
424.647
426.638
428.819
430.999
432.868
434.207
435.05
435.55
435.807
435.845
435.666
435.286
434.733
434.037
433.228
432.338
431.403
430.46
429.538
428.66
427.84
427.095
426.436
425.869
425.392
424.995
424.668
424.402
424.184
424.006
423.858
423.735
423.631
423.543
423.469
423.406
423.356
423.316
423.287
423.27
423.264
423.271
423.29
423.32
423.36
423.408
423.46
423.514
423.567
423.614
423.652
423.681
423.7
423.708
423.706
423.695
423.678
423.656
423.63
423.602
423.572
423.541
441.719
437.97
434.392
430.993
427.678
424.442
421.451
418.654
415.819
413.109
410.876
408.754
406.309
403.991
402.463
400.994
399.097
397.143
395.956
394.854
393.396
391.842
390.858
390.032
389.073
388.225
387.54
386.929
386.421
386.002
385.67
385.399
385.126
384.832
384.551
384.324
384.195
384.21
384.359
384.596
384.899
385.271
385.718
386.25
386.889
387.644
388.503
389.442
390.456
391.557
392.748
394.032
395.463
397.009
398.67
400.448
402.303
404.223
406.265
408.47
410.733
413.089
416.05
418.809
420.698
422.517
424.441
426.541
428.849
431.126
432.994
434.295
435.146
435.707
436.049
436.175
436.077
435.76
435.244
434.56
433.743
432.832
431.867
430.886
429.92
428.994
428.127
427.335
426.63
426.016
425.489
425.043
424.668
424.356
424.097
423.883
423.706
423.559
423.437
423.334
423.247
423.174
423.113
423.065
423.03
423.007
422.997
423
423.017
423.046
423.084
423.13
423.18
423.229
423.275
423.315
423.346
423.368
423.378
423.38
423.372
423.357
423.337
423.313
423.286
423.258
423.229
423.2
435.789
432.292
428.956
425.757
422.663
419.735
417.018
414.403
411.843
409.548
407.506
405.423
403.259
401.505
400.082
398.551
396.801
395.395
394.362
393.255
391.908
390.722
389.939
389.206
388.332
387.418
386.81
386.427
386.076
385.654
385.312
385.047
384.802
384.5
384.22
384.051
383.977
384.014
384.207
384.493
384.808
385.184
385.651
386.199
386.842
387.61
388.494
389.456
390.479
391.574
392.765
394.074
395.487
397.022
398.679
400.438
402.273
404.193
406.24
408.391
410.589
413.112
416.237
418.46
420.299
422.174
424.169
426.357
428.739
431.008
432.806
434.073
434.964
435.616
436.063
436.283
436.259
435.993
435.509
434.843
434.035
433.124
432.153
431.157
430.171
429.218
428.321
427.496
426.753
426.098
425.527
425.037
424.62
424.268
423.972
423.726
423.521
423.349
423.207
423.087
422.987
422.904
422.837
422.785
422.747
422.724
422.715
422.72
422.739
422.77
422.81
422.856
422.905
422.954
422.998
423.036
423.066
423.087
423.098
423.102
423.098
423.089
423.075
423.06
423.043
423.025
423.007
422.99
427.511
424.412
421.448
418.627
415.984
413.498
411.105
408.851
406.819
404.899
402.966
401.166
399.669
398.267
396.774
395.343
394.225
393.217
392.112
390.979
390.081
389.359
388.615
387.783
387.015
386.502
386.168
385.833
385.426
385.067
384.823
384.57
384.234
384.016
383.972
383.961
383.902
384.017
384.38
384.769
385.117
385.568
386.124
386.761
387.54
388.464
389.456
390.476
391.551
392.73
394.035
395.458
396.99
398.625
400.353
402.166
404.076
406.094
408.186
410.43
413.217
416.052
418.007
419.85
421.779
423.825
426.068
428.468
430.673
432.385
433.628
434.571
435.31
435.844
436.138
436.172
435.954
435.511
434.881
434.102
433.215
432.261
431.274
430.288
429.328
428.418
427.574
426.806
426.121
425.517
424.991
424.539
424.152
423.825
423.55
423.32
423.127
422.967
422.835
422.726
422.639
422.57
422.519
422.486
422.468
422.467
422.481
422.509
422.549
422.598
422.653
422.709
422.765
422.817
422.862
422.899
422.927
422.948
422.96
422.966
422.966
422.962
422.955
422.945
422.934
422.92
422.904
420.739
418.026
415.466
413.065
410.791
408.629
406.623
404.768
402.983
401.261
399.713
398.332
396.978
395.632
394.443
393.427
392.431
391.404
390.467
389.689
388.966
388.214
387.463
386.841
386.392
386.02
385.634
385.245
384.917
384.65
384.367
384.088
383.933
383.963
383.987
383.883
383.948
384.365
384.847
385.056
385.405
386.018
386.669
387.408
388.356
389.421
390.46
391.512
392.677
393.985
395.414
396.936
398.541
400.233
402.019
403.902
405.87
407.948
410.351
413.298
415.615
417.482
419.363
421.328
423.408
425.68
428.064
430.178
431.796
433.019
434.011
434.821
435.42
435.769
435.856
435.69
435.301
434.722
433.991
433.147
432.228
431.268
430.299
429.35
428.442
427.592
426.811
426.106
425.478
424.926
424.446
424.034
423.682
423.385
423.137
422.931
422.762
422.625
422.516
422.432
422.371
422.331
422.311
422.309
422.324
422.356
422.401
422.457
422.52
422.588
422.656
422.721
422.779
422.829
422.869
422.899
422.919
422.929
422.931
422.926
422.915
422.899
422.879
422.856
422.83
422.803
422.775
422.747
417.855
415.375
413.045
410.851
408.775
406.82
404.999
403.287
401.651
400.117
398.722
397.419
396.15
394.953
393.888
392.912
391.95
391.021
390.192
389.449
388.724
388
387.336
386.79
386.34
385.918
385.507
385.133
384.813
384.521
384.241
384.022
383.934
383.943
383.947
383.924
384.002
384.478
384.933
385.081
385.316
386.029
386.588
387.185