/*--------------------------------*- C++ -*----------------------------------*\
| =========                 |                                                 |
| \\      /  F ield         | OpenFOAM: The Open Source CFD Toolbox           |
|  \\    /   O peration     | Version:  v1706                                 |
|   \\  /    A nd           | Web:      www.OpenFOAM.com                      |
|    \\/     M anipulation  |                                                 |
\*---------------------------------------------------------------------------*/
FoamFile
{
    version     2.0;
    format      ascii;
    class       volScalarField;
    location    "5e-06";
    object      rho;
}
// * * * * * * * * * * * * * * * * * * * * * * * * * * * * * * * * * * * * * //

dimensions      [1 -3 0 0 0 0 0];


internalField   nonuniform List<scalar> 
29871
(
0.000511309
0.000511309
0.000511309
0.000511309
0.000511309
0.000511309
0.000511309
0.000511309
0.000511309
0.000511309
0.000511309
0.000511309
0.000511309
0.000511309
0.000511309
0.000511309
0.000511309
0.000511309
0.000511309
0.000511309
0.000511309
0.000511309
0.000511309
0.000511309
0.000511309
0.000511309
0.000511309
0.000511309
0.000511309
0.000511309
0.000511309
0.000511309
0.000511309
0.000511309
0.000511309
0.000511309
0.000511309
0.000511309
0.000511309
0.000511309
0.000511309
0.000511309
0.000511309
0.000511309
0.000511309
0.000511309
0.000511309
0.000511309
0.000511309
0.000511309
0.000511309
0.000511309
0.000511309
0.000511309
0.000511309
0.000511309
0.000511309
0.000511309
0.000511309
0.000511309
0.000511309
0.000511309
0.000511309
0.000511309
0.000511309
0.000511309
0.000511309
0.000511309
0.000511309
0.000511309
0.000511309
0.000511309
0.000511309
0.000511309
0.000511309
0.000511309
0.000511309
0.000511309
0.000511309
0.000511309
0.000511309
0.000511309
0.000511309
0.000511309
0.000511309
0.000511309
0.000511309
0.000511309
0.000511309
0.000511309
0.000511309
0.000511309
0.000511309
0.000511309
0.000511309
0.000511309
0.000511309
0.000511309
0.000511309
0.000511309
0.000511309
0.000511309
0.000511309
0.000511309
0.000511309
0.000511309
0.000511309
0.000511309
0.000511309
0.000511309
0.000511309
0.000511309
0.000511309
0.000511309
0.000511309
0.000511309
0.000511309
0.000511309
0.000511309
0.000511309
0.000511309
0.000511309
0.000511309
0.000511309
0.000511309
0.000511309
0.000511309
0.000511309
0.000511309
0.000511309
0.000511309
0.000511309
0.000511309
0.000511309
0.000511309
0.000511309
0.000511309
0.000511309
0.000511309
0.000511309
0.000511309
0.000511309
0.000511309
0.000511309
0.000511309
0.000511309
0.000511309
0.000511309
0.000511309
0.000511309
0.000511309
0.000511309
0.000511309
0.000511309
0.000511309
0.000511309
0.000511309
0.000511309
0.000511309
0.000511309
0.000511309
0.000511309
0.000511309
0.000511309
0.000511309
0.000511309
0.000511309
0.000511309
0.000511309
0.000511309
0.000511309
0.000511309
0.000511309
0.000511309
0.000511309
0.000511309
0.000511309
0.000511309
0.000511309
0.000511309
0.000511309
0.000511309
0.000511309
0.000511309
0.000511309
0.000511309
0.000511309
0.000511309
0.000511309
0.000511309
0.000511309
0.000511309
0.000511309
0.000511309
0.000511309
0.000511309
0.000511309
0.000511309
0.000511309
0.000511309
0.000511309
0.000511309
0.000511309
0.000511309
0.000511309
0.000511309
0.000511309
0.000511309
0.000511309
0.000511309
0.000511309
0.000511309
0.000511309
0.000511309
0.000511309
0.000511309
0.000511309
0.000511309
0.000511309
0.000511309
0.000511309
0.000511309
0.000511309
0.000511309
0.000511309
0.000511309
0.000511309
0.000511309
0.000511309
0.000511309
0.000511309
0.000511309
0.000511309
0.000511309
0.000511309
0.000511309
0.000511309
0.000511309
0.000511309
0.000511309
0.000511309
0.000511309
0.000511309
0.000511309
0.000511309
0.000511309
0.000511309
0.000511309
0.000511309
0.000511309
0.000511309
0.000511309
0.000511309
0.000511309
0.000511309
0.000511309
0.000511309
0.000511309
0.000511309
0.000511309
0.000511309
0.000511309
0.000511309
0.000511309
0.000511309
0.000511309
0.000511309
0.000511309
0.000511309
0.000511309
0.000511309
0.000511309
0.000511309
0.000511309
0.000511309
0.000511309
0.000511309
0.000511309
0.000511309
0.000511309
0.000511309
0.000511309
0.000511309
0.000511309
0.000511309
0.000511309
0.000511309
0.000511309
0.000511309
0.000511309
0.000511309
0.000511309
0.000511309
0.000511309
0.000511309
0.000511309
0.000511309
0.000511309
0.000511309
0.000511309
0.000511309
0.000511309
0.000511309
0.000511309
0.000511309
0.000511309
0.000511309
0.000511309
0.000511309
0.000511309
0.000511309
0.000511309
0.000511309
0.000511309
0.000511309
0.000511309
0.000511309
0.000511309
0.000511309
0.000511309
0.000511309
0.000511309
0.000511309
0.000511309
0.000511309
0.000511309
0.000511309
0.000511309
0.000511309
0.000511309
0.000511309
0.000511309
0.000511309
0.000511309
0.000511309
0.000511309
0.000511309
0.000511309
0.000511309
0.000511309
0.000511309
0.000511309
0.000511309
0.000511309
0.000511309
0.000511309
0.000511309
0.000511309
0.000511309
0.000511309
0.000511309
0.000511309
0.000511309
0.000511309
0.000511309
0.000511309
0.000511309
0.000511309
0.000511309
0.000511309
0.000511309
0.000511309
0.000511309
0.000511309
0.000511309
0.000511309
0.000511309
0.000511309
0.000511309
0.000511309
0.000511309
0.000511309
0.000511309
0.000511309
0.000511309
0.000511309
0.000511309
0.000511309
0.000511309
0.000511309
0.000511309
0.000511309
0.000511309
0.000511309
0.000511309
0.000511309
0.000511309
0.000511309
0.000511309
0.000511309
0.000511309
0.000511309
0.000511309
0.000511309
0.000511309
0.000511309
0.000511309
0.000511309
0.000511309
0.000511309
0.000511309
0.000511309
0.000511309
0.000511309
0.000511309
0.000511309
0.000511309
0.000511309
0.000511309
0.000511309
0.000511309
0.000511309
0.000511309
0.000511309
0.000511309
0.000511309
0.000511309
0.000511309
0.000511309
0.000511309
0.000511309
0.000511309
0.000511309
0.000511309
0.000511309
0.000511309
0.000511309
0.000511309
0.000511309
0.000511309
0.000511309
0.000511309
0.000511309
0.000511309
0.000511309
0.000511309
0.000511309
0.000511309
0.000511309
0.000511309
0.000511309
0.000511309
0.000511309
0.000511309
0.000511309
0.000511309
0.000511309
0.000511309
0.000511309
0.000511309
0.000511309
0.000511309
0.000511309
0.000511309
0.000511309
0.000511309
0.000511309
0.000511309
0.000511309
0.000511309
0.000511309
0.000511309
0.000511309
0.000511309
0.000511309
0.000511309
0.000511309
0.000511309
0.000511309
0.000511309
0.000511309
0.000511309
0.000511309
0.000511309
0.000511309
0.000511309
0.000511309
0.000511309
0.000511309
0.000511309
0.000511309
0.000511309
0.000511309
0.000511309
0.000511309
0.000511309
0.000511309
0.000511309
0.000511309
0.000511309
0.000511309
0.000511309
0.000511309
0.000511309
0.000511309
0.000511309
0.000511309
0.000511309
0.000511309
0.000511309
0.000511309
0.000511309
0.000511309
0.000511309
0.000511309
0.000511309
0.000511309
0.000511309
0.000511309
0.000511309
0.000511309
0.000511309
0.000511309
0.000511309
0.000511309
0.000511309
0.000511309
0.000511309
0.000511309
0.000511309
0.000511309
0.000511309
0.000511309
0.000511309
0.000511309
0.000511309
0.000511309
0.000511309
0.000511309
0.000511309
0.000511309
0.000511309
0.000511309
0.000511309
0.000511309
0.000511309
0.000511309
0.000511309
0.000511309
0.000511309
0.000511309
0.000511309
0.000511309
0.000511309
0.000511309
0.000511309
0.000511309
0.000511309
0.000511309
0.000511309
0.000511309
0.000511309
0.000511309
0.000511309
0.000511309
0.000511309
0.000511309
0.000511309
0.000511309
0.000511309
0.000511309
0.000511309
0.000511309
0.000511309
0.000511309
0.000511309
0.000511309
0.000511309
0.000511309
0.000511309
0.000511309
0.000511309
0.000511309
0.000511309
0.000511309
0.000511309
0.000511309
0.000511309
0.000511309
0.000511309
0.000511309
0.000511309
0.000511309
0.000511309
0.000511309
0.000511309
0.000511309
0.000511309
0.000511309
0.000511309
0.000511309
0.000511309
0.000511309
0.000511309
0.000511309
0.000511309
0.000511309
0.000511309
0.000511309
0.000511309
0.000511309
0.000511309
0.000511309
0.000511309
0.000511309
0.000511309
0.000511309
0.000511309
0.000511309
0.000511309
0.000511309
0.000511309
0.000511309
0.000511309
0.000511309
0.000511309
0.000511309
0.000511309
0.000511309
0.000511309
0.000511309
0.000511309
0.000511309
0.000511309
0.000511309
0.000511309
0.000511309
0.000511309
0.000511309
0.000511309
0.000511309
0.000511309
0.000511309
0.000511309
0.000511309
0.000511309
0.000511309
0.000511309
0.000511309
0.000511309
0.000511309
0.000511309
0.000511309
0.000511309
0.000511309
0.000511309
0.000511309
0.000511309
0.000511309
0.000511309
0.000511309
0.000511309
0.000511309
0.000511309
0.000511309
0.000511309
0.000511309
0.000511309
0.000511309
0.000511309
0.000511309
0.000511309
0.000511309
0.000511309
0.000511309
0.000511309
0.000511309
0.000511309
0.000511309
0.000511309
0.000511309
0.000511309
0.000511309
0.000511309
0.000511309
0.000511309
0.000511309
0.000511309
0.000511309
0.000511309
0.000511309
0.000511309
0.000511309
0.000511309
0.000511309
0.000511309
0.000511309
0.000511309
0.000511309
0.000511309
0.000511309
0.000511309
0.000511309
0.000511309
0.000511309
0.000511309
0.000511309
0.000511309
0.000511309
0.000511309
0.000511309
0.000511309
0.000511309
0.000511309
0.000511309
0.000511309
0.000511309
0.000511309
0.000511309
0.000511309
0.000511309
0.000511309
0.000511309
0.000511309
0.000511309
0.000511309
0.000511309
0.000511309
0.000511309
0.000511309
0.000511309
0.000511309
0.000511309
0.000511309
0.000511309
0.000511309
0.000511309
0.000511309
0.000511309
0.000511309
0.000511309
0.000511309
0.000511309
0.000511309
0.000511309
0.000511309
0.000511309
0.000511309
0.000511309
0.000511309
0.000511309
0.000511309
0.000511309
0.000511309
0.000511309
0.000511309
0.000511309
0.000511309
0.000511309
0.000511309
0.000511309
0.000511309
0.000511309
0.000511309
0.000511309
0.000511309
0.000511309
0.000511309
0.000511309
0.000511309
0.000511309
0.000511309
0.000511309
0.000511309
0.000511309
0.000511309
0.000511309
0.000511309
0.000511309
0.000511309
0.000511309
0.000511309
0.000511309
0.000511309
0.000511309
0.000511309
0.000511309
0.000511309
0.000511309
0.000511309
0.000511309
0.000511309
0.000511309
0.000511309
0.000511309
0.000511309
0.000511309
0.000511309
0.000511309
0.000511309
0.000511309
0.000511309
0.000511309
0.000511309
0.000511309
0.000511309
0.000511309
0.000511309
0.000511309
0.000511309
0.000511309
0.000511309
0.000511309
0.000511309
0.000511309
0.000511309
0.000511309
0.000511309
0.000511309
0.000511309
0.000511309
0.000511309
0.000511309
0.000511309
0.000511309
0.000511309
0.000511309
0.000511309
0.000511309
0.000511309
0.000511309
0.000511309
0.000511309
0.000511309
0.000511309
0.000511309
0.000511309
0.000511309
0.000511309
0.000511309
0.000511309
0.000511309
0.000511309
0.000511309
0.000511309
0.000511309
0.000511309
0.000511309
0.000511309
0.000511309
0.000511309
0.000511309
0.000511309
0.000511309
0.000511309
0.000511309
0.000511309
0.000511309
0.000511309
0.000511309
0.000511309
0.000511309
0.000511309
0.000511309
0.000511309
0.000511309
0.000511309
0.000511309
0.000511309
0.000511309
0.000511309
0.000511309
0.000511309
0.000511309
0.000511309
0.000511309
0.000511309
0.000511309
0.000511309
0.000511309
0.000511309
0.000511309
0.000511309
0.000511309
0.000511309
0.000511309
0.000511309
0.000511309
0.000511309
0.000511309
0.000511309
0.000511309
0.000511309
0.000511309
0.000511309
0.000511309
0.000511309
0.000511309
0.000511309
0.000511309
0.000511309
0.000511309
0.000511309
0.000511309
0.000511309
0.000511309
0.000511309
0.000511309
0.000511309
0.000511309
0.000511309
0.000511309
0.000511309
0.000511309
0.000511309
0.000511309
0.000511309
0.000511309
0.000511309
0.000511309
0.000511309
0.000511309
0.000511309
0.000511309
0.000511309
0.000511309
0.000511309
0.000511309
0.000511309
0.000511309
0.000511309
0.000511309
0.000511309
0.000511309
0.000511309
0.000511309
0.000511309
0.000511309
0.000511309
0.000511309
0.000511309
0.000511309
0.000511309
0.000511309
0.000511309
0.000511309
0.000511309
0.000511309
0.000511309
0.000511309
0.000511309
0.000511309
0.000511309
0.000511309
0.000511309
0.000511309
0.000511309
0.000511309
0.00051131
0.00051131
0.00051131
0.00051131
0.00051131
0.00051131
0.00051131
0.00051131
0.00051131
0.00051131
0.00051131
0.00051131
0.00051131
0.00051131
0.00051131
0.00051131
0.00051131
0.00051131
0.000511309
0.000511309
0.000511309
0.000511309
0.000511309
0.000511309
0.000511309
0.000511309
0.000511309
0.000511309
0.000511309
0.000511309
0.000511309
0.000511309
0.000511309
0.000511309
0.000511309
0.000511309
0.000511309
0.000511309
0.000511309
0.000511309
0.000511309
0.000511309
0.000511309
0.000511309
0.000511309
0.000511309
0.000511309
0.000511309
0.000511309
0.000511309
0.000511309
0.000511309
0.000511309
0.000511309
0.000511309
0.000511309
0.000511309
0.000511309
0.000511309
0.000511309
0.000511309
0.000511309
0.000511309
0.000511309
0.000511309
0.000511309
0.000511309
0.000511309
0.000511309
0.000511309
0.000511309
0.000511309
0.000511309
0.000511309
0.000511309
0.000511309
0.000511309
0.000511309
0.000511309
0.000511309
0.000511309
0.000511309
0.000511309
0.000511309
0.000511309
0.000511309
0.000511309
0.000511309
0.000511309
0.00051131
0.00051131
0.00051131
0.00051131
0.00051131
0.00051131
0.00051131
0.00051131
0.00051131
0.00051131
0.00051131
0.00051131
0.00051131
0.00051131
0.00051131
0.00051131
0.00051131
0.00051131
0.00051131
0.00051131
0.00051131
0.00051131
0.00051131
0.00051131
0.00051131
0.00051131
0.000511311
0.000511311
0.000511311
0.000511311
0.000511311
0.000511311
0.000511311
0.000511311
0.000511311
0.000511311
0.000511312
0.000511312
0.000511312
0.00051131
0.00051131
0.00051131
0.00051131
0.00051131
0.00051131
0.00051131
0.00051131
0.00051131
0.00051131
0.00051131
0.00051131
0.00051131
0.00051131
0.00051131
0.00051131
0.00051131
0.00051131
0.00051131
0.00051131
0.00051131
0.00051131
0.00051131
0.00051131
0.00051131
0.00051131
0.00051131
0.00051131
0.00051131
0.00051131
0.00051131
0.00051131
0.00051131
0.00051131
0.00051131
0.00051131
0.00051131
0.00051131
0.00051131
0.00051131
0.00051131
0.00051131
0.00051131
0.00051131
0.00051131
0.00051131
0.00051131
0.00051131
0.00051131
0.00051131
0.00051131
0.00051131
0.00051131
0.00051131
0.00051131
0.00051131
0.00051131
0.00051131
0.00051131
0.00051131
0.00051131
0.00051131
0.00051131
0.00051131
0.00051131
0.00051131
0.00051131
0.00051131
0.00051131
0.00051131
0.00051131
0.00051131
0.00051131
0.00051131
0.00051131
0.000511311
0.000511311
0.000511311
0.000511311
0.000511311
0.000511311
0.000511311
0.000511311
0.000511311
0.000511312
0.000511312
0.000511312
0.000511312
0.000511312
0.000511313
0.000511313
0.000511313
0.000511313
0.000511314
0.000511314
0.000511314
0.000511315
0.000511315
0.000511316
0.000511316
0.000511317
0.000511317
0.000511318
0.000511319
0.000511319
0.00051132
0.000511321
0.000511322
0.000511323
0.000511324
0.000511311
0.000511311
0.000511311
0.000511311
0.000511311
0.000511311
0.000511311
0.000511311
0.000511311
0.000511311
0.000511312
0.000511312
0.000511312
0.000511312
0.000511312
0.000511312
0.000511312
0.000511312
0.000511312
0.000511312
0.000511312
0.000511312
0.000511312
0.000511312
0.000511312
0.000511312
0.000511312
0.000511312
0.000511312
0.000511312
0.000511312
0.000511312
0.000511311
0.000511311
0.000511311
0.000511311
0.000511311
0.000511311
0.000511311
0.000511311
0.000511311
0.000511311
0.000511311
0.000511311
0.000511311
0.000511311
0.000511311
0.000511311
0.00051131
0.00051131
0.00051131
0.00051131
0.00051131
0.00051131
0.00051131
0.00051131
0.00051131
0.00051131
0.000511311
0.000511311
0.000511311
0.000511311
0.000511311
0.000511311
0.000511311
0.000511311
0.000511312
0.000511312
0.000511312
0.000511312
0.000511313
0.000511313
0.000511313
0.000511314
0.000511314
0.000511314
0.000511315
0.000511315
0.000511316
0.000511316
0.000511317
0.000511318
0.000511318
0.000511319
0.00051132
0.000511321
0.000511322
0.000511323
0.000511324
0.000511325
0.000511326
0.000511327
0.000511329
0.00051133
0.000511332
0.000511334
0.000511335
0.000511337
0.000511339
0.000511342
0.000511344
0.000511346
0.000511349
0.000511352
0.000511355
0.000511358
0.000511362
0.000511365
0.000511369
0.000511374
0.000511379
0.000511315
0.000511316
0.000511316
0.000511316
0.000511317
0.000511317
0.000511318
0.000511318
0.000511319
0.000511319
0.000511319
0.00051132
0.00051132
0.00051132
0.00051132
0.00051132
0.000511321
0.000511321
0.000511321
0.000511321
0.000511321
0.000511321
0.000511321
0.00051132
0.00051132
0.00051132
0.00051132
0.00051132
0.000511319
0.000511319
0.000511319
0.000511318
0.000511318
0.000511318
0.000511318
0.000511317
0.000511317
0.000511317
0.000511316
0.000511316
0.000511316
0.000511316
0.000511315
0.000511315
0.000511315
0.000511315
0.000511315
0.000511314
0.000511314
0.000511314
0.000511314
0.000511314
0.000511314
0.000511314
0.000511314
0.000511314
0.000511314
0.000511314
0.000511315
0.000511315
0.000511315
0.000511316
0.000511316
0.000511317
0.000511318
0.000511319
0.00051132
0.000511321
0.000511322
0.000511323
0.000511325
0.000511326
0.000511328
0.00051133
0.000511332
0.000511334
0.000511336
0.000511339
0.000511341
0.000511344
0.000511346
0.000511349
0.000511352
0.000511356
0.000511359
0.000511363
0.000511367
0.000511372
0.000511376
0.000511382
0.000511387
0.000511393
0.0005114
0.000511407
0.000511415
0.000511423
0.000511432
0.000511442
0.000511453
0.000511464
0.000511477
0.00051149
0.000511505
0.000511521
0.000511538
0.000511557
0.000511577
0.000511598
0.000511621
0.000511646
0.000511673
0.000511702
0.000511732
0.000511335
0.000511337
0.000511339
0.000511341
0.000511343
0.000511345
0.000511347
0.000511348
0.00051135
0.000511351
0.000511353
0.000511354
0.000511355
0.000511356
0.000511357
0.000511358
0.000511358
0.000511359
0.000511359
0.000511359
0.000511359
0.000511358
0.000511358
0.000511357
0.000511356
0.000511355
0.000511354
0.000511353
0.000511352
0.000511351
0.00051135
0.000511349
0.000511347
0.000511346
0.000511345
0.000511343
0.000511342
0.000511341
0.000511339
0.000511338
0.000511337
0.000511336
0.000511335
0.000511334
0.000511333
0.000511332
0.000511331
0.000511331
0.00051133
0.00051133
0.00051133
0.00051133
0.00051133
0.00051133
0.00051133
0.00051133
0.000511331
0.000511332
0.000511333
0.000511335
0.000511337
0.000511339
0.000511342
0.000511345
0.000511348
0.000511352
0.000511357
0.000511362
0.000511367
0.000511373
0.00051138
0.000511387
0.000511395
0.000511403
0.000511412
0.000511422
0.000511432
0.000511443
0.000511454
0.000511466
0.000511479
0.000511493
0.000511509
0.000511525
0.000511543
0.000511563
0.000511584
0.000511607
0.000511633
0.00051166
0.00051169
0.000511722
0.000511757
0.000511794
0.000511834
0.000511878
0.000511924
0.000511973
0.000512025
0.000512082
0.000512141
0.000512205
0.000512273
0.000512346
0.000512424
0.000512507
0.000512597
0.000512693
0.000512797
0.000512908
0.000513029
0.000513158
0.000513299
0.000511409
0.000511416
0.000511424
0.000511432
0.00051144
0.000511448
0.000511456
0.000511463
0.00051147
0.000511477
0.000511484
0.00051149
0.000511495
0.0005115
0.000511504
0.000511508
0.000511511
0.000511513
0.000511514
0.000511515
0.000511515
0.000511515
0.000511513
0.000511512
0.000511509
0.000511506
0.000511503
0.000511499
0.000511495
0.00051149
0.000511486
0.000511481
0.000511475
0.00051147
0.000511465
0.000511459
0.000511454
0.000511449
0.000511443
0.000511438
0.000511433
0.000511428
0.000511424
0.00051142
0.000511415
0.000511412
0.000511408
0.000511405
0.000511402
0.0005114
0.000511398
0.000511397
0.000511396
0.000511396
0.000511396
0.000511397
0.000511398
0.0005114
0.000511403
0.000511408
0.000511413
0.00051142
0.000511428
0.000511438
0.00051145
0.000511464
0.00051148
0.000511499
0.00051152
0.000511544
0.000511571
0.000511601
0.000511633
0.000511669
0.000511707
0.000511748
0.000511792
0.000511838
0.000511887
0.00051194
0.000511995
0.000512053
0.000512116
0.000512182
0.000512253
0.000512328
0.00051241
0.000512498
0.000512592
0.000512695
0.000512805
0.000512925
0.000513055
0.000513195
0.000513347
0.000513511
0.000513689
0.000513882
0.000514091
0.000514317
0.000514562
0.000514828
0.000515116
0.00051543
0.000515771
0.000516142
0.000516546
0.000516985
0.000517462
0.000517981
0.000518544
0.000519155
0.000519816
0.00052053
0.000521301
0.000511734
0.000511766
0.000511799
0.000511831
0.000511864
0.000511896
0.000511928
0.000511958
0.000511987
0.000512015
0.000512041
0.000512065
0.000512087
0.000512106
0.000512122
0.000512136
0.000512147
0.000512155
0.00051216
0.000512162
0.000512161
0.000512157
0.000512151
0.000512142
0.000512131
0.000512118
0.000512103
0.000512086
0.000512068
0.000512048
0.000512028
0.000512006
0.000511985
0.000511962
0.00051194
0.000511917
0.000511895
0.000511873
0.000511851
0.00051183
0.00051181
0.00051179
0.000511772
0.000511755
0.000511739
0.000511724
0.000511711
0.000511699
0.000511689
0.00051168
0.000511673
0.000511669
0.000511668
0.000511669
0.000511671
0.000511676
0.000511684
0.000511696
0.000511712
0.000511734
0.000511761
0.000511794
0.000511835
0.000511883
0.00051194
0.000512007
0.000512083
0.00051217
0.000512267
0.000512375
0.000512494
0.000512624
0.000512765
0.000512917
0.00051308
0.000513255
0.000513441
0.000513639
0.000513849
0.000514073
0.00051431
0.000514564
0.000514837
0.00051513
0.000515448
0.000515794
0.000516172
0.000516585
0.000517037
0.000517532
0.000518075
0.00051867
0.000519319
0.000520027
0.000520798
0.000521634
0.000522539
0.000523515
0.000524565
0.000525691
0.000526896
0.000528182
0.000529552
0.000531011
0.000532563
0.000534215
0.000535973
0.000537847
0.000539847
0.000541984
0.000544269
0.000546718
0.000549343
0.00055216
0.000555186
0.000558439
0.000512277
0.000512382
0.000512493
0.000512609
0.00051273
0.000512856
0.000512984
0.000513115
0.000513248
0.000513381
0.000513513
0.000513643
0.00051377
0.000513894
0.000514012
0.000514124
0.000514229
0.000514327
0.000514415
0.000514494
0.000514562
0.00051462
0.000514667
0.000514703
0.000514728
0.000514739
0.00051474
0.000514731
0.000514712
0.000514683
0.000514644
0.000514597
0.000514542
0.000514479
0.000514411
0.000514338
0.00051426
0.000514179
0.000514095
0.000514009
0.000513922
0.000513834
0.000513747
0.000513661
0.000513576
0.000513492
0.000513411
0.000513333
0.000513259
0.000513189
0.000513123
0.000513061
0.000513006
0.000512955
0.000512911
0.000512873
0.000512841
0.000512818
0.000512807
0.000512808
0.000512813
0.000512826
0.000512849
0.000512886
0.000512939
0.00051301
0.000513102
0.000513216
0.000513357
0.000513527
0.00051373
0.000513969
0.000514249
0.000514572
0.000514942
0.000515362
0.000515836
0.000516364
0.000516949
0.000517591
0.00051829
0.000519046
0.000519858
0.000520728
0.000521657
0.000522646
0.000523697
0.000524814
0.000526001
0.000527266
0.000528616
0.00053006
0.000531607
0.000533265
0.000535044
0.000536955
0.000539009
0.000541217
0.000543591
0.000546146
0.000548894
0.00055185
0.000555029
0.000558448
0.000562124
0.000566076
0.000570326
0.000574901
0.000579831
0.000585155
0.000590917
0.000597173
0.000603987
0.000611439
0.000619617
0.000628624
0.000638579
0.00064961
0.000661864
0.000675495
0.000690674
0.000707577
0.000726391
0.000515359
0.000515773
0.000516206
0.000516658
0.000517125
0.000517605
0.000518095
0.000518592
0.000519092
0.000519593
0.00052009
0.000520579
0.000521056
0.000521518
0.000521959
0.000522377
0.000522767
0.000523126
0.00052345
0.000523738
0.000523987
0.000524192
0.000524355
0.000524479
0.000524553
0.000524579
0.000524566
0.000524512
0.000524419
0.000524292
0.000524132
0.000523942
0.000523722
0.000523474
0.000523202
0.000522911
0.000522604
0.000522286
0.000521959
0.000521627
0.000521292
0.000520957
0.000520623
0.000520294
0.000519971
0.000519656
0.000519352
0.000519061
0.000518784
0.000518524
0.000518282
0.00051806
0.000517859
0.000517678
0.000517523
0.00051739
0.000517288
0.000517224
0.000517206
0.00051722
0.000517255
0.000517329
0.000517453
0.000517635
0.000517886
0.000518217
0.00051864
0.000519168
0.000519818
0.000520603
0.000521539
0.000522641
0.000523922
0.000525392
0.000527056
0.000528914
0.000530963
0.000533196
0.00053561
0.000538201
0.000540966
0.000543902
0.000547009
0.000550287
0.00055374
0.000557377
0.000561209
0.000565254
0.000569537
0.000574095
0.000578971
0.000584218
0.000589893
0.000596058
0.000602783
0.000610148
0.000618241
0.000627163
0.000637027
0.000647959
0.000660096
0.00067359
0.000688603
0.000705307
0.000723876
0.000744489
0.000767322
0.000792548
0.000820327
0.000850811
0.000884136
0.000920417
0.000959746
0.00100218
0.00104774
0.00109639
0.00114802
0.00120245
0.00125942
0.00131856
0.00137942
0.00144144
0.001504
0.000527344
0.000528925
0.000530578
0.000532296
0.000534067
0.000535879
0.000537718
0.000539569
0.000541417
0.000543246
0.000545043
0.000546791
0.000548478
0.000550091
0.000551615
0.000553041
0.000554358
0.000555558
0.00055663
0.00055757
0.000558371
0.000559025
0.000559542
0.000559926
0.00056013
0.000560173
0.000560098
0.000559892
0.00055956
0.000559109
0.000558544
0.000557869
0.000557094
0.000556233
0.0005553
0.000554304
0.000553255
0.00055216
0.000551029
0.000549875
0.000548712
0.000547548
0.000546389
0.000545241
0.00054411
0.000543005
0.000541934
0.000540908
0.000539935
0.00053902
0.000538169
0.000537393
0.000536695
0.000536079
0.000535544
0.000535091
0.000534784
0.000534654
0.000534675
0.000534763
0.00053497
0.000535341
0.000535909
0.000536706
0.000537762
0.000539112
0.000540796
0.000542854
0.000545323
0.00054824
0.000551644
0.000555579
0.000560091
0.000565222
0.000571011
0.000577492
0.000584695
0.000592642
0.000601351
0.000610838
0.000621121
0.000632232
0.000644222
0.00065717
0.000671173
0.00068635
0.00070284
0.000720802
0.000740426
0.000761945
0.000785619
0.000811701
0.000840424
0.000872009
0.000906661
0.000944562
0.000985855
0.00103063
0.0010789
0.00113061
0.00118561
0.0012436
0.0013042
0.00136688
0.00143099
0.00149581
0.00156054
0.00162437
0.00168654
0.00174628
0.00180295
0.00185594
0.00190482
0.00194921
0.00198881
0.00202349
0.00205327
0.00207826
0.00209873
0.00211504
0.00212765
0.00213713
0.00214407
0.000569752
0.00057481
0.000579995
0.000585284
0.000590653
0.000596078
0.000601532
0.000606979
0.000612388
0.000617729
0.000622966
0.000628061
0.000632982
0.000637699
0.000642177
0.000646383
0.000650289
0.000653864
0.000657087
0.000659942
0.000662396
0.000664436
0.000666054
0.000667259
0.000668029
0.000668242
0.000667975
0.000667339
0.000666389
0.000665131
0.000663556
0.000661662
0.000659446
0.000656918
0.000654123
0.000651117
0.000647952
0.000644666
0.000641289
0.00063785
0.000634374
0.000630888
0.000627414
0.000623973
0.000620586
0.000617278
0.000614078
0.000611012
0.000608106
0.000605381
0.000602858
0.000600555
0.000598505
0.000596701
0.000595136
0.000593904
0.000593096
0.000592878
0.000593041
0.000593464
0.000594322
0.000595746
0.000597841
0.000600714
0.000604492
0.000609332
0.000615402
0.000622885
0.000631988
0.000642944
0.000656018
0.000671502
0.000689707
0.000710943
0.00073547
0.000763451
0.000794958
0.000830016
0.00086864
0.000910851
0.00095662
0.00100582
0.0010583
0.00111385
0.00117216
0.00123283
0.00129534
0.00135914
0.0014237
0.00148851
0.00155304
0.00161679
0.00167926
0.00173985
0.00179785
0.00185255
0.00190338
0.00194984
0.00199143
0.0020278
0.00205884
0.00208462
0.0021054
0.00212163
0.00213388
0.00214286
0.0021493
0.00215387
0.00215715
0.00215955
0.00216135
0.00216297
0.00216442
0.00216549
0.00216643
0.00216742
0.00216853
0.00216976
0.00217108
0.00217245
0.00217376
0.00217485
0.00217555
0.00217571
0.00217524
0.000692367
0.000707094
0.000722438
0.000738415
0.000755017
0.000772193
0.000789881
0.000808016
0.00082647
0.000845058
0.000863652
0.00088214
0.000900301
0.00091794
0.000934912
0.000951063
0.000966279
0.000980383
0.000993235
0.00100475
0.00101486
0.00102361
0.00103095
0.00103672
0.0010408
0.00104264
0.00104271
0.00104172
0.00103945
0.00103615
0.00103178
0.00102606
0.00101898
0.00101073
0.0010015
0.000991556
0.000981091
0.000970132
0.000958663
0.000946788
0.000934712
0.000922626
0.00091063
0.000898764
0.000887077
0.000875647
0.000864587
0.000854042
0.000844148
0.000834949
0.000826464
0.000818964
0.0008126
0.000806852
0.000801679
0.000798412
0.000797686
0.00079818
0.00079957
0.000802511
0.000807464
0.000814774
0.000824809
0.000838107
0.00085524
0.000876759
0.000903366
0.00093579
0.000974487
0.00101963
0.00107133
0.00112974
0.00119483
0.00126597
0.00134206
0.00142184
0.00150404
0.0015872
0.0016696
0.00174928
0.00182386
0.00189126
0.00195018
0.00199994
0.00204053
0.00207284
0.00209814
0.0021174
0.00213136
0.00214133
0.00214884
0.00215461
0.0021589
0.00216204
0.00216435
0.0021661
0.0021676
0.00216879
0.00216966
0.00217048
0.00217144
0.00217257
0.00217384
0.0021752
0.00217656
0.00217774
0.00217849
0.00217866
0.00217826
0.0021773
0.00217596
0.00217417
0.00217199
0.00216994
0.00216801
0.00216607
0.00216406
0.00216199
0.00215976
0.00215728
0.00215443
0.00215113
0.00214736
0.00214321
0.00213869
0.00107613
0.00112702
0.00117925
0.00123219
0.00128513
0.00133741
0.00138833
0.00143717
0.0014834
0.00152693
0.00156729
0.00160385
0.00163696
0.00166706
0.00169367
0.00171658
0.00173665
0.00175446
0.00176937
0.00178138
0.00179188
0.00180126
0.00180858
0.00181377
0.00181664
0.00181785
0.00181812
0.00181815
0.00181784
0.00181632
0.00181276
0.00180714
0.00180033
0.00179259
0.00178368
0.00177396
0.00176375
0.00175268
0.00174023
0.00172629
0.00171113
0.00169512
0.00167843
0.00166112
0.00164322
0.00162481
0.00160615
0.00158766
0.00156964
0.00155217
0.00153567
0.00152088
0.00150778
0.00149605
0.00148677
0.00148084
0.0014783
0.00147926
0.0014835
0.00149212
0.00150515
0.00152329
0.0015479
0.00157884
0.00161492
0.00165702
0.00170666
0.00176255
0.00182198
0.00188241
0.00194232
0.00200022
0.00205374
0.00210091
0.00214019
0.00217022
0.00219032
0.00220114
0.00220498
0.00220454
0.00220059
0.00219541
0.00219037
0.00218591
0.00218248
0.00218024
0.00217942
0.00217949
0.00217982
0.00218043
0.0021814
0.00218226
0.00218252
0.00218224
0.00218135
0.00218003
0.0021782
0.00217606