/*--------------------------------*- C++ -*----------------------------------*\
| =========                 |                                                 |
| \\      /  F ield         | OpenFOAM: The Open Source CFD Toolbox           |
|  \\    /   O peration     | Version:  v1706                                 |
|   \\  /    A nd           | Web:      www.OpenFOAM.com                      |
|    \\/     M anipulation  |                                                 |
\*---------------------------------------------------------------------------*/
FoamFile
{
    version     2.0;
    format      ascii;
    class       volScalarField;
    location    "5e-06";
    object      Tov;
}
// * * * * * * * * * * * * * * * * * * * * * * * * * * * * * * * * * * * * * //

dimensions      [0 0 0 1 0 0 0];


internalField   nonuniform List<scalar> 
29871
(
144.4
144.4
144.4
144.4
144.4
144.4
144.4
144.4
144.4
144.4
144.4
144.4
144.4
144.4
144.4
144.4
144.4
144.4
144.4
144.4
144.4
144.4
144.4
144.4
144.4
144.4
144.4
144.4
144.4
144.4
144.4
144.4
144.4
144.4
144.4
144.4
144.4
144.4
144.4
144.4
144.4
144.4
144.4
144.4
144.4
144.4
144.4
144.4
144.4
144.4
144.4
144.4
144.4
144.4
144.4
144.4
144.4
144.4
144.4
144.4
144.4
144.4
144.4
144.4
144.4
144.4
144.4
144.4
144.4
144.4
144.4
144.4
144.4
144.4
144.4
144.4
144.4
144.4
144.4
144.4
144.4
144.4
144.4
144.4
144.4
144.4
144.4
144.4
144.4
144.4
144.4
144.4
144.4
144.4
144.4
144.4
144.4
144.4
144.4
144.4
144.4
144.4
144.4
144.4
144.4
144.4
144.4
144.4
144.4
144.4
144.4
144.4
144.4
144.4
144.4
144.4
144.4
144.4
144.4
144.4
144.4
144.4
144.4
144.4
144.4
144.4
144.4
144.4
144.4
144.4
144.4
144.4
144.4
144.4
144.4
144.4
144.4
144.4
144.4
144.4
144.4
144.4
144.4
144.4
144.4
144.4
144.4
144.4
144.4
144.4
144.4
144.4
144.4
144.4
144.4
144.4
144.4
144.4
144.4
144.4
144.4
144.4
144.4
144.4
144.4
144.4
144.4
144.4
144.4
144.4
144.4
144.4
144.4
144.4
144.4
144.4
144.4
144.4
144.4
144.4
144.4
144.4
144.4
144.4
144.4
144.4
144.4
144.4
144.4
144.4
144.4
144.4
144.4
144.4
144.4
144.4
144.4
144.4
144.4
144.4
144.4
144.4
144.4
144.4
144.4
144.4
144.4
144.4
144.4
144.4
144.4
144.4
144.4
144.4
144.4
144.4
144.4
144.4
144.4
144.4
144.4
144.4
144.4
144.4
144.4
144.4
144.4
144.4
144.4
144.4
144.4
144.4
144.4
144.4
144.4
144.4
144.4
144.4
144.4
144.4
144.4
144.4
144.4
144.4
144.4
144.4
144.4
144.4
144.4
144.4
144.4
144.4
144.4
144.4
144.4
144.4
144.4
144.4
144.4
144.4
144.4
144.4
144.4
144.4
144.4
144.4
144.4
144.4
144.4
144.4
144.4
144.4
144.4
144.4
144.4
144.4
144.4
144.4
144.4
144.4
144.4
144.4
144.4
144.4
144.4
144.4
144.4
144.4
144.4
144.4
144.4
144.4
144.4
144.4
144.4
144.4
144.4
144.4
144.4
144.4
144.4
144.4
144.4
144.4
144.4
144.4
144.4
144.4
144.4
144.4
144.4
144.4
144.4
144.4
144.4
144.4
144.4
144.4
144.4
144.4
144.4
144.4
144.4
144.4
144.4
144.4
144.4
144.4
144.4
144.4
144.4
144.4
144.4
144.4
144.4
144.4
144.4
144.4
144.4
144.4
144.4
144.4
144.4
144.4
144.4
144.4
144.4
144.4
144.4
144.4
144.4
144.4
144.4
144.4
144.4
144.4
144.4
144.4
144.4
144.4
144.4
144.4
144.4
144.4
144.4
144.4
144.4
144.4
144.4
144.4
144.4
144.4
144.4
144.4
144.4
144.4
144.4
144.4
144.4
144.4
144.4
144.4
144.4
144.4
144.4
144.4
144.4
144.4
144.4
144.4
144.4
144.4
144.4
144.4
144.4
144.4
144.4
144.4
144.4
144.4
144.4
144.4
144.4
144.4
144.4
144.4
144.4
144.4
144.4
144.4
144.4
144.4
144.4
144.4
144.4
144.4
144.4
144.4
144.4
144.4
144.4
144.4
144.4
144.4
144.4
144.4
144.4
144.4
144.4
144.4
144.4
144.4
144.4
144.4
144.4
144.4
144.4
144.4
144.4
144.4
144.4
144.4
144.4
144.4
144.4
144.4
144.4
144.4
144.4
144.4
144.4
144.4
144.4
144.4
144.4
144.4
144.4
144.4
144.4
144.4
144.4
144.4
144.4
144.4
144.4
144.4
144.4
144.4
144.4
144.4
144.4
144.4
144.4
144.4
144.4
144.4
144.4
144.4
144.4
144.4
144.4
144.4
144.4
144.4
144.4
144.4
144.4
144.4
144.4
144.4
144.4
144.4
144.4
144.4
144.4
144.4
144.4
144.4
144.4
144.4
144.4
144.4
144.4
144.4
144.4
144.4
144.4
144.4
144.4
144.4
144.4
144.4
144.4
144.4
144.4
144.4
144.4
144.4
144.4
144.4
144.4
144.4
144.4
144.4
144.4
144.4
144.4
144.4
144.4
144.4
144.4
144.4
144.4
144.4
144.4
144.4
144.4
144.4
144.4
144.4
144.4
144.4
144.4
144.4
144.4
144.4
144.4
144.4
144.4
144.4
144.4
144.4
144.4
144.4
144.4
144.4
144.4
144.4
144.4
144.4
144.4
144.4
144.4
144.4
144.4
144.4
144.4
144.4
144.4
144.4
144.4
144.4
144.4
144.4
144.4
144.4
144.4
144.4
144.4
144.4
144.4
144.4
144.4
144.4
144.4
144.4
144.4
144.4
144.4
144.4
144.4
144.4
144.4
144.4
144.4
144.4
144.4
144.4
144.4
144.4
144.4
144.4
144.4
144.4
144.4
144.4
144.4
144.4
144.4
144.4
144.4
144.4
144.4
144.4
144.4
144.4
144.4
144.4
144.4
144.4
144.4
144.4
144.4
144.4
144.4
144.4
144.4
144.4
144.4
144.4
144.4
144.4
144.4
144.4
144.4
144.4
144.4
144.4
144.4
144.4
144.4
144.4
144.4
144.4
144.4
144.4
144.4
144.4
144.4
144.4
144.4
144.4
144.4
144.4
144.4
144.4
144.4
144.4
144.4
144.4
144.4
144.4
144.4
144.4
144.4
144.4
144.4
144.4
144.4
144.4
144.4
144.4
144.4
144.4
144.4
144.4
144.4
144.4
144.4
144.4
144.4
144.4
144.4
144.4
144.4
144.4
144.4
144.4
144.4
144.4
144.4
144.4
144.4
144.4
144.4
144.4
144.4
144.4
144.4
144.4
144.4
144.4
144.4
144.4
144.4
144.4
144.4
144.4
144.4
144.4
144.4
144.4
144.4
144.4
144.4
144.4
144.4
144.4
144.4
144.4
144.4
144.4
144.4
144.4
144.4
144.4
144.4
144.4
144.4
144.4
144.4
144.4
144.4
144.4
144.4
144.4
144.4
144.4
144.4
144.4
144.4
144.4
144.4
144.4
144.4
144.4
144.4
144.4
144.4
144.4
144.4
144.4
144.4
144.4
144.4
144.4
144.4
144.4
144.4
144.4
144.4
144.4
144.4
144.4
144.4
144.4
144.4
144.4
144.4
144.4
144.4
144.4
144.4
144.4
144.4
144.4
144.4
144.4
144.4
144.4
144.4
144.4
144.4
144.4
144.4
144.4
144.4
144.4
144.4
144.4
144.4
144.4
144.4
144.4
144.4
144.4
144.4
144.4
144.4
144.4
144.4
144.4
144.4
144.4
144.4
144.4
144.4
144.4
144.4
144.4
144.4
144.4
144.4
144.4
144.4
144.4
144.4
144.4
144.4
144.4
144.4
144.4
144.4
144.4
144.4
144.4
144.4
144.4
144.4
144.4
144.4
144.4
144.4
144.4
144.4
144.4
144.4
144.4
144.4
144.4
144.4
144.4
144.4
144.4
144.4
144.4
144.4
144.4
144.4
144.4
144.4
144.4
144.4
144.4
144.4
144.4
144.4
144.4
144.4
144.4
144.4
144.4
144.4
144.4
144.4
144.4
144.4
144.4
144.4
144.4
144.4
144.4
144.4
144.4
144.4
144.4
144.4
144.4
144.4
144.4
144.4
144.4
144.4
144.4
144.4
144.4
144.4
144.4
144.4
144.4
144.4
144.4
144.4
144.4
144.4
144.4
144.4
144.4
144.4
144.4
144.4
144.4
144.4
144.4
144.4
144.4
144.4
144.4
144.4
144.4
144.4
144.4
144.4
144.4
144.4
144.4
144.4
144.4
144.4
144.4
144.4
144.4
144.4
144.4
144.4
144.4
144.4
144.4
144.4
144.4
144.4
144.4
144.4
144.4
144.4
144.4
144.4
144.4
144.4
144.4
144.4
144.4
144.4
144.4
144.4
144.4
144.4
144.4
144.4
144.4
144.4
144.4
144.4
144.4
144.4
144.4
144.4
144.4
144.4
144.4
144.4
144.4
144.4
144.4
144.401
144.401
144.4
144.4
144.4
144.4
144.4
144.4
144.4
144.4
144.4
144.4
144.4
144.4
144.4
144.4
144.4
144.4
144.4
144.4
144.4
144.4
144.4
144.4
144.4
144.4
144.4
144.4
144.4
144.4
144.4
144.4
144.4
144.4
144.4
144.4
144.4
144.4
144.4
144.4
144.4
144.4
144.4
144.4
144.4
144.4
144.4
144.4
144.4
144.4
144.4
144.4
144.4
144.4
144.4
144.4
144.4
144.4
144.4
144.4
144.4
144.4
144.4
144.4
144.4
144.4
144.4
144.4
144.4
144.4
144.4
144.4
144.4
144.4
144.4
144.4
144.4
144.4
144.4
144.4
144.4
144.4
144.4
144.4
144.4
144.4
144.401
144.401
144.401
144.401
144.401
144.401
144.401
144.401
144.401
144.401
144.401
144.401
144.401
144.401
144.401
144.402
144.402
144.402
144.402
144.402
144.402
144.402
144.402
144.403
144.403
144.403
144.4
144.4
144.4
144.401
144.401
144.401
144.401
144.401
144.401
144.401
144.401
144.401
144.401
144.401
144.401
144.401
144.401
144.401
144.401
144.401
144.401
144.401
144.401
144.401
144.401
144.401
144.401
144.401
144.401
144.401
144.401
144.401
144.401
144.401
144.4
144.4
144.4
144.4
144.4
144.4
144.4
144.4
144.4
144.4
144.4
144.4
144.4
144.4
144.4
144.4
144.4
144.4
144.4
144.4
144.4
144.4
144.4
144.4
144.4
144.4
144.4
144.4
144.4
144.4
144.401
144.401
144.401
144.401
144.401
144.401
144.401
144.401
144.401
144.401
144.401
144.401
144.401
144.402
144.402
144.402
144.402
144.402
144.402
144.403
144.403
144.403
144.403
144.403
144.404
144.404
144.404
144.405
144.405
144.405
144.406
144.406
144.406
144.407
144.407
144.408
144.409
144.409
144.41
144.411
144.411
144.412
144.413
144.414
144.415
144.416
144.402
144.402
144.402
144.402
144.402
144.402
144.403
144.403
144.403
144.403
144.403
144.403
144.403
144.403
144.403
144.403
144.403
144.403
144.403
144.403
144.403
144.403
144.403
144.403
144.403
144.403
144.403
144.403
144.403
144.403
144.403
144.403
144.402
144.402
144.402
144.402
144.402
144.402
144.402
144.402
144.402
144.402
144.402
144.402
144.401
144.401
144.401
144.401
144.401
144.401
144.401
144.401
144.401
144.401
144.401
144.401
144.401
144.401
144.401
144.401
144.402
144.402
144.402
144.402
144.402
144.402
144.403
144.403
144.403
144.404
144.404
144.404
144.405
144.405
144.406
144.406
144.407
144.407
144.408
144.409
144.409
144.41
144.411
144.412
144.413
144.414
144.415
144.416
144.417
144.418
144.42
144.421
144.423
144.425
144.427
144.429
144.431
144.433
144.436
144.439
144.442
144.445
144.448
144.452
144.456
144.46
144.465
144.469
144.475
144.48
144.486
144.409
144.409
144.41
144.41
144.411
144.411
144.412
144.412
144.413
144.413
144.414
144.414
144.414
144.414
144.415
144.415
144.415
144.415
144.415
144.415
144.415
144.414
144.414
144.414
144.414
144.413
144.413
144.413
144.412
144.412
144.411
144.411
144.411
144.41
144.41
144.409
144.409
144.409
144.408
144.408
144.408
144.407
144.407
144.407
144.406
144.406
144.406
144.406
144.406
144.406
144.405
144.405
144.405
144.405
144.406
144.406
144.406
144.406
144.406
144.407
144.407
144.408
144.409
144.41
144.411
144.412
144.413
144.414
144.416
144.418
144.419
144.421
144.424
144.426
144.428
144.431
144.434
144.436
144.439
144.443
144.446
144.45
144.454
144.458
144.463
144.468
144.473
144.479
144.485
144.492
144.499
144.507
144.516
144.525
144.535
144.546
144.558
144.57
144.584
144.598
144.614
144.631
144.649
144.668
144.689
144.711
144.736
144.762
144.79
144.82
144.853
144.888
144.926
144.44
144.442
144.445
144.447
144.45
144.452
144.454
144.456
144.458
144.46
144.461
144.462
144.464
144.464
144.465
144.465
144.465
144.465
144.465
144.465
144.464
144.463
144.462
144.461
144.459
144.458
144.456
144.455
144.453
144.451
144.449
144.448
144.446
144.444
144.442
144.44
144.439
144.437
144.435
144.434
144.433
144.431
144.43
144.429
144.428
144.427
144.426
144.425
144.425
144.424
144.424
144.424
144.424
144.425
144.425
144.426
144.427
144.428
144.43
144.432
144.434
144.437
144.441
144.445
144.45
144.455
144.461
144.468
144.476
144.484
144.493
144.503
144.513
144.524
144.536
144.549
144.562
144.576
144.591
144.607
144.624
144.642
144.662
144.683
144.706
144.731
144.758
144.787
144.819
144.854
144.892
144.932
144.976
145.024
145.076
145.131
145.191
145.255
145.325
145.399
145.48
145.566
145.659
145.759
145.868
145.984
146.11
146.246
146.393
146.551
146.722
146.906
147.105
144.557
144.568
144.579
144.59
144.601
144.611
144.622
144.631
144.64
144.649
144.656
144.663
144.669
144.674
144.678
144.681
144.683
144.684
144.684
144.683
144.681
144.678
144.675
144.67
144.665
144.66
144.654
144.647
144.64
144.633
144.625
144.617
144.61
144.602
144.594
144.586
144.579
144.572
144.564
144.558
144.551
144.545
144.539
144.533
144.528
144.524
144.519
144.516
144.512
144.51
144.508
144.506
144.506
144.506
144.507
144.508
144.511
144.514
144.519
144.526
144.534
144.544
144.556
144.571
144.588
144.608
144.631
144.657
144.686
144.719
144.756
144.796
144.839
144.886
144.937
144.991
145.048
145.109
145.174
145.243
145.316
145.393
145.476
145.565
145.66
145.763
145.875
145.997
146.129
146.273
146.43
146.6
146.785
146.987
147.205
147.441
147.697
147.973
148.271
148.592
148.937
149.308
149.707
150.137
150.599
151.096
151.633
152.211
152.835
153.509
154.237
155.024
155.872
156.787
157.773
145.098
145.145
145.192
145.239
145.284
145.328
145.37
145.409
145.446
145.48
145.51
145.537
145.559
145.578
145.593
145.603
145.609
145.61
145.608
145.602
145.591
145.578
145.561
145.541
145.518
145.493
145.465
145.436
145.406
145.375
145.342
145.31
145.277
145.244
145.212
145.18
145.148
145.118
145.088
145.06
145.033
145.007
144.983
144.961
144.941
144.922
144.905
144.891
144.879
144.869
144.862
144.859
144.859
144.861
144.865
144.873
144.886
144.904
144.929
144.96
144.999
145.047
145.105
145.174
145.256
145.35
145.459
145.582
145.722
145.877
146.049
146.237
146.442
146.663
146.9
147.153
147.423
147.709
148.013
148.336
148.678
149.042
149.43
149.847
150.295
150.78
151.304
151.872
152.49
153.161
153.891
154.685
155.547
156.483
157.497
158.594
159.779
161.056
162.428
163.899
165.472
167.151
168.941
170.847
172.874
175.031
177.325
179.768
182.372
185.149
188.112
191.278
194.658
198.266
202.113
206.208
146.119
146.29
146.469
146.655
146.845
147.04
147.237
147.434
147.63
147.824
148.014
148.197
148.372
148.539
148.694
148.837
148.967
149.082
149.182
149.265
149.331
149.38
149.411
149.424
149.421
149.401
149.365
149.315
149.251
149.174
149.086
148.988
148.881
148.766
148.645
148.518
148.388
148.255
148.121
147.987
147.854
147.722
147.593
147.467
147.345
147.226
147.113
147.006
146.904
146.81
146.722
146.643
146.571
146.507
146.452
146.406
146.371
146.35
146.346
146.351
146.362
146.388
146.432
146.497
146.585
146.701
146.848
147.03
147.252
147.519
147.836
148.209
148.641
149.137
149.702
150.336
151.04
151.816
152.661
153.575
154.558
155.607
156.724
157.908
159.16
160.484
161.882
163.36
164.924
166.585
168.354
170.244
172.266
174.433
176.757
179.249
181.922
184.788
187.86
191.152
194.676
198.443
202.466
206.753
211.31
216.14
221.242
226.613
232.246
238.132
244.261
250.626
257.219
264.039
271.086
278.367
285.896
293.691
301.772
310.166
318.898
327.993
337.471
151.785
152.483
153.206
153.949
154.708
155.476
156.247
157.014
157.77
158.508
159.222
159.906
160.553
161.158
161.716
162.223
162.675
163.069
163.403
163.673
163.88
164.021
164.095
164.105
164.059
163.95
163.781
163.56
163.293
162.984
162.636
162.253
161.838
161.394
160.928
160.444
159.948
159.444
158.936
158.429
157.926
157.431
156.946
156.472
156.012
155.569
155.145
154.742
154.364
154.013
153.689
153.396
153.134
152.904
152.707
152.549
152.438
152.392
152.398
152.429
152.504
152.644
152.86
153.164
153.567
154.084
154.733
155.531
156.497
157.649
159.006
160.586
162.407
164.482
166.818
169.414
172.262
175.348
178.657
182.17
185.872
189.749
193.79
197.992
202.354
206.882
211.582
216.467
221.554
226.867
232.43
238.267
244.393
250.817
257.544
264.572
271.901
279.53
287.456
295.682
304.213
313.057
322.223
331.722
341.561
351.74
362.252
373.079
384.187
395.53
407.05
418.675
430.326
441.919
453.37
464.598
475.527
486.092
496.237
505.919
515.103
523.768
531.903
173.792
176.273
178.799
181.354
183.922
186.482
189.013
191.492
193.899
196.212
198.412
200.482
202.406
204.172
205.769
207.189
208.425
209.474
210.332
211
211.477
211.758
211.834
211.764
211.511
211.067
210.455
209.701
208.825
207.84
206.748
205.553
204.26
202.881
201.434
199.935
198.4
196.839
195.263
193.684
192.113
190.561
189.037
187.544
186.091
184.684
183.333
182.05
180.844
179.722
178.692
177.762
176.938
176.22
175.615
175.15
174.878
174.844
174.912
175.102
175.49
176.119
177.024
178.243
179.821
181.806
184.25
187.203
190.707
194.796
199.5
204.849
210.861
217.54
224.86
232.77
241.2
250.062
259.26
268.699
278.29
287.958
297.655
307.356
317.058
326.773
336.526
346.353
356.3
366.42
376.767
387.375
398.245
409.356
420.66
432.092
443.57
455.005
466.3
477.36
488.099
498.443
508.329
517.711
526.556
534.843
542.564
549.719
556.318
562.377
567.913
572.949
577.515
581.637
585.341
588.659
591.628
594.284
596.668
598.822
600.79
602.621
604.362
242.106
248.547
254.892
261.111
267.176
273.057
278.721
284.135
289.267
294.084
298.56
302.671
306.399
309.73
312.656
315.174
317.288
319
320.315
321.25
321.829
321.972
321.837
321.384
320.579
319.396
317.879
316.135
314.204
312.092
309.787
307.277
304.561
301.659
298.608
295.449
292.213
288.917
285.571
282.194
278.813
275.451
272.125
268.848
265.631
262.494
259.464
256.568
253.833
251.282
248.94
246.838
244.994
243.396
242.069
241.154
240.845
240.939
241.3
242.104
243.456
245.446
248.158
251.68
256.103
261.522
268.021
275.648
284.401
294.24
305.111
316.956
329.701
343.237
357.416
372.062
386.991
402.011
416.929
431.558
445.719
459.255
472.061
484.08
495.289
505.69
515.31
524.19
532.39
539.978
547.014
553.538
559.584
565.181
570.346
575.089
579.424
583.37
586.944
590.163
593.054
595.65
597.988
600.108
602.053
603.871
605.608
607.31
609.005
610.714
612.439
614.204
616
617.779
619.554
621.342
623.129
624.914
626.703
628.504
630.318
632.144
633.973
635.793
637.587
384.155
394.408
404.066
413.119
421.573
429.432
436.709
443.417
449.556
455.118
460.107
464.537
468.403
471.696
474.427
476.619
478.305
479.497
480.199
480.37
480.242
479.773
478.892
477.61
475.962
473.911
471.509
468.906
466.131
463.223
460.139
456.802
453.205
449.386
445.385
441.259
437.061
432.8
428.463
424.057
419.616
415.179
410.771
406.405
402.1
397.877
393.775
389.842
386.125
382.658
379.485
376.699
374.328
372.286
370.625
369.928
370.056
370.603
371.779
373.748
376.634
380.55
385.612
391.927
399.567
408.6
419.063
430.866
443.778
457.479
471.646
485.979
500.156
513.811
526.6
538.294
548.813
558.175
566.452
573.736
580.054
585.44
589.974
593.743
596.843
599.388
601.499
603.269
604.774
606.101
607.353
608.586
609.834
611.124
612.47
613.879
615.37
616.925
618.507
620.133
621.817
623.536
625.281
627.055
628.855
630.673
632.491
634.287
636.055
637.806
639.547
641.261
642.937
644.628
646.333
648.035
649.771
651.56
653.395
655.266
657.162
659.072
660.992
662.93
664.887
563.327
572.088
579.727
586.246
591.712
596.206
599.802
602.586
604.657
606.105
606.95
607.24
607.184
606.794
605.935
604.728
603.279
601.627
599.761
597.693
595.538
593.32
590.949
588.391
585.704
583.018
580.378
577.717
575.078
572.364
569.532
566.611
563.672
560.731
557.777
554.842
551.953
549.095
546.239
543.376
540.518
537.686
534.894
532.154
529.476
526.871
524.361
521.982
519.752
517.684
515.853
514.345
513.143
512.235
511.887
512.046
512.591
513.632
515.319
517.671
520.664
524.361
528.866
534.08
539.816
546.125
553.011
560.106
567.097
573.817
580.203
586.213
591.747
596.728
601.117
604.905
608.119
610.827
613.173
615.246
617.084
618.846
620.506
622.061
623.543
624.987
626.415
627.833
629.212
630.572
631.955
633.342
634.712
636.076
637.457
638.873
640.315
641.787
643.326
644.923
646.551
648.236
649.991
651.799
653.643
655.504
657.379
659.28
661.2
663.136
665.089
667.06
669.073
671.144
673.279
675.49
677.761
680.074
682.425
684.81
687.228
689.682
692.176
694.717
697.309
676.237
677.075
677.17
676.797
675.718
674.082
672.096
669.853
667.396
664.831
662.197
659.364
656.587
653.864
650.989
648.073
645.269
642.366
639.463
636.68
633.885
630.974
628.141
625.342
622.546
619.736
616.974
614.264
611.596
609.024
606.508
603.984
601.454
598.953
596.499
594.1
591.768
589.524
587.377
585.326
583.374
581.522
579.773
578.135
576.617
575.231
573.985
572.888
571.941
571.144
570.497
570.015
569.812
569.825
570.014
570.494
571.201
572.037
573.15
574.593
576.321
578.32
580.652
583.317
586.174
589.206
592.573
596.123
599.383
602.636
605.981
609.374
612.738
616.052
619.243
622.256
625.134
627.902
630.599
633.243
635.76
638.055
640.18
642.157
644.023
645.812
647.521
649.132
650.675
652.178
653.655
655.122
656.605
658.111
659.644
661.221
662.855
664.557
666.348
668.236
670.221
672.311
674.484
676.717
678.996
681.316
683.677
686.083
688.534
691.032
693.581
696.186
698.856
701.598
704.411
707.293
710.233
713.223
716.257
719.339
722.471
725.657
728.902
732.21
735.585
739.03
711.673
709.247
706.771
704.225
701.572
698.945
696.367
693.703
690.994
688.35
685.658
682.817
679.998
677.213
674.313
671.341
668.483
665.571
662.646
659.847
657.066
654.17
651.356
648.618
645.922
643.222
640.559
637.924
635.339
632.852
630.442
628.036
625.627
623.247
620.916
618.633
616.404
614.241
612.153
610.146
608.228
606.405
604.679
603.052
601.529
600.12
598.834
597.676
596.649
595.755
594.996
594.379
593.97
593.873
593.933
594.18
594.639
595.297
596.194
597.359
598.789
600.488
602.485
604.758
607.23
609.89
612.853
616.008
618.959
621.998
625.203
628.506
631.797
635.025
638.152
641.171
644.15
647.156
650.179
653.153
656.015
658.775
661.433
663.987
666.44
668.79
671.049
673.242
675.367
677.424
679.44
681.443
683.455
685.491
687.574
689.725
691.966
694.313
696.773
699.346
702.023
704.793
707.636
710.544
713.513
716.541
719.628
722.776
725.986
729.259
732.6
736.01
739.489
743.034
746.641
750.305
754.025
757.799
761.63
765.521
769.473
773.488
777.57
781.717
785.932
790.213
794.56
798.972
732.606
729.691
726.761
723.851
720.91
717.941
715.044
712.131
709.217
706.413
703.572
700.591
697.776
695.05
692.167
689.228
686.549
683.858
681.056
678.421
675.89
673.256
670.599
668.074
665.622
663.19
660.777
658.387
656.026
653.721
651.48
649.274
647.083
644.921
642.799
640.711
638.649
636.623
634.65
632.747
630.928
629.201
627.567
626.024
624.575
623.23
621.998
620.88
619.877
618.992
618.232
617.596
617.116
616.949
616.983
617.136
617.456
617.972
618.708
619.676
620.884
622.361
624.123
626.108
628.287
630.715
633.359
635.923
638.664
641.659
644.884
648.187
651.515
654.86
658.275
661.81
665.455
669.174
672.92
676.649
680.336
683.968
687.523
690.981
694.328
697.558
700.675
703.68
706.578
709.389
712.144
714.872
717.598
720.352
723.161
726.053
729.045
732.146
735.357
738.675
742.09
745.592
749.175
752.832
756.56
760.354
764.213
768.136
772.121
776.169
780.28
784.453
788.687
792.978
797.327
801.732
806.194
810.714
815.292
819.927
824.619
829.367
834.171
839.029
843.941
848.906
853.921
858.987
747.415
744.428
741.489
738.595
735.765
733.043
730.347
727.617
724.956
722.356
719.672
716.972
714.508
712.047
709.377
706.804
704.512
702.155
699.653
697.334
695.145
692.842
690.478
688.28
686.142
684.022
681.927
679.854
677.793
675.754
673.756
671.796
669.858
667.949
666.075
664.221
662.373
660.533
658.72
656.959
655.273
653.672
652.156
650.72
649.365
648.1
646.934
645.867
644.897
644.029
643.27
642.62
642.099
641.832
641.826
641.909
642.147
642.575
643.211
644.072
645.181
646.568
648.22
650.082
652.215
654.574
656.937
659.515
662.411
665.648
669.121
672.738
676.47
680.347
684.428
688.729
693.206
697.799
702.462
707.157
711.85
716.504
721.077
725.535
729.853
734.017
738.023
741.875
745.591
749.198
752.727
756.212
759.686
763.184
766.734
770.362
774.083
777.905
781.831
785.857
789.977
794.185
798.473
802.834
807.261
811.748
816.292
820.891
825.544
830.249
835.006
839.816
844.678
849.591
854.556
859.571
864.635
869.747
874.904
880.104
885.345
890.627
895.946
901.302
906.694
912.121
917.582
923.077
761.719
759.045
756.438
753.902
751.451
749.053
746.648
744.263
741.96
739.669
737.331
735.123
733.051
730.927
728.65
726.64
724.763
722.78
720.686
718.793
717.004
715.092
713.127
711.328
709.594
707.854
706.129
704.432
702.747
701.069
699.411
697.782
696.177
694.596
693.039
691.489
689.927
688.356
686.794
685.269
683.805
682.415
681.099
679.851
678.672
677.569
676.55
675.615
674.761
673.99
673.31
672.726
672.257
672.011
672.005
672.09
672.329
672.753
673.378
674.229
675.337
676.72
678.346
680.237
682.472
684.715
687.168
689.967
693.173
696.766
700.643
704.709
708.96
713.463
718.272
723.373
728.71
734.219
739.841
745.523
751.21
756.844
762.374
767.754
772.956
777.962
782.772
787.396
791.856
796.182
800.41
804.576
808.72
812.876
817.077
821.344
825.695
830.137
834.673
839.302
844.016
848.807
853.666
858.585
863.556
868.573
873.634
878.735
883.877
889.059
894.281
899.543
904.846
910.188
915.568
920.982
926.429
931.905
937.407
942.933
948.48
954.046
959.63
965.23
970.846
976.477
982.122
987.78
993.448
775.293
773.116
771.008
768.958
766.936
764.932
762.99
761.11
759.24
757.411
755.717
754.07
752.365
750.681
749.211
747.762
746.216
744.65
743.287
741.941
740.489
739.02
737.705
736.454
735.15
733.871
732.606
731.366
730.142
728.922
727.721
726.544
725.378
724.213
723.043
721.855
720.644
719.436
718.258
717.128
716.053
715.036
714.076
713.172
712.333
711.566
710.869
710.234
709.663
709.165
708.75
708.446
708.36
708.409
708.586
708.928
709.445
710.155
711.089
712.28
713.732
715.431
717.483
719.752
722.093
724.772
727.882
731.452
735.453
739.759
744.279
749.058
754.187
759.704
765.576
771.73
778.089
784.578
791.124
797.655
804.103
810.41
816.528
822.429
828.098
833.538
838.763
843.799
848.681
853.447
858.14
862.8
867.463
872.16
876.912
881.735
886.637
891.618
896.674
901.798
906.981
912.214
917.488
922.796
928.134
933.499
938.89
944.307
949.748
955.215
960.706
966.221
971.757
977.311
982.881
988.462
994.051
999.645
1005.24
1010.84
1016.43
1022.02
1027.6
1033.18
1038.75
1044.31
1049.86
1055.4
793.495
791.787
790.141
788.544
786.986
785.482
784.05
782.67
781.327
780.068
778.896
777.74
776.576
775.519
774.561
773.594
772.58
771.649
770.817
769.966
769.053
768.177
767.409
766.662
765.883
765.087
764.345
763.625
762.918
762.186
761.479
760.807
760.134
759.419
758.681
757.942
757.173
756.393
755.655
754.957
754.28
753.638
753.047
752.499
752.001
751.568
751.195
750.866
750.577
750.34
750.187
750.165
750.245
750.464
750.831
751.352
752.037
752.908
754.002
755.349
756.944
758.807
761.066
763.382
765.958
768.947
772.405
776.354
780.755
785.462
790.422
795.721
801.449
807.617
814.167
821.009
828.054
835.214
842.403
849.542
856.558
863.39
869.996
876.347
882.436
888.268
893.863
899.254
904.479
909.58
914.6
919.581
924.556
929.555
934.597
939.695
944.852
950.069
955.341
960.658
966.013
971.398
976.804
982.227
987.663
993.11
998.565
1004.03
1009.5
1014.98
1020.47
1025.96
1031.46
1036.95
1042.43
1047.91
1053.37
1058.81
1064.24
1069.64
1075.02
1080.37
1085.7
1091
1096.27
1101.51
1106.72
1111.89
812.566
811.435
810.362
809.349
808.407
807.537
806.723
805.97
805.298
804.681
804.087
803.537
803.081
802.67
802.257
801.863
801.551
801.272
800.974
800.667
800.416
800.21
800.002
799.775
799.551
799.364
799.201
799.03
798.843
798.671
798.529
798.364
798.141
797.88
797.636
797.361
797.029
796.756
796.553
796.333
796.093
795.906
795.763
795.64
795.581
795.581
795.602
795.639
795.71
795.854
796.099
796.448
796.915
797.511
798.25
799.146
800.227
801.531
803.08
804.873
806.976
809.383
811.886
814.757
818.087
821.903
826.224
830.993
836.069
841.446
847.228
853.483
860.186
867.253
874.586
882.088
889.666
897.23
904.698
911.997
919.072
925.883
932.411
938.651
944.619
950.339
955.85
961.191
966.408
971.542
976.633
981.712
986.803
991.923
997.081
1002.28
1007.52
1012.78
1018.08
1023.39
1028.71
1034.04
1039.36
1044.68
1049.99
1055.3
1060.6
1065.89
1071.18
1076.45
1081.7
1086.94
1092.15
1097.34
1102.49
1107.62
1112.7
1117.75
1122.75
1127.71
1132.63
1137.49
1142.31
1147.08
1151.8
1156.47
1161.08
834.955
834.462
834.044
833.703
833.432
833.224
833.085
833.016
832.993
833.006
833.079
833.221
833.397
833.59
833.826
834.112
834.412
834.709
835.023
835.372
835.734
836.088
836.432
836.788
837.165
837.55
837.923
838.287
838.656
839.021
839.347
839.624
839.864
840.109
840.327
840.477
840.631
840.904
841.153
841.284
841.475
841.754
842.01
842.299
842.671
843.064
843.419
843.78
844.216
844.752
845.384
846.11
846.945
847.911
849.033
850.344
851.878
853.653
855.675
858.053
860.577
863.358
866.566
870.24
874.395
879.055
884.15
889.549
895.288
901.472
908.129
915.196
922.577
930.168
937.874
945.603
953.264
960.779
968.081
975.12
981.865
988.306
994.447
1000.31
1005.93
1011.34
1016.58
1021.71
1026.75
1031.75
1036.73
1041.71
1046.7
1051.72
1056.76
1061.81
1066.88
1071.95
1077.03
1082.09
1087.14
1092.18
1097.2
1102.2
1107.17
1112.12
1117.05
1121.95
1126.82
1131.66
1136.46
1141.22
1145.93
1150.59
1155.2
1159.76
1164.25
1168.69
1173.06
1177.37
1181.61
1185.78
1189.89
1193.93
1197.9
1201.8
1205.62
1209.36
860.652
860.764
860.963
861.239
861.584
861.995
862.473
863.011
863.596
864.23
864.922
865.661
866.432
867.233
868.072
868.941
869.82
870.705
871.607
872.524
873.439
874.344
875.242
876.143
877.05
877.951
878.84
879.716
880.576
881.406
882.189
882.927
883.637
884.329
884.985
885.598
886.151
886.833
887.47
887.968
888.462
889.141
889.697
890.276
890.998
891.732
892.368
892.965
893.663
894.476
895.369
896.332
897.384
898.562
899.903
901.44
903.202
905.201
907.478
910.063
912.786
915.875
919.408
923.393
927.843
932.789
938.148
943.8
949.813
956.275
963.168
970.403
977.877
985.493
993.159
1000.79
1008.29
1015.59
1022.65
1029.41
1035.85
1041.98
1047.81
1053.37
1058.69
1063.81
1068.77
1073.62
1078.39
1083.11
1087.81
1092.5
1097.2
1101.89
1106.59
1111.3
1116
1120.68
1125.36
1130.01
1134.63
1139.22
1143.79
1148.31
1152.81
1157.26
1161.67
1166.04
1170.37
1174.64
1178.86
1183.02
1187.12
1191.14
1195.1
1198.98
1202.79
1206.52
1210.17
1213.74
1217.23
1220.63
1223.96
1227.19
1230.35
1233.41
1236.39
1239.27
888.33
889.06
889.872
890.758
891.712
892.731
893.811
894.945
896.129
897.36
898.638
899.953
901.296
902.667
904.066
905.482
906.905
908.333
909.767
911.2
912.622
914.028
915.422
916.807
918.182
919.54
920.877
922.187
923.463
924.694
925.871
927.004
928.102
929.163
930.182
931.158
932.103
933.075
934.003
934.773
935.582
936.509
937.306
938.11
939.136
940.146
940.965
941.725
942.661
943.72
944.828
945.98
947.211
948.573
950.109
951.851
953.823
956.033
958.568
961.288
964.27
967.658
971.471
975.708
980.386
985.543
991.083
996.895
1003.07
1009.66
1016.6
1023.8
1031.16
1038.59
1045.99
1053.3
1060.42
1067.31
1073.91
1080.19
1086.15
1091.8
1097.15
1102.24
1107.1
1111.78
1116.31
1120.73
1125.08
1129.38
1133.65
1137.9
1142.14
1146.38
1150.6
1154.81
1159.01
1163.18
1167.32
1171.43
1175.5
1179.53
1183.51
1187.45
1191.34
1195.17
1198.95
1202.68
1206.34
1209.93
1213.46
1216.9
1220.27
1223.55
1226.75
1229.86
1232.87
1235.8
1238.63
1241.37
1244.01
1246.56
1249.02
1251.38
1253.64
1255.81
1257.88
1259.84
919.012
920.412
921.882
923.415
925.008
926.656
928.352
930.091
931.869
933.683
935.524
937.386
939.267
941.162
943.063
944.964
946.86
948.75
950.625
952.478
954.307
956.112
957.894
959.65
961.376
963.067
964.716
966.315
967.857
969.341
970.773
972.159
973.495
974.78
976.019
977.228
978.413
979.525
980.513
981.565
982.645
983.582
984.523
985.786
986.931
987.845
988.759
989.918
991.157