/*--------------------------------*- C++ -*----------------------------------*\
| =========                 |                                                 |
| \\      /  F ield         | OpenFOAM: The Open Source CFD Toolbox           |
|  \\    /   O peration     | Version:  v1706                                 |
|   \\  /    A nd           | Web:      www.OpenFOAM.com                      |
|    \\/     M anipulation  |                                                 |
\*---------------------------------------------------------------------------*/
FoamFile
{
    version     2.0;
    format      ascii;
    class       volScalarField;
    location    "5e-06";
    object      Tv;
}
// * * * * * * * * * * * * * * * * * * * * * * * * * * * * * * * * * * * * * //

dimensions      [0 0 0 1 0 0 0];


internalField   nonuniform List<scalar> 
29871
(
144.4
144.4
144.4
144.4
144.4
144.4
144.4
144.4
144.4
144.4
144.4
144.4
144.4
144.4
144.4
144.4
144.4
144.4
144.4
144.4
144.4
144.4
144.4
144.4
144.4
144.4
144.4
144.4
144.4
144.4
144.4
144.4
144.4
144.4
144.4
144.4
144.4
144.4
144.4
144.4
144.4
144.4
144.4
144.4
144.4
144.4
144.4
144.4
144.4
144.4
144.4
144.4
144.4
144.4
144.4
144.4
144.4
144.4
144.4
144.4
144.4
144.4
144.4
144.4
144.4
144.4
144.4
144.4
144.4
144.4
144.4
144.4
144.4
144.4
144.4
144.4
144.4
144.4
144.4
144.4
144.4
144.4
144.4
144.4
144.4
144.4
144.4
144.4
144.4
144.4
144.4
144.4
144.4
144.4
144.4
144.4
144.4
144.4
144.4
144.4
144.4
144.4
144.4
144.4
144.4
144.4
144.4
144.4
144.4
144.4
144.4
144.4
144.4
144.4
144.4
144.4
144.4
144.4
144.4
144.4
144.4
144.4
144.4
144.4
144.4
144.4
144.4
144.4
144.4
144.4
144.4
144.4
144.4
144.4
144.4
144.4
144.4
144.4
144.4
144.4
144.4
144.4
144.4
144.4
144.4
144.4
144.4
144.4
144.4
144.4
144.4
144.4
144.4
144.4
144.4
144.4
144.4
144.4
144.4
144.4
144.4
144.4
144.4
144.4
144.4
144.4
144.4
144.4
144.4
144.4
144.4
144.4
144.4
144.4
144.4
144.4
144.4
144.4
144.4
144.4
144.4
144.4
144.4
144.4
144.4
144.4
144.4
144.4
144.4
144.4
144.4
144.4
144.4
144.4
144.4
144.4
144.4
144.4
144.4
144.4
144.4
144.4
144.4
144.4
144.4
144.4
144.4
144.4
144.4
144.4
144.4
144.4
144.4
144.4
144.4
144.4
144.4
144.4
144.4
144.4
144.4
144.4
144.4
144.4
144.4
144.4
144.4
144.4
144.4
144.4
144.4
144.4
144.4
144.4
144.4
144.4
144.4
144.4
144.4
144.4
144.4
144.4
144.4
144.4
144.4
144.4
144.4
144.4
144.4
144.4
144.4
144.4
144.4
144.4
144.4
144.4
144.4
144.4
144.4
144.4
144.4
144.4
144.4
144.4
144.4
144.4
144.4
144.4
144.4
144.4
144.4
144.4
144.4
144.4
144.4
144.4
144.4
144.4
144.4
144.4
144.4
144.4
144.4
144.4
144.4
144.4
144.4
144.4
144.4
144.4
144.4
144.4
144.4
144.4
144.4
144.4
144.4
144.4
144.4
144.4
144.4
144.4
144.4
144.4
144.4
144.4
144.4
144.4
144.4
144.4
144.4
144.4
144.4
144.4
144.4
144.4
144.4
144.4
144.4
144.4
144.4
144.4
144.4
144.4
144.4
144.4
144.4
144.4
144.4
144.4
144.4
144.4
144.4
144.4
144.4
144.4
144.4
144.4
144.4
144.4
144.4
144.4
144.4
144.4
144.4
144.4
144.4
144.4
144.4
144.4
144.4
144.4
144.4
144.4
144.4
144.4
144.4
144.4
144.4
144.4
144.4
144.4
144.4
144.4
144.4
144.4
144.4
144.4
144.4
144.4
144.4
144.4
144.4
144.4
144.4
144.4
144.4
144.4
144.4
144.4
144.4
144.4
144.4
144.4
144.4
144.4
144.4
144.4
144.4
144.4
144.4
144.4
144.4
144.4
144.4
144.4
144.4
144.4
144.4
144.4
144.4
144.4
144.4
144.4
144.4
144.4
144.4
144.4
144.4
144.4
144.4
144.4
144.4
144.4
144.4
144.4
144.4
144.4
144.4
144.4
144.4
144.4
144.4
144.4
144.4
144.4
144.4
144.4
144.4
144.4
144.4
144.4
144.4
144.4
144.4
144.4
144.4
144.4
144.4
144.4
144.4
144.4
144.4
144.4
144.4
144.4
144.4
144.4
144.4
144.4
144.4
144.4
144.4
144.4
144.4
144.4
144.4
144.4
144.4
144.4
144.4
144.4
144.4
144.4
144.4
144.4
144.4
144.4
144.4
144.4
144.4
144.4
144.4
144.4
144.4
144.4
144.4
144.4
144.4
144.4
144.4
144.4
144.4
144.4
144.4
144.4
144.4
144.4
144.4
144.4
144.4
144.4
144.4
144.4
144.4
144.4
144.4
144.4
144.4
144.4
144.4
144.4
144.4
144.4
144.4
144.4
144.4
144.4
144.4
144.4
144.4
144.4
144.4
144.4
144.4
144.4
144.4
144.4
144.4
144.4
144.4
144.4
144.4
144.4
144.4
144.4
144.4
144.4
144.4
144.4
144.4
144.4
144.4
144.4
144.4
144.4
144.4
144.4
144.4
144.4
144.4
144.4
144.4
144.4
144.4
144.4
144.4
144.4
144.4
144.4
144.4
144.4
144.4
144.4
144.4
144.4
144.4
144.4
144.4
144.4
144.4
144.4
144.4
144.4
144.4
144.4
144.4
144.4
144.4
144.4
144.4
144.4
144.4
144.4
144.4
144.4
144.4
144.4
144.4
144.4
144.4
144.4
144.4
144.4
144.4
144.4
144.4
144.4
144.4
144.4
144.4
144.4
144.4
144.4
144.4
144.4
144.4
144.4
144.4
144.4
144.4
144.4
144.4
144.4
144.4
144.4
144.4
144.4
144.4
144.4
144.4
144.4
144.4
144.4
144.4
144.4
144.4
144.4
144.4
144.4
144.4
144.4
144.4
144.4
144.4
144.4
144.4
144.4
144.4
144.4
144.4
144.4
144.4
144.4
144.4
144.4
144.4
144.4
144.4
144.4
144.4
144.4
144.4
144.4
144.4
144.4
144.4
144.4
144.4
144.4
144.4
144.4
144.4
144.4
144.4
144.4
144.4
144.4
144.4
144.4
144.4
144.4
144.4
144.4
144.4
144.4
144.4
144.4
144.4
144.4
144.4
144.4
144.4
144.4
144.4
144.4
144.4
144.4
144.4
144.4
144.4
144.4
144.4
144.4
144.4
144.4
144.4
144.4
144.4
144.4
144.4
144.4
144.4
144.4
144.4
144.4
144.4
144.4
144.4
144.4
144.4
144.4
144.4
144.4
144.4
144.4
144.4
144.4
144.4
144.4
144.4
144.4
144.4
144.4
144.4
144.4
144.4
144.4
144.4
144.4
144.4
144.4
144.4
144.4
144.4
144.4
144.4
144.4
144.4
144.4
144.4
144.4
144.4
144.4
144.4
144.4
144.4
144.4
144.4
144.4
144.4
144.4
144.4
144.4
144.4
144.4
144.4
144.4
144.4
144.4
144.4
144.4
144.4
144.4
144.4
144.4
144.4
144.4
144.4
144.4
144.4
144.4
144.4
144.4
144.4
144.4
144.4
144.4
144.4
144.4
144.4
144.4
144.4
144.4
144.4
144.4
144.4
144.4
144.4
144.4
144.4
144.4
144.4
144.4
144.4
144.4
144.4
144.4
144.4
144.4
144.4
144.4
144.4
144.4
144.4
144.4
144.4
144.4
144.4
144.4
144.4
144.4
144.4
144.4
144.4
144.4
144.4
144.4
144.4
144.4
144.4
144.4
144.4
144.4
144.4
144.4
144.4
144.4
144.4
144.4
144.4
144.4
144.4
144.4
144.4
144.4
144.4
144.4
144.4
144.4
144.4
144.4
144.4
144.4
144.4
144.4
144.4
144.4
144.4
144.4
144.4
144.4
144.4
144.4
144.4
144.4
144.4
144.4
144.4
144.4
144.4
144.4
144.4
144.4
144.4
144.4
144.4
144.4
144.4
144.4
144.4
144.4
144.4
144.4
144.4
144.4
144.4
144.4
144.4
144.4
144.4
144.4
144.4
144.4
144.4
144.4
144.4
144.4
144.4
144.4
144.4
144.4
144.4
144.4
144.4
144.4
144.4
144.4
144.4
144.4
144.4
144.4
144.4
144.4
144.4
144.4
144.4
144.4
144.4
144.4
144.4
144.4
144.4
144.4
144.4
144.4
144.4
144.4
144.4
144.4
144.4
144.4
144.4
144.4
144.4
144.4
144.4
144.4
144.4
144.4
144.4
144.4
144.4
144.4
144.4
144.4
144.4
144.4
144.4
144.4
144.4
144.4
144.4
144.4
144.4
144.4
144.4
144.4
144.4
144.4
144.4
144.4
144.4
144.4
144.4
144.4
144.4
144.4
144.4
144.4
144.4
144.4
144.4
144.4
144.4
144.4
144.4
144.4
144.4
144.4
144.4
144.4
144.4
144.4
144.4
144.4
144.4
144.4
144.4
144.4
144.4
144.4
144.4
144.4
144.4
144.4
144.4
144.4
144.4
144.4
144.4
144.4
144.4
144.4
144.4
144.4
144.4
144.4
144.4
144.4
144.4
144.4
144.4
144.4
144.4
144.4
144.4
144.4
144.4
144.4
144.4
144.4
144.4
144.4
144.4
144.4
144.4
144.4
144.4
144.4
144.4
144.4
144.4
144.4
144.4
144.4
144.4
144.4
144.4
144.4
144.4
144.4
144.4
144.4
144.4
144.4
144.4
144.4
144.4
144.4
144.4
144.4
144.4
144.4
144.4
144.4
144.4
144.4
144.4
144.4
144.4
144.4
144.4
144.4
144.4
144.4
144.4
144.4
144.4
144.4
144.4
144.4
144.4
144.4
144.4
144.4
144.4
144.4
144.4
144.4
144.4
144.4
144.4
144.4
144.4
144.4
144.4
144.4
144.4
144.4
144.4
144.4
144.4
144.4
144.4
144.4
144.4
144.4
144.4
144.4
144.4
144.4
144.4
144.4
144.4
144.4
144.4
144.4
144.4
144.4
144.4
144.4
144.4
144.4
144.4
144.4
144.4
144.4
144.4
144.4
144.4
144.4
144.4
144.4
144.4
144.4
144.4
144.4
144.4
144.4
144.4
144.4
144.4
144.4
144.4
144.4
144.4
144.4
144.4
144.4
144.4
144.4
144.4
144.4
144.4
144.4
144.4
144.4
144.4
144.4
144.4
144.4
144.4
144.4
144.4
144.4
144.4
144.4
144.4
144.4
144.4
144.4
144.4
144.4
144.4
144.4
144.4
144.4
144.4
144.4
144.4
144.4
144.4
144.4
144.4
144.4
144.4
144.4
144.4
144.4
144.4
144.4
144.4
144.4
144.4
144.4
144.4
144.4
144.4
144.4
144.4
144.4
144.4
144.4
144.4
144.4
144.4
144.4
144.4
144.4
144.4
144.4
144.4
144.4
144.4
144.4
144.4
144.4
144.4
144.4
144.4
144.4
144.4
144.4
144.4
144.4
144.4
144.4
144.4
144.4
144.4
144.4
144.4
144.4
144.4
144.4
144.4
144.4
144.4
144.4
144.4
144.4
144.4
144.4
144.4
144.4
144.4
144.4
144.4
144.4
144.4
144.4
144.4
144.4
144.4
144.4
144.4
144.4
144.4
144.4
144.4
144.4
144.4
144.4
144.4
144.4
144.4
144.4
144.4
144.4
144.4
144.4
144.4
144.4
144.4
144.4
144.4
144.4
144.4
144.4
144.4
144.4
144.4
144.4
144.4
144.4
144.4
144.4
144.4
144.4
144.4
144.4
144.4
144.4
144.4
144.4
144.4
144.4
144.4
144.4
144.4
144.4
144.4
144.4
144.4
144.4
144.4
144.4
144.4
144.4
144.4
144.4
144.4
144.4
144.4
144.4
144.4
144.4
144.4
144.4
144.4
144.4
144.4
144.4
144.4
144.4
144.4
144.4
144.4
144.4
144.4
144.4
144.4
144.4
144.4
144.4
144.4
144.4
144.4
144.4
144.4
144.4
144.4
144.4
144.4
144.4
144.4
144.4
144.4
144.4
144.4
144.4
144.4
144.4
144.4
144.4
144.4
144.4
144.4
144.4
144.4
144.4
144.4
144.4
144.4
144.4
144.4
144.4
144.4
144.4
144.4
144.4
144.4
144.4
144.4
144.4
144.4
144.4
144.4
144.4
144.4
144.4
144.4
144.4
144.4
144.4
144.4
144.4
144.4
144.4
144.4
144.4
144.4
144.4
144.4
144.4
144.4
144.4
144.4
144.4
144.4
144.4
144.4
144.4
144.4
144.4
144.4
144.4
144.4
144.4
144.4
144.4
144.4
144.4
144.4
144.4
144.4
144.4
144.4
144.4
144.4
144.4
144.4
144.4
144.4
144.4
144.4
144.4
144.4
144.4
144.401
144.401
144.401
144.401
144.401
144.401
144.401
144.401
144.401
144.401
144.4
144.4
144.4
144.4
144.4
144.4
144.4
144.4
144.4
144.4
144.4
144.4
144.4
144.4
144.4
144.4
144.4
144.4
144.4
144.4
144.4
144.4
144.4
144.4
144.4
144.4
144.4
144.4
144.4
144.4
144.4
144.4
144.4
144.4
144.4
144.4
144.4
144.4
144.4
144.4
144.4
144.4
144.4
144.4
144.4
144.4
144.4
144.4
144.4
144.4
144.4
144.4
144.4
144.4
144.4
144.4
144.4
144.4
144.4
144.4
144.4
144.4
144.4
144.4
144.4
144.4
144.4
144.4
144.4
144.4
144.4
144.4
144.4
144.4
144.4
144.4
144.4
144.4
144.4
144.4
144.4
144.4
144.4
144.4
144.401
144.401
144.401
144.401
144.401
144.401
144.401
144.401
144.401
144.401
144.402
144.402
144.402
144.402
144.402
144.403
144.403
144.403
144.404
144.404
144.405
144.405
144.406
144.406
144.407
144.408
144.409
144.41
144.411
144.4
144.4
144.4
144.4
144.4
144.4
144.4
144.4
144.4
144.4
144.4
144.401
144.401
144.401
144.401
144.401
144.401
144.401
144.401
144.401
144.4
144.4
144.4
144.4
144.4
144.4
144.4
144.4
144.4
144.4
144.4
144.4
144.4
144.4
144.4
144.4
144.4
144.4
144.4
144.4
144.4
144.4
144.4
144.4
144.4
144.4
144.4
144.4
144.4
144.4
144.4
144.4
144.4
144.4
144.4
144.4
144.4
144.4
144.4
144.4
144.4
144.4
144.4
144.4
144.4
144.4
144.4
144.4
144.4
144.4
144.401
144.401
144.401
144.401
144.401
144.401
144.401
144.401
144.402
144.402
144.402
144.402
144.403
144.403
144.403
144.404
144.404
144.404
144.405
144.406
144.406
144.407
144.408
144.409
144.41
144.411
144.412
144.413
144.415
144.416
144.418
144.42
144.423
144.425
144.428
144.431
144.435
144.438
144.443
144.447
144.452
144.458
144.465
144.472
144.479
144.402
144.402
144.402
144.402
144.403
144.403
144.403
144.403
144.403
144.403
144.403
144.403
144.403
144.403
144.403
144.403
144.403
144.403
144.403
144.403
144.403
144.403
144.403
144.403
144.403
144.403
144.403
144.402
144.402
144.402
144.402
144.402
144.402
144.402
144.402
144.402
144.401
144.401
144.401
144.401
144.401
144.401
144.401
144.401
144.401
144.401
144.401
144.401
144.401
144.401
144.401
144.401
144.401
144.401
144.401
144.401
144.401
144.401
144.401
144.401
144.401
144.401
144.401
144.401
144.401
144.402
144.402
144.402
144.403
144.403
144.404
144.404
144.405
144.406
144.407
144.408
144.409
144.41
144.411
144.413
144.415
144.416
144.418
144.42
144.423
144.425
144.428
144.431
144.435
144.439
144.443
144.448
144.454
144.46
144.467
144.474
144.483
144.492
144.502
144.514
144.526
144.54
144.556
144.572
144.591
144.611
144.633
144.658
144.684
144.713
144.745
144.78
144.818
144.86
144.905
144.955
144.407
144.407
144.408
144.409
144.41
144.411
144.412
144.413
144.414
144.415
144.416
144.416
144.417
144.418
144.419
144.419
144.42
144.42
144.421
144.421
144.421
144.421
144.421
144.421
144.421
144.42
144.42
144.419
144.419
144.418
144.418
144.417
144.416
144.416
144.415
144.414
144.414
144.413
144.412
144.412
144.411
144.41
144.41
144.409
144.409
144.408
144.408
144.407
144.407
144.406
144.406
144.406
144.405
144.405
144.405
144.405
144.405
144.404
144.404
144.404
144.404
144.404
144.404
144.405
144.405
144.405
144.405
144.406
144.406
144.407
144.408
144.409
144.411
144.413
144.415
144.417
144.42
144.424
144.428
144.433
144.438
144.444
144.451
144.459
144.467
144.476
144.486
144.496
144.508
144.52
144.534
144.548
144.565
144.582
144.602
144.623
144.647
144.673
144.702
144.734
144.769
144.807
144.849
144.895
144.945
144.999
145.058
145.122
145.191
145.265
145.345
145.431
145.522
145.621
145.725
145.837
145.955
146.081
146.213
146.354
146.502
146.657
146.821
144.443
144.448
144.453
144.458
144.464
144.469
144.475
144.48
144.486
144.491
144.496
144.5
144.505
144.509
144.512
144.516
144.518
144.52
144.522
144.523
144.523
144.523
144.523
144.522
144.52
144.518
144.516
144.513
144.51
144.507
144.503
144.499
144.495
144.491
144.487
144.483
144.479
144.475
144.471
144.467
144.463
144.46
144.456
144.453
144.45
144.447
144.445
144.442
144.44
144.437
144.435
144.434
144.432
144.431
144.429
144.428
144.428
144.427
144.427
144.427
144.427
144.427
144.428
144.429
144.43
144.432
144.434
144.437
144.441
144.446
144.452
144.459
144.468
144.48
144.493
144.508
144.527
144.548
144.573
144.601
144.632
144.666
144.704
144.746
144.79
144.837
144.888
144.941
144.998
145.058
145.122
145.19
145.263
145.341
145.425
145.516
145.613
145.718
145.83
145.95
146.077
146.213
146.357
146.508
146.667
146.835
147.01
147.193
147.385
147.584
147.793
148.01
148.237
148.472
148.717
148.971
149.235
149.506
149.786
150.073
150.367
150.667
150.972
144.657
144.683
144.709
144.736
144.763
144.79
144.816
144.842
144.867
144.89
144.912
144.933
144.951
144.968
144.982
144.995
145.005
145.012
145.017
145.019
145.02
145.018
145.014
145.007
144.999
144.989
144.977
144.963
144.949
144.933
144.916
144.898
144.88
144.861
144.842
144.823
144.804
144.785
144.766
144.748
144.73
144.713
144.697
144.681
144.666
144.652
144.639
144.626
144.615
144.604
144.594
144.585
144.577
144.571
144.565
144.56
144.555
144.553
144.552
144.552
144.553
144.555
144.558
144.564
144.572
144.582
144.595
144.612
144.634
144.66
144.692
144.73
144.776
144.83
144.893
144.967
145.051
145.146
145.251
145.366
145.491
145.625
145.766
145.915
146.069
146.227
146.39
146.556
146.726
146.899
147.076
147.259
147.448
147.644
147.849
148.062
148.286
148.521
148.766
149.021
149.286
149.561
149.844
150.135
150.431
150.733
151.039
151.347
151.657
151.969
152.282
152.596
152.911
153.227
153.544
153.862
154.182
154.504
154.828
155.155
155.485
155.818
156.154
145.619
145.712
145.804
145.895
145.982
146.067
146.148
146.224
146.295
146.361
146.421
146.475
146.522
146.563
146.598
146.625
146.646
146.66
146.666
146.666
146.661
146.65
146.633
146.611
146.583
146.549
146.511
146.468
146.423
146.374
146.323
146.269
146.213
146.155
146.095
146.035
145.974
145.914
145.853
145.794
145.735
145.679
145.624
145.57
145.519
145.47
145.423
145.379
145.338
145.299
145.264
145.231
145.202
145.177
145.155
145.136
145.121
145.111
145.11
145.111
145.116
145.125
145.141
145.164
145.196
145.237
145.29
145.355
145.434
145.528
145.639
145.769
145.919
146.09
146.283
146.497
146.731
146.985
147.255
147.539
147.834
148.139
148.449
148.763
149.078
149.393
149.707
150.017
150.324
150.627
150.927
151.226
151.524
151.822
152.123
152.426
152.732
153.041
153.354
153.671
153.99
154.313
154.639
154.967
155.298
155.632
155.968
156.307
156.647
156.989
157.332
157.677
158.022
158.367
158.712
159.058
159.404
159.75
160.098
160.446
160.795
161.146
161.498
161.852
162.208
148.26
148.447
148.626
148.795
148.955
149.103
149.241
149.367
149.481
149.584
149.675
149.754
149.821
149.877
149.921
149.954
149.976
149.986
149.985
149.976
149.957
149.929
149.892
149.845
149.79
149.725
149.653
149.574
149.489
149.399
149.303
149.202
149.096
148.987
148.874
148.758
148.641
148.522
148.403
148.283
148.165
148.048
147.934
147.823
147.714
147.608
147.506
147.408
147.314
147.226
147.144
147.069
147.001
146.941
146.888
146.844
146.807
146.783
146.781
146.785
146.797
146.821
146.862
146.919
146.997
147.095
147.218
147.367
147.543
147.749
147.985
148.253
148.553
148.885
149.247
149.636
150.048
150.478
150.92
151.368
151.815
152.257
152.688
153.106
153.509
153.896
154.269
154.628
154.976
155.313
155.643
155.969
156.293
156.618
156.945
157.274
157.608
157.945
158.285
158.627
158.972
159.319
159.667
160.017
160.367
160.718
161.07
161.422
161.775
162.128
162.482
162.836
163.19
163.544
163.898
164.251
164.605
164.958
165.312
165.667
166.022
166.378
166.734
167.091
167.448
152.533
152.766
152.986
153.193
153.385
153.563
153.725
153.873
154.004
154.12
154.22
154.303
154.372
154.426
154.465
154.489
154.496
154.493
154.479
154.453
154.415
154.368
154.309
154.24
154.162
154.074
153.977
153.873
153.763
153.646
153.522
153.391
153.253
153.112
152.966
152.817
152.664
152.507
152.349
152.188
152.028
151.869
151.711
151.555
151.401
151.25
151.102
150.958
150.819
150.686
150.561
150.445
150.339
150.245
150.161
150.089
150.029
149.99
149.987
149.993
150.013
150.052
150.116
150.207
150.327
150.477
150.661
150.88
151.135
151.425
151.749
152.109
152.502
152.925
153.375
153.846
154.335
154.835
155.342
155.851
156.357
156.853
157.336
157.801
158.247
158.672
159.077
159.463
159.834
160.191
160.537
160.876
161.212
161.547
161.882
162.221
162.562
162.907
163.255
163.605
163.958
164.311
164.666
165.021
165.377
165.732
166.087
166.442
166.796
167.15
167.504
167.857
168.21
168.562
168.914
169.266
169.618
169.97
170.322
170.674
171.027
171.379
171.731
172.084
172.436
157.292
157.533
157.751
157.949
158.128
158.288
158.432
158.559
158.671
158.769
158.854
158.924
158.98
159.024
159.054
159.069
159.069
159.061
159.041
159.01
158.968
158.915
158.853
158.78
158.697
158.605
158.505
158.397
158.282
158.16
158.031
157.894
157.75
157.601
157.447
157.29
157.129
156.964
156.796
156.624
156.451
156.278
156.107
155.937
155.769
155.604
155.44
155.281
155.126
154.976
154.832
154.696
154.57
154.455
154.352
154.261
154.182
154.113
154.074
154.073
154.081
154.103
154.147
154.219
154.32
154.451
154.617
154.819
155.059
155.337
155.655
156.014
156.412
156.847
157.316
157.813
158.332
158.866
159.411
159.96
160.506
161.044
161.569
162.076
162.561
163.024
163.463
163.879
164.275
164.654
165.016
165.367
165.709
166.046
166.381
166.716
167.054
167.394
167.737
168.084
168.432
168.783
169.134
169.487
169.839
170.192
170.543
170.894
171.244
171.593
171.941
172.289
172.635
172.982
173.328
173.673
174.019
174.364
174.709
175.054
175.398
175.742
176.086
176.429
176.772
177.115
162.082
162.291
162.48
162.65
162.802
162.937
163.057
163.162
163.252
163.328
163.391
163.441
163.477
163.503
163.512
163.51
163.499
163.476
163.443
163.4
163.347
163.284
163.213
163.132
163.041
162.942
162.837
162.726
162.607
162.482
162.35
162.21
162.063
161.912
161.758
161.601
161.44
161.275
161.106
160.934
160.761
160.589
160.418
160.25
160.083
159.918
159.756
159.597
159.443
159.294
159.151
159.015
158.889
158.775
158.674
158.583
158.504
158.437
158.406
158.407
158.417
158.443
158.493
158.571
158.681
158.822
158.997
159.208
159.458
159.748
160.08
160.456
160.873
161.328
161.816
162.333
162.873
163.428
163.994
164.561
165.123
165.674
166.208
166.721
167.21
167.675
168.114
168.53
168.924
169.299
169.659
170.006
170.343
170.676
171.006
171.337
171.669
172.003
172.341
172.681
173.023
173.367
173.711
174.056
174.4
174.744
175.087
175.428
175.769
176.108
176.447
176.784
177.121
177.458
177.793
178.129
178.463
178.797
179.131
179.464
179.797
180.129
180.46
180.79
181.12
181.45
181.778
182.106
166.588
166.765
166.925
167.068
167.194
167.306
167.404
167.487
167.557
167.615
167.661
167.694
167.713
167.719
167.717
167.703
167.679
167.645
167.602
167.549
167.488
167.419
167.342
167.256
167.161
167.06
166.953
166.841
166.723
166.599
166.469
166.331
166.188
166.042
165.893
165.741
165.587
165.429
165.267
165.102
164.937
164.773
164.611
164.451
164.294
164.139
163.986
163.838
163.693
163.554
163.421
163.295
163.179
163.074
162.982
162.901
162.83
162.775
162.759
162.763
162.777
162.81
162.868
162.955
163.073
163.222
163.403
163.621
163.875
164.171
164.51
164.892
165.315
165.776
166.269
166.791
167.336
167.896
168.465
169.033
169.595
170.143
170.672
171.178
171.66
172.116
172.546
172.952
173.337
173.703
174.053
174.391
174.721
175.045
175.368
175.69
176.014
176.34
176.668
176.999
177.331
177.664
177.997
178.33
178.662
178.993
179.324
179.653
179.98
180.307
180.632
180.957
181.28
181.603
181.925
182.247
182.567
182.887
183.206
183.524
183.841
184.158
184.474
184.788
185.102
185.415
185.727
186.039
170.785
170.932
171.065
171.182
171.285
171.375
171.452
171.516
171.567
171.608
171.637
171.652
171.653
171.649
171.635
171.61
171.575
171.533
171.48
171.42
171.352
171.278
171.197
171.108
171.012
170.91
170.803
170.691
170.575
170.454
170.328
170.196
170.059
169.92
169.779
169.637
169.492
169.343
169.192
169.039
168.886
168.735
168.586
168.44
168.296
168.156
168.019
167.886
167.757
167.634
167.517
167.408
167.308
167.219
167.142
167.077
167.021
166.989
166.988
166.996
167.02
167.064
167.135
167.233
167.361
167.519
167.709
167.933
168.194
168.494
168.836
169.219
169.642
170.101
170.591
171.109
171.648
172.201
172.76
173.316
173.864
174.396
174.909
175.398
175.862
176.3
176.714
177.103
177.473
177.824
178.161
178.487
178.806
179.12
179.432
179.743
180.056
180.371
180.687
181.005
181.323
181.642
181.961
182.28
182.597
182.913
183.228
183.542
183.854
184.165
184.475
184.784
185.091
185.398
185.704
186.008
186.312
186.615
186.917
187.218
187.517
187.816
188.114
188.411
188.706
189.001
189.294
189.586
174.673
174.794
174.902
174.996
175.078
175.146
175.203
175.248
175.281
175.304
175.314
175.313
175.304
175.288
175.262
175.225
175.181
175.13
175.07
175.002
174.929
174.851
174.766
174.675
174.578
174.475
174.368
174.258
174.144
174.027
173.906
173.781
173.652
173.522
173.39
173.258
173.124
172.987
172.849
172.71
172.572
172.436
172.303
172.174
172.047
171.925
171.806
171.691
171.583
171.479
171.383
171.294
171.215
171.147
171.09
171.043
171.012
171.007
171.014
171.034
171.074
171.136
171.222
171.335
171.475
171.644
171.845
172.078
172.347
172.653
172.997
173.379
173.797
174.249
174.731
175.237
175.761
176.296
176.834
177.367
177.89
178.397
178.883
179.346
179.784
180.198
180.588
180.956
181.306
181.639
181.96
182.272
182.576
182.877
183.177
183.476
183.775
184.076
184.378
184.68
184.983
185.286
185.589
185.89
186.191
186.49
186.788
187.084
187.379
187.673
187.965
188.256
188.545
188.834
189.122
189.408
189.693
189.977
190.26
190.541
190.822
191.101
191.379
191.655
191.93
192.204
192.477
192.747
193.017
178.363
178.447
178.518
178.577
178.625
178.662
178.687
178.702
178.705
178.701
178.687
178.665
178.635
178.596
178.549
178.495
178.436
178.368
178.294
178.216
178.133
178.044
177.951
177.853
177.751
177.645
177.537
177.426
177.313
177.197
177.08
176.96
176.839
176.718
176.597
176.475
176.352
176.228
176.105
175.983
175.865
175.749
175.638
175.531
175.427
175.329
175.236
175.149
175.068
174.995
174.929
174.873
174.828
174.793
174.773
174.772
174.78
174.803
174.843
174.904
174.986
175.09
175.218
175.373
175.557
175.77
176.015
176.292
176.602
176.948
177.327
177.738
178.179
178.646
179.133
179.635
180.143
180.651
181.153
181.643
182.115
182.568
182.998
183.405
183.79
184.153
184.497
184.824
185.137
185.44
185.735
186.024
186.31
186.595
186.879
187.164
187.449
187.734
188.02
188.306
188.591
188.876
189.159
189.441
189.722
190.001
190.278
190.554
190.829
191.102
191.374
191.644
191.913
192.181
192.447
192.712
192.976
193.238
193.499
193.758
194.016
194.272
194.526
194.779
195.03
195.28
195.528
195.774
181.645
181.705
181.754
181.791
181.818
181.834
181.837
181.835
181.823
181.803
181.774
181.738
181.695
181.643
181.585
181.523
181.454
181.379
181.299
181.215
181.128
181.036
180.941
180.842
180.741
180.637
180.531
180.424
180.316
180.207
180.097
179.987
179.877
179.767
179.658
179.549
179.439
179.331
179.225
179.121
179.021
178.925
178.833
178.745
178.663
178.586
178.515
178.451
178.394
178.345
178.304
178.272
178.252
178.247
178.25
178.266
178.297
178.343
178.406
178.489
178.591
178.714
178.86
179.031
179.23
179.457
179.712
179.996
180.31
180.655
181.028
181.43
181.856
182.302
182.765
183.237
183.712
184.185
184.65
185.101
185.535
185.95
186.344
186.717
187.07
187.404
187.722
188.025
188.317
188.6
188.877
189.149
189.419
189.688
189.956
190.223
190.491
190.759
191.027
191.294
191.561
191.826
192.09
192.352
192.613
192.872
193.13
193.386
193.64
193.893
194.144
194.393
194.641
194.888
195.132
195.376
195.617
195.857
196.095
196.331
196.565
196.798
197.029
197.257
197.484
197.709
197.931
198.152
184.684
184.71
184.725
184.728
184.724
184.712
184.691
184.662
184.625
184.581
184.531
184.474
184.411
184.343
184.27
184.193
184.111
184.025
183.937
183.846
183.751
183.655
183.557
183.457
183.356
183.253
183.151
183.049
182.947
182.847
182.746
182.647
182.55
182.453
182.357
182.263
182.171
182.082
181.997
181.915
181.839
181.767
181.7
181.638
181.583
181.536
181.495
181.462
181.437
181.421
181.417
181.421
181.435
181.463
181.503
181.558
181.627
181.713
181.817
181.94
182.081
182.244
182.432
182.645
182.884
183.147
183.437
183.752
184.093
184.458
184.846
185.253
185.676
186.109
186.548
186.987
187.421
187.845
188.255
188.649
189.025
189.382
189.72
190.041
190.345
190.636
190.915
191.185
191.447
191.705
191.959
192.211
192.462
192.712
192.962
193.211
193.46
193.709
193.956
194.202
194.447
194.69
194.932
195.172
195.41
195.646
195.88
196.113
196.344
196.573
196.8
197.025
197.248
197.47
197.689
197.907
198.122
198.336
198.547
198.756
198.963
199.167
199.37
199.57
199.767
199.962
200.155
187.392
187.386
187.371
187.347
187.315
187.276
187.229
187.177
187.118
187.054
186.985
186.911
186.833
186.752
186.667
186.578
186.488
186.396
186.302
186.207
186.11
186.014
185.917
185.819
185.722
185.626
185.531
185.438
185.347
185.257
185.17
185.084
185.001
184.92
184.841
184.766
184.695
184.627
184.565
184.507
184.455
184.409
184.368
184.335
184.309
184.291
184.282
184.281
184.288
184.305
184.333
184.372
184.423
184.486
184.563
184.654
184.761
184.885
185.027
185.186
185.366
185.568
185.794
186.041
186.31
186.601
186.914
187.248
187.602
187.973
188.358
188.754
189.155
189.559
189.96
190.354
190.736
191.106
191.459
191.796
192.116
192.42
192.708
192.984
193.248
193.502
193.749
193.99
194.228
194.462
194.695
194.927
195.157
195.387
195.617
195.845
196.073
196.299
196.524
196.747
196.968
197.188
197.405
197.62
197.834
198.045
198.254
198.461
198.667
198.869
199.07
199.269
199.465
199.659
199.85
200.039
200.226
200.41
200.592
200.771
200.947
201.121
201.292
201.46
201.625
201.787
201.947
202.103
189.818
189.789
189.753
189.709
189.659
189.602
189.54
189.472
189.4
189.323
189.243
189.159
189.073
188.984
188.893
188.8
188.707
188.612
188.518
188.423
188.328
188.235
188.142
188.049
187.959
187.87
187.784
187.7
187.62
187.541
187.466
187.393
187.324
187.257
187.194
187.136
187.081
187.032
186.988
186.949
186.916
186.888
186.867
186.855
186.852
186.855
186.865
186.885
186.914
186.954
187.003
187.064
187.136
187.22
187.317
187.429
187.555
187.697
187.855
188.03
188.224
188.438
188.672
188.925
189.196
189.485
189.792
190.117
190.455
190.806
191.167
191.533
191.902
192.27
192.632
192.985
193.327
193.656
193.97
194.27
194.554
194.824
195.082
195.328
195.565
195.795
196.018
196.237
196.453
196.667
196.879
197.089
197.299
197.508
197.716
197.922
198.127
198.331
198.533
198.733
198.93
199.126
199.32
199.511
199.7
199.886
200.07
200.252
200.431
200.608
200.782
200.954
201.123
201.289
201.453
201.613
201.771
201.926
202.078
202.227
202.373
202.516
202.656
202.793
202.926
203.056
203.183
203.306
191.995
191.945
191.889
191.827
191.759
191.686
191.609
191.529
191.444
191.357
191.267
191.176
191.083
190.988
190.893
190.798
190.703
190.609
190.515
190.422
190.331
190.242
190.155
190.069
189.986
189.907
189.83
189.756
189.686
189.62
189.557
189.497
189.441
189.389
189.342
189.299
189.26
189.228
189.201
189.18
189.164
189.155
189.154
189.159
189.173
189.196
189.226
189.266
189.314
189.373
189.443
189.522
189.613
189.715
189.83
189.959
190.101
190.258
190.43
190.617
190.822
191.043
191.282
191.536
191.805
192.089
192.387
192.698
193.019
193.348
193.682
194.018
194.353
194.684
195.008
195.322
195.625
195.915
196.191
196.454
196.703
196.941
197.168
197.386
197.596
197.8
198
198.195
198.389
198.58
198.769
198.958
199.145
199.331
199.515
199.698
199.879
200.059
200.236
200.411
200.584
200.754
200.922
201.087
201.25
201.41
201.567
201.722
201.873
202.022
202.168
202.311
202.451
202.588
202.721
202.852
202.979
203.103
203.224
203.341
203.455
203.565
203.672
203.776
203.875
203.971
204.064
204.152
193.87
193.795
193.717
193.634
193.547
193.458
193.366
193.272
193.176
193.079
192.982
192.884
192.787
192.69
192.594
192.5
192.407
192.316
192.228
192.142
192.058
191.978
191.9
191.826
191.756
191.689
191.626
191.567
191.512
191.46
191.413
191.371
191.333
191.299
191.271
191.247
191.23
191.219
191.214
191.214
191.221
191.235
191.257
191.288
191.328
191.376
191.432
191.498
191.574
191.66
191.755
191.862
191.979
192.109
192.251
192.407
192.575
192.757
192.953
193.164
193.389
193.628
193.88
194.144
194.418
194.704
194.998
195.298
195.603
195.908
196.213
196.514
196.809
197.096
197.372
197.636
197.889
198.129
198.356
198.572
198.778
198.975
199.165
199.348
199.526
199.7
199.871
200.04
200.207
200.373
200.537
200.7
200.862
201.021
201.179
201.335
201.489
201.64
201.789
201.935
202.078
202.219
202.357
202.492
202.624
202.752
202.878
203.001
203.12
203.236
203.349
203.458
203.564
203.666
203.765
203.86
203.952
204.039
204.124
204.204
204.28
204.352
204.42
204.484
204.544
204.601
204.653
195.581
195.492
195.398
195.303
195.205
195.105
195.004
194.903
194.801
194.7
194.599
194.499
194.401
194.305
194.21
194.118
194.029
193.943
193.86
193.78
193.703
193.63
193.561
193.496
193.434
193.377
193.324
193.276