/*--------------------------------*- C++ -*----------------------------------*\
| =========                 |                                                 |
| \\      /  F ield         | OpenFOAM: The Open Source CFD Toolbox           |
|  \\    /   O peration     | Version:  v1706                                 |
|   \\  /    A nd           | Web:      www.OpenFOAM.com                      |
|    \\/     M anipulation  |                                                 |
\*---------------------------------------------------------------------------*/
FoamFile
{
    version     2.0;
    format      ascii;
    class       volVectorField;
    location    "5e-06";
    object      U;
}
// * * * * * * * * * * * * * * * * * * * * * * * * * * * * * * * * * * * * * //

dimensions      [0 1 -1 0 0 0 0];


internalField   nonuniform List<vector> 
29871
(
(2764.5 -3.20299e-10 6.80017e-15)
(2764.5 -3.60064e-10 3.30026e-15)
(2764.5 -3.91947e-10 3.28295e-15)
(2764.5 -4.20332e-10 2.81833e-15)
(2764.5 -4.45312e-10 4.95545e-16)
(2764.5 -4.67554e-10 7.20034e-18)
(2764.5 -4.87014e-10 1.47744e-15)
(2764.5 -5.0612e-10 1.32411e-15)
(2764.5 -5.22814e-10 2.06395e-15)
(2764.5 -5.4093e-10 2.49922e-15)
(2764.5 -5.56328e-10 1.97873e-15)
(2764.5 -5.66684e-10 4.86578e-15)
(2764.5 -5.77156e-10 3.11737e-15)
(2764.5 -5.8363e-10 4.5429e-15)
(2764.5 -5.86908e-10 2.95576e-15)
(2764.5 -5.90445e-10 1.33462e-15)
(2764.5 -5.92092e-10 1.6784e-15)
(2764.5 -5.9463e-10 2.26432e-15)
(2764.5 -5.96434e-10 3.76164e-15)
(2764.5 -5.96205e-10 3.17792e-15)
(2764.5 -5.96199e-10 1.49676e-15)
(2764.5 -5.96153e-10 1.95262e-15)
(2764.5 -5.95748e-10 5.16627e-16)
(2764.5 -5.95311e-10 9.2354e-16)
(2764.5 -5.96032e-10 4.0432e-15)
(2764.5 -5.93607e-10 3.53839e-15)
(2764.5 -5.87557e-10 4.28161e-15)
(2764.5 -5.82053e-10 2.63624e-15)
(2764.5 -5.76406e-10 5.10715e-16)
(2764.5 -5.72043e-10 2.85712e-15)
(2764.5 -5.66845e-10 2.91247e-15)
(2764.5 -5.58656e-10 1.1374e-15)
(2764.5 -5.52137e-10 2.03197e-15)
(2764.5 -5.46248e-10 5.34746e-15)
(2764.5 -5.38786e-10 3.16734e-15)
(2764.5 -5.28087e-10 -4.22796e-16)
(2764.5 -5.16911e-10 -9.81496e-16)
(2764.5 -5.05563e-10 1.62514e-15)
(2764.5 -4.92641e-10 2.23167e-15)
(2764.5 -4.80019e-10 2.49578e-15)
(2764.5 -4.67028e-10 3.99916e-15)
(2764.5 -4.51336e-10 4.57761e-15)
(2764.5 -4.34393e-10 5.79661e-15)
(2764.5 -4.1601e-10 2.36519e-15)
(2764.5 -3.97008e-10 1.21142e-15)
(2764.5 -3.82722e-10 3.24999e-15)
(2764.5 -3.66566e-10 1.64398e-15)
(2764.5 -3.50868e-10 -6.93723e-16)
(2764.5 -3.32545e-10 -9.49008e-16)
(2764.5 -3.16445e-10 3.66147e-15)
(2764.5 -3.02825e-10 4.48039e-15)
(2764.5 -2.96627e-10 -2.00919e-16)
(2764.5 -2.99778e-10 7.26043e-16)
(2764.5 -3.0445e-10 2.9938e-15)
(2764.5 -3.12291e-10 2.71528e-15)
(2764.5 -3.25507e-10 3.05115e-15)
(2764.5 -3.4004e-10 3.68599e-15)
(2764.5 -3.58534e-10 5.00619e-15)
(2764.5 -3.81281e-10 3.47451e-15)
(2764.5 -4.04491e-10 3.13491e-15)
(2764.5 -4.2725e-10 7.17236e-16)
(2764.5 -4.49703e-10 -9.91086e-16)
(2764.5 -4.70981e-10 1.63328e-15)
(2764.5 -4.94122e-10 -2.85433e-15)
(2764.5 -5.15604e-10 1.52914e-15)
(2764.5 -5.40537e-10 4.32591e-15)
(2764.5 -5.61167e-10 1.49848e-15)
(2764.5 -5.82107e-10 1.08751e-15)
(2764.5 -5.97223e-10 -5.46768e-17)
(2764.5 -6.11428e-10 6.29861e-16)
(2764.5 -6.23383e-10 1.59868e-15)
(2764.5 -6.3267e-10 2.64937e-15)
(2764.5 -6.35041e-10 4.75951e-16)
(2764.5 -6.26134e-10 1.52878e-15)
(2764.5 -6.16819e-10 1.13438e-15)
(2764.5 -6.06761e-10 3.9654e-15)
(2764.5 -5.89754e-10 7.01236e-16)
(2764.5 -5.63435e-10 1.33031e-15)
(2764.5 -5.34298e-10 1.10031e-15)
(2764.5 -4.9697e-10 3.88894e-15)
(2764.5 -4.38037e-10 5.2034e-15)
(2764.5 -3.73072e-10 3.82446e-15)
(2764.5 -3.02521e-10 4.62214e-15)
(2764.5 -2.20262e-10 2.86633e-15)
(2764.5 -1.24749e-10 5.56088e-15)
(2764.5 -1.28592e-11 5.748e-15)
(2764.5 1.08946e-10 4.93912e-15)
(2764.5 2.3218e-10 6.34087e-15)
(2764.5 3.28176e-10 7.2767e-15)
(2764.5 3.55784e-10 6.39435e-15)
(2764.5 3.8284e-10 6.89062e-15)
(2764.5 4.04515e-10 3.85952e-15)
(2764.5 4.27725e-10 5.52114e-15)
(2764.5 4.51617e-10 6.80396e-15)
(2764.5 4.69667e-10 5.15005e-15)
(2764.5 4.92731e-10 4.80267e-15)
(2764.5 5.20685e-10 4.89685e-15)
(2764.5 5.49574e-10 5.0931e-15)
(2764.5 5.8343e-10 5.5117e-15)
(2764.5 6.15983e-10 4.89175e-15)
(2764.5 6.52237e-10 5.88512e-15)
(2764.5 6.87464e-10 5.96578e-15)
(2764.5 7.19182e-10 3.56551e-15)
(2764.5 7.5267e-10 4.68012e-15)
(2764.5 7.94428e-10 2.7422e-15)
(2764.5 1.08098e-10 1.27808e-14)
(2764.5 3.68664e-10 1.35944e-14)
(2764.5 5.62082e-10 1.6314e-14)
(2764.5 6.58028e-10 1.73423e-14)
(2764.5 7.25462e-10 1.5221e-14)
(2764.5 7.8548e-10 1.76608e-14)
(2764.5 8.41153e-10 1.69989e-14)
(2764.5 8.96996e-10 1.63812e-14)
(2764.5 9.44048e-10 1.69447e-14)
(2764.5 1.00364e-09 1.6629e-14)
(2764.5 1.05341e-09 1.65585e-14)
(2764.5 1.0957e-09 1.47576e-14)
(2764.5 1.1326e-09 1.74586e-14)
(2764.5 1.17047e-09 1.34155e-14)
(2764.5 1.19873e-09 1.08959e-14)
(2764.5 1.22075e-09 1.29386e-14)
(2764.5 1.24325e-09 1.62714e-14)
(2764.5 1.26423e-09 1.63683e-14)
(2764.5 1.27331e-09 1.47435e-14)
(2764.5 1.27648e-09 1.21434e-14)
(2764.5 1.27863e-09 1.30135e-14)
(2764.5 1.2773e-09 1.40654e-14)
(2764.5 1.27238e-09 1.6206e-14)
(2764.5 1.26151e-09 1.70322e-14)
(2764.5 1.24296e-09 1.40287e-14)
(2764.5 1.22412e-09 1.48058e-14)
(2764.5 1.19882e-09 1.58806e-14)
(2764.5 1.16628e-09 1.43494e-14)
(2764.5 1.1388e-09 1.55195e-14)
(2764.5 1.1064e-09 1.40166e-14)
(2764.5 1.06712e-09 1.70271e-14)
(2764.5 1.03431e-09 1.14824e-14)
(2764.5 9.89924e-10 1.30834e-14)
(2764.5 9.50976e-10 1.84668e-14)
(2764.5 9.14333e-10 1.6277e-14)
(2764.5 8.74764e-10 1.6973e-14)
(2764.5 8.30012e-10 1.26464e-14)
(2764.5 7.81695e-10 1.63545e-14)
(2764.5 7.41835e-10 1.51331e-14)
(2764.5 7.02049e-10 1.57373e-14)
(2764.5 6.41274e-10 1.64022e-14)
(2764.5 5.53736e-10 1.4137e-14)
(2764.5 4.50577e-10 1.41807e-14)
(2764.5 3.45062e-10 1.33597e-14)
(2764.5 2.30984e-10 1.25713e-14)
(2764.5 1.45952e-10 1.26908e-14)
(2764.5 4.83839e-11 1.51913e-14)
(2764.5 -4.40047e-11 8.45058e-15)
(2764.5 -1.12305e-10 1.18802e-14)
(2764.5 -1.69092e-10 1.15991e-14)
(2764.5 -2.0218e-10 7.5055e-15)
(2764.5 -2.04311e-10 1.12212e-14)
(2764.5 -1.96343e-10 1.33482e-14)
(2764.5 -1.86553e-10 1.04174e-14)
(2764.5 -1.62386e-10 1.05369e-14)
(2764.5 -1.23966e-10 1.05203e-14)
(2764.5 -5.62006e-11 1.1693e-14)
(2764.5 3.54983e-11 1.42933e-14)
(2764.5 1.58844e-10 9.96807e-15)
(2764.5 3.03406e-10 9.76798e-15)
(2764.5 4.51872e-10 1.34072e-14)
(2764.5 5.58769e-10 9.69343e-15)
(2764.5 6.24858e-10 1.27002e-14)
(2764.5 6.85331e-10 1.06299e-14)
(2764.5 7.51508e-10 1.23925e-14)
(2764.5 8.24083e-10 1.28008e-14)
(2764.5 9.01814e-10 1.07975e-14)
(2764.5 9.76276e-10 1.27515e-14)
(2764.5 1.05467e-09 1.57185e-14)
(2764.5 1.14428e-09 1.15747e-14)
(2764.5 1.2327e-09 1.47814e-14)
(2764.5 1.32685e-09 1.1941e-14)
(2764.5 1.41465e-09 9.61105e-15)
(2764.5 1.49442e-09 1.49152e-14)
(2764.5 1.58736e-09 1.172e-14)
(2764.5 1.68067e-09 1.23392e-14)
(2764.5 1.76344e-09 1.16632e-14)
(2764.5 1.85151e-09 1.30397e-14)
(2764.5 1.93321e-09 1.21387e-14)
(2764.5 2.00361e-09 1.48509e-14)
(2764.5 2.06106e-09 1.31415e-14)
(2764.5 2.11904e-09 1.23792e-14)
(2764.5 2.17418e-09 1.22559e-14)
(2764.5 2.20921e-09 1.33101e-14)
(2764.5 2.22349e-09 1.43969e-14)
(2764.5 2.21341e-09 1.40786e-14)
(2764.5 2.1808e-09 1.34711e-14)
(2764.5 2.13492e-09 1.21856e-14)
(2764.5 2.10896e-09 1.26481e-14)
(2764.5 2.1573e-09 1.24461e-14)
(2764.5 2.22719e-09 1.1766e-14)
(2764.5 2.31138e-09 9.07083e-15)
(2764.5 2.38764e-09 1.31276e-14)
(2764.5 2.4754e-09 1.28127e-14)
(2764.5 2.57936e-09 1.10673e-14)
(2764.5 2.67702e-09 1.01141e-14)
(2764.5 2.78705e-09 1.01708e-14)
(2764.5 2.92329e-09 1.1265e-14)
(2764.5 3.07681e-09 1.11576e-14)
(2764.5 3.24455e-09 6.93302e-15)
(2764.5 3.42585e-09 9.60391e-15)
(2764.5 3.62711e-09 1.23515e-14)
(2764.5 3.85774e-09 8.79029e-15)
(2764.5 4.1038e-09 9.73155e-15)
(2764.5 4.37362e-09 7.56041e-15)
(2764.5 2.7418e-09 2.68122e-14)
(2764.5 2.76912e-09 2.91913e-14)
(2764.5 2.73491e-09 2.10423e-14)
(2764.5 2.73726e-09 2.27296e-14)
(2764.5 2.83917e-09 2.72651e-14)
(2764.5 2.98094e-09 2.2693e-14)
(2764.5 3.12203e-09 2.40223e-14)
(2764.5 3.2533e-09 2.30872e-14)
(2764.5 3.38246e-09 2.60559e-14)
(2764.5 3.50964e-09 2.42665e-14)
(2764.5 3.63609e-09 2.22478e-14)
(2764.5 3.74769e-09 2.11833e-14)
(2764.5 3.84959e-09 1.79176e-14)
(2764.5 3.93774e-09 2.12975e-14)
(2764.5 4.01682e-09 2.27394e-14)
(2764.5 4.08292e-09 2.22671e-14)
(2764.5 4.13352e-09 2.00523e-14)
(2764.5 4.1737e-09 2.15412e-14)
(2764.5 4.20833e-09 2.02598e-14)
(2764.5 4.22855e-09 2.05015e-14)
(2764.5 4.23512e-09 2.00274e-14)
(2764.5 4.23322e-09 1.78816e-14)
(2764.5 4.21693e-09 1.97318e-14)
(2764.5 4.19497e-09 2.49e-14)
(2764.5 4.15582e-09 1.89193e-14)
(2764.5 4.10967e-09 2.09434e-14)
(2764.5 4.05812e-09 2.29561e-14)
(2764.5 3.98664e-09 2.23215e-14)
(2764.5 3.90011e-09 2.03855e-14)
(2764.5 3.81252e-09 2.16575e-14)
(2764.5 3.72361e-09 2.01444e-14)
(2764.5 3.62851e-09 2.21424e-14)
(2764.5 3.53569e-09 2.05149e-14)
(2764.5 3.43099e-09 2.0501e-14)
(2764.5 3.32182e-09 2.24015e-14)
(2764.5 3.21864e-09 2.16883e-14)
(2764.5 3.10875e-09 2.32106e-14)
(2764.5 2.99173e-09 2.16124e-14)
(2764.5 2.88139e-09 2.15223e-14)
(2764.5 2.77345e-09 2.2704e-14)
(2764.5 2.67134e-09 2.23752e-14)
(2764.5 2.59156e-09 2.05459e-14)
(2764.5 2.51973e-09 2.14328e-14)
(2764.5 2.48063e-09 2.06587e-14)
(2764.5 2.48431e-09 2.26195e-14)
(2764.5 2.45832e-09 2.16708e-14)
(2764.5 2.46187e-09 2.32726e-14)
(2764.5 2.46911e-09 2.33703e-14)
(2764.5 2.45904e-09 2.09191e-14)
(2764.5 2.42715e-09 2.20044e-14)
(2764.5 2.38977e-09 1.82297e-14)
(2764.5 2.36609e-09 2.21576e-14)
(2764.5 2.35994e-09 1.95647e-14)
(2764.5 2.36608e-09 1.93209e-14)
(2764.5 2.37519e-09 2.03043e-14)
(2764.5 2.38827e-09 2.18096e-14)
(2764.5 2.40269e-09 1.99762e-14)
(2764.5 2.42398e-09 2.31244e-14)
(2764.5 2.44282e-09 2.46564e-14)
(2764.5 2.44722e-09 1.98016e-14)
(2764.5 2.44274e-09 1.84805e-14)
(2764.5 2.46176e-09 1.72153e-14)
(2764.5 2.52497e-09 1.82649e-14)
(2764.5 2.65811e-09 2.1583e-14)
(2764.5 2.81635e-09 1.67987e-14)
(2764.5 2.99077e-09 1.76301e-14)
(2764.5 3.17539e-09 1.81313e-14)
(2764.5 3.3655e-09 1.79334e-14)
(2764.5 3.56096e-09 1.79236e-14)
(2764.5 3.75416e-09 1.94049e-14)
(2764.5 3.9489e-09 1.7631e-14)
(2764.5 4.13996e-09 2.00328e-14)
(2764.5 4.33451e-09 1.72771e-14)
(2764.5 4.5284e-09 1.70208e-14)
(2764.5 4.70831e-09 1.90379e-14)
(2764.5 4.89163e-09 1.56651e-14)
(2764.5 5.08136e-09 1.78602e-14)
(2764.5 5.27763e-09 1.91312e-14)
(2764.5 5.48961e-09 1.65897e-14)
(2764.5 5.71952e-09 1.58543e-14)
(2764.5 5.97182e-09 1.90213e-14)
(2764.5 6.24814e-09 1.78144e-14)
(2764.5 6.5591e-09 1.79184e-14)
(2764.5 6.92684e-09 1.59276e-14)
(2764.5 7.34964e-09 1.84503e-14)
(2764.5 7.83461e-09 1.97668e-14)
(2764.5 8.37866e-09 1.60858e-14)
(2764.5 8.99017e-09 1.59967e-14)
(2764.5 9.67539e-09 1.82397e-14)
(2764.5 1.04079e-08 1.63812e-14)
(2764.5 1.11993e-08 1.72436e-14)
(2764.5 1.20359e-08 1.67435e-14)
(2764.5 1.29274e-08 1.48688e-14)
(2764.5 1.38502e-08 1.7494e-14)
(2764.5 1.47961e-08 1.81298e-14)
(2764.5 1.57758e-08 1.6393e-14)
(2764.5 1.67618e-08 1.38293e-14)
(2764.5 1.77513e-08 1.75718e-14)
(2764.5 1.87471e-08 1.69621e-14)
(2764.5 1.97303e-08 1.57167e-14)
(2764.5 2.06989e-08 1.50932e-14)
(2764.5 2.16484e-08 1.52479e-14)
(2764.5 2.25718e-08 1.59652e-14)
(2764.5 2.34598e-08 1.48728e-14)
(2764.5 2.43065e-08 1.48797e-14)
(2764.5 2.51056e-08 1.50423e-14)
(2764.5 9.04753e-09 3.15903e-14)
(2764.5 9.69414e-09 3.66997e-14)
(2764.5 1.03771e-08 3.05133e-14)
(2764.5 1.1056e-08 3.02976e-14)
(2764.5 1.17256e-08 3.20154e-14)
(2764.5 1.23854e-08 2.92468e-14)
(2764.5 1.30212e-08 3.21396e-14)
(2764.5 1.36184e-08 3.23477e-14)
(2764.5 1.41901e-08 2.89722e-14)
(2764.5 1.4719e-08 2.78761e-14)
(2764.5 1.52046e-08 3.13643e-14)
(2764.5 1.56404e-08 3.04143e-14)
(2764.5 1.6026e-08 2.93008e-14)
(2764.5 1.63598e-08 2.83374e-14)
(2764.5 1.66416e-08 2.95832e-14)
(2764.5 1.68604e-08 2.7271e-14)
(2764.5 1.70212e-08 2.67343e-14)
(2764.5 1.71311e-08 2.81776e-14)
(2764.5 1.71855e-08 2.7495e-14)
(2764.5 1.71894e-08 2.82822e-14)
(2764.5 1.71463e-08 2.63928e-14)
(2764.5 1.70382e-08 2.96766e-14)
(2764.5 1.68832e-08 3.00573e-14)
(2764.5 1.66927e-08 2.90257e-14)
(2764.5 1.6461e-08 2.74399e-14)
(2764.5 1.61856e-08 2.76384e-14)
(2764.5 1.58708e-08 3.04602e-14)
(2764.5 1.55208e-08 2.86682e-14)
(2764.5 1.51384e-08 2.43061e-14)
(2764.5 1.47317e-08 2.80649e-14)
(2764.5 1.43163e-08 2.7067e-14)
(2764.5 1.38905e-08 2.80528e-14)
(2764.5 1.34533e-08 2.67551e-14)
(2764.5 1.30113e-08 2.85805e-14)
(2764.5 1.25684e-08 2.89367e-14)
(2764.5 1.21258e-08 2.73095e-14)
(2764.5 1.16759e-08 3.00875e-14)
(2764.5 1.12354e-08 2.72796e-14)
(2764.5 1.08095e-08 2.77163e-14)
(2764.5 1.0383e-08 2.52249e-14)
(2764.5 9.97447e-09 2.7367e-14)
(2764.5 9.58366e-09 3.00357e-14)
(2764.5 9.20396e-09 2.72955e-14)
(2764.5 8.84618e-09 2.76504e-14)
(2764.5 8.51488e-09 2.95853e-14)
(2764.5 8.19121e-09 2.73084e-14)
(2764.5 7.9145e-09 2.71148e-14)
(2764.5 7.69509e-09 2.5086e-14)
(2764.5 7.5209e-09 3.24117e-14)
(2764.5 7.31122e-09 2.79337e-14)
(2764.5 7.13284e-09 2.26001e-14)
(2764.5 7.03776e-09 2.56666e-14)
(2764.5 7.02718e-09 2.63371e-14)
(2764.5 7.03446e-09 2.66967e-14)
(2764.5 7.06622e-09 2.44712e-14)
(2764.5 7.13556e-09 2.48763e-14)
(2764.5 7.25321e-09 2.72051e-14)
(2764.5 7.42757e-09 2.75118e-14)
(2764.5 7.66204e-09 2.59636e-14)
(2764.5 7.96474e-09 2.51973e-14)
(2764.5 8.34804e-09 2.65733e-14)
(2764.5 8.79608e-09 2.40791e-14)
(2764.5 9.31266e-09 2.28394e-14)
(2764.5 9.90407e-09 2.35208e-14)
(2764.5 1.05791e-08 2.37004e-14)
(2764.5 1.1337e-08 2.362e-14)
(2764.5 1.21925e-08 2.29825e-14)
(2764.5 1.31401e-08 2.28301e-14)
(2764.5 1.41869e-08 2.22383e-14)
(2764.5 1.53332e-08 2.27721e-14)
(2764.5 1.65833e-08 2.34657e-14)
(2764.5 1.79458e-08 2.42272e-14)
(2764.5 1.94384e-08 2.39664e-14)
(2764.5 2.10536e-08 2.35543e-14)
(2764.5 2.27801e-08 2.17825e-14)
(2764.5 2.46196e-08 2.1006e-14)
(2764.5 2.65768e-08 2.32703e-14)
(2764.5 2.86413e-08 2.31683e-14)
(2764.5 3.0807e-08 2.32432e-14)
(2764.5 3.30589e-08 2.51435e-14)
(2764.5 3.53829e-08 2.45613e-14)
(2764.5 3.77571e-08 2.23145e-14)
(2764.5 4.01651e-08 2.09839e-14)
(2764.5 4.25996e-08 2.093e-14)
(2764.5 4.50435e-08 2.34103e-14)
(2764.5 4.7484e-08 1.93798e-14)
(2764.5 4.99059e-08 2.09858e-14)
(2764.5 5.22944e-08 2.49021e-14)
(2764.5 5.46467e-08 2.38309e-14)
(2764.5 5.69474e-08 2.08437e-14)
(2764.5 5.91988e-08 2.19787e-14)
(2764.5 6.14106e-08 2.20865e-14)
(2764.5 6.36048e-08 2.21167e-14)
(2764.5 6.58092e-08 2.39993e-14)
(2764.5 6.8066e-08 2.11081e-14)
(2764.5 7.04382e-08 1.99612e-14)
(2764.5 7.2992e-08 2.43815e-14)
(2764.5 7.5802e-08 2.4809e-14)
(2764.5 7.89508e-08 2.02759e-14)
(2764.5 8.25376e-08 2.22848e-14)
(2764.5 8.66618e-08 2.19382e-14)
(2764.5 9.14422e-08 1.99002e-14)
(2764.5 9.69954e-08 2.15422e-14)
(2764.5 1.03432e-07 2.11643e-14)
(2764.5 1.10871e-07 1.92658e-14)
(2764.5 1.19435e-07 2.03625e-14)
(2764.5 4.008e-08 3.99058e-14)
(2764.5 4.30134e-08 4.06061e-14)
(2764.5 4.59401e-08 4.08881e-14)
(2764.5 4.88444e-08 3.93207e-14)
(2764.5 5.17221e-08 4.06777e-14)
(2764.5 5.45587e-08 3.81067e-14)
(2764.5 5.73299e-08 3.70358e-14)
(2764.5 6.00208e-08 4.00518e-14)
(2764.5 6.26126e-08 4.12308e-14)
(2764.5 6.5086e-08 4.16495e-14)
(2764.5 6.74148e-08 3.78238e-14)
(2764.5 6.95857e-08 3.72974e-14)
(2764.5 7.15776e-08 3.92117e-14)
(2764.5 7.33711e-08 3.63794e-14)
(2764.5 7.49459e-08 3.47483e-14)
(2764.5 7.62902e-08 3.96455e-14)
(2764.5 7.73852e-08 3.67404e-14)
(2764.5 7.82082e-08 3.88993e-14)
(2764.5 7.87411e-08 3.8595e-14)
(2764.5 7.89865e-08 3.50386e-14)
(2764.5 7.89479e-08 3.55292e-14)
(2764.5 7.8611e-08 3.4173e-14)
(2764.5 7.80185e-08 3.65879e-14)
(2764.5 7.71822e-08 3.98853e-14)
(2764.5 7.61333e-08 3.68909e-14)
(2764.5 7.48596e-08 3.44132e-14)
(2764.5 7.33504e-08 3.60943e-14)
(2764.5 7.16368e-08 3.1199e-14)
(2764.5 6.97403e-08 3.11565e-14)
(2764.5 6.76854e-08 3.38083e-14)
(2764.5 6.5486e-08 3.41336e-14)
(2764.5 6.31755e-08 3.37273e-14)
(2764.5 6.07871e-08 3.39771e-14)
(2764.5 5.83455e-08 3.35689e-14)
(2764.5 5.58839e-08 3.4029e-14)
(2764.5 5.3426e-08 3.4076e-14)
(2764.5 5.09935e-08 3.48712e-14)
(2764.5 4.85949e-08 3.71725e-14)
(2764.5 4.62705e-08 3.11561e-14)
(2764.5 4.40341e-08 3.06229e-14)
(2764.5 4.19042e-08 3.43134e-14)
(2764.5 3.99051e-08 3.53421e-14)
(2764.5 3.80429e-08 3.35464e-14)
(2764.5 3.63064e-08 3.26877e-14)
(2764.5 3.47009e-08 3.47073e-14)
(2764.5 3.32484e-08 3.53339e-14)
(2764.5 3.19309e-08 3.42168e-14)
(2764.5 3.07691e-08 3.51812e-14)
(2764.5 2.98958e-08 2.97628e-14)
(2764.5 2.92029e-08 3.44594e-14)
(2764.5 2.86565e-08 3.41505e-14)
(2764.5 2.87176e-08 2.8989e-14)
(2764.5 2.88355e-08 3.08785e-14)
(2764.5 2.89729e-08 3.32474e-14)
(2764.5 2.92231e-08 3.31949e-14)
(2764.5 2.97215e-08 3.20855e-14)
(2764.5 3.0575e-08 3.22393e-14)
(2764.5 3.1834e-08 3.31305e-14)
(2764.5 3.35198e-08 3.25916e-14)
(2764.5 3.56371e-08 3.11921e-14)
(2764.5 3.81855e-08 3.02436e-14)
(2764.5 4.11731e-08 3.26399e-14)
(2764.5 4.46178e-08 3.08177e-14)
(2764.5 4.8515e-08 2.99588e-14)
(2764.5 5.28463e-08 3.15414e-14)
(2764.5 5.75811e-08 3.07877e-14)
(2764.5 6.26918e-08 2.73902e-14)
(2764.5 6.81509e-08 2.79823e-14)
(2764.5 7.39064e-08 2.74724e-14)
(2764.5 7.99037e-08 2.87391e-14)
(2764.5 8.60807e-08 2.95599e-14)
(2764.5 9.23918e-08 2.87236e-14)
(2764.5 9.87955e-08 3.13239e-14)
(2764.5 1.05256e-07 2.95728e-14)
(2764.5 1.11739e-07 2.72186e-14)
(2764.5 1.18234e-07 2.93232e-14)
(2764.5 1.24754e-07 2.83926e-14)
(2764.5 1.31341e-07 2.89936e-14)
(2764.5 1.3806e-07 2.93102e-14)
(2764.5 1.44997e-07 2.92837e-14)
(2764.5 1.5227e-07 3.01223e-14)
(2764.5 1.60019e-07 3.00812e-14)
(2764.5 1.68402e-07 2.77421e-14)
(2764.5 1.77589e-07 2.59712e-14)
(2764.5 1.8777e-07 2.78252e-14)
(2764.5 1.99146e-07 2.94426e-14)
(2764.5 2.11931e-07 2.84421e-14)
(2764.5 2.26341e-07 2.8089e-14)
(2764.5 2.42586e-07 2.94873e-14)
(2764.5 2.60872e-07 2.82031e-14)
(2764.5 2.81375e-07 2.75087e-14)
(2764.5 3.04251e-07 3.05665e-14)
(2764.5 3.29623e-07 2.81815e-14)
(2764.5 3.57572e-07 2.77404e-14)
(2764.5 3.8814e-07 2.89585e-14)
(2764.5 4.21302e-07 2.66448e-14)
(2764.5 4.57005e-07 2.7253e-14)
(2764.5 4.95141e-07 2.89781e-14)
(2764.5 5.35558e-07 2.62583e-14)
(2764.5 5.78061e-07 2.64916e-14)
(2764.5 6.22422e-07 2.82539e-14)
(2764.5 6.68411e-07 2.52158e-14)
(2764.5 7.15768e-07 2.62175e-14)
(2764.5 7.64208e-07 2.86065e-14)
(2764.5 8.13427e-07 2.72862e-14)
(2764.5 8.63122e-07 2.56948e-14)
(2764.5 9.12986e-07 2.80268e-14)
(2764.5 2.03706e-07 4.90928e-14)
(2764.5 2.19521e-07 4.68119e-14)
(2764.5 2.3561e-07 4.82391e-14)
(2764.5 2.51858e-07 4.57943e-14)
(2764.5 2.68133e-07 4.65685e-14)
(2764.5 2.8428e-07 4.70471e-14)
(2764.5 3.00134e-07 4.96064e-14)
(2764.5 3.1553e-07 4.66268e-14)
(2764.5 3.30312e-07 4.77662e-14)
(2764.5 3.44335e-07 4.87972e-14)
(2764.5 3.57452e-07 4.46546e-14)
(2764.5 3.69534e-07 4.66277e-14)
(2764.5 3.80449e-07 4.70916e-14)
(2764.5 3.9008e-07 4.46624e-14)
(2764.5 3.9834e-07 4.74151e-14)
(2764.5 4.05173e-07 4.58166e-14)
(2764.5 4.1057e-07 4.19254e-14)
(2764.5 4.14519e-07 4.32888e-14)
(2764.5 4.17041e-07 4.35749e-14)
(2764.5 4.18125e-07 4.31302e-14)
(2764.5 4.17793e-07 4.30003e-14)
(2764.5 4.15959e-07 4.26953e-14)
(2764.5 4.12824e-07 4.52512e-14)
(2764.5 4.08415e-07 4.51619e-14)
(2764.5 4.02765e-07 3.89158e-14)
(2764.5 3.95948e-07 3.96339e-14)
(2764.5 3.88106e-07 4.09793e-14)
(2764.5 3.7941e-07 3.86924e-14)
(2764.5 3.69996e-07 4.19161e-14)
(2764.5 3.59969e-07 4.12112e-14)
(2764.5 3.49413e-07 4.21124e-14)
(2764.5 3.38417e-07 4.15856e-14)
(2764.5 3.27062e-07 4.30677e-14)
(2764.5 3.15425e-07 4.10329e-14)
(2764.5 3.036e-07 4.32801e-14)
(2764.5 2.91687e-07 4.30263e-14)
(2764.5 2.79798e-07 4.08075e-14)
(2764.5 2.68031e-07 3.98942e-14)
(2764.5 2.5647e-07 3.81234e-14)
(2764.5 2.45189e-07 4.08201e-14)
(2764.5 2.34273e-07 4.0412e-14)
(2764.5 2.23821e-07 3.99318e-14)
(2764.5 2.13913e-07 4.11735e-14)
(2764.5 2.04601e-07 3.88423e-14)
(2764.5 1.95968e-07 4.21088e-14)
(2764.5 1.88024e-07 4.19041e-14)
(2764.5 1.80767e-07 3.91644e-14)
(2764.5 1.7438e-07 4.15761e-14)
(2764.5 1.68734e-07 3.59502e-14)
(2764.5 1.63634e-07 4.27874e-14)
(2764.5 1.60015e-07 4.11084e-14)
(2764.5 1.58675e-07 3.52302e-14)
(2764.5 1.58807e-07 3.87413e-14)
(2764.5 1.59356e-07 4.06873e-14)
(2764.5 1.60474e-07 4.23417e-14)
(2764.5 1.62667e-07 4.16312e-14)
(2764.5 1.66226e-07 3.99295e-14)
(2764.5 1.71327e-07 3.64771e-14)
(2764.5 1.78066e-07 3.59609e-14)
(2764.5 1.86461e-07 3.79461e-14)
(2764.5 1.96522e-07 3.7633e-14)
(2764.5 2.08268e-07 3.6431e-14)
(2764.5 2.21719e-07 3.66563e-14)
(2764.5 2.36919e-07 3.89378e-14)
(2764.5 2.53916e-07 3.47938e-14)
(2764.5 2.72788e-07 3.41643e-14)
(2764.5 2.93645e-07 4.1259e-14)
(2764.5 3.16611e-07 3.77903e-14)
(2764.5 3.41811e-07 3.21293e-14)
(2764.5 3.69375e-07 3.62594e-14)
(2764.5 3.99455e-07 3.66111e-14)
(2764.5 4.32269e-07 3.28833e-14)
(2764.5 4.68074e-07 3.372e-14)
(2764.5 5.07158e-07 3.5505e-14)
(2764.5 5.49829e-07 3.51508e-14)
(2764.5 5.96421e-07 3.5256e-14)
(2764.5 6.47261e-07 3.51835e-14)
(2764.5 7.02658e-07 3.60693e-14)
(2764.5 7.62877e-07 3.61375e-14)
(2764.5 8.28098e-07 3.33434e-14)
(2764.5 8.98408e-07 3.13225e-14)
(2764.5 9.73805e-07 3.46859e-14)
(2764.5 1.05419e-06 3.66634e-14)
(2764.5 1.13936e-06 3.51475e-14)
(2764.5 1.229e-06 3.43284e-14)
(2764.5 1.32273e-06 3.36857e-14)
(2764.5 1.42009e-06 3.35941e-14)
(2764.5 1.52058e-06 3.47667e-14)
(2764.5 1.62359e-06 3.55007e-14)
(2764.5 1.72852e-06 3.37258e-14)
(2764.5 1.83476e-06 3.47962e-14)
(2764.5 1.94171e-06 3.31818e-14)
(2764.5 2.04888e-06 3.28799e-14)
(2764.5 2.15589e-06 3.5418e-14)
(2764.5 2.26253e-06 3.50815e-14)
(2764.5 2.3688e-06 3.27816e-14)
(2764.5 2.475e-06 3.2233e-14)
(2764.5 2.58167e-06 3.43495e-14)
(2764.5 2.68974e-06 3.20288e-14)
(2764.5 2.80046e-06 3.1638e-14)
(2764.5 2.91549e-06 3.49208e-14)
(2764.5 3.03691e-06 3.37525e-14)
(2764.5 3.16721e-06 3.46951e-14)
(2764.5 3.30928e-06 3.33238e-14)
(2764.5 3.46647e-06 3.15063e-14)
(2764.5 3.64258e-06 3.03249e-14)
(2764.5 3.84179e-06 3.39459e-14)
(2764.5 8.32437e-07 5.61584e-14)
(2764.5 9.0293e-07 5.55486e-14)
(2764.5 9.74562e-07 5.70887e-14)
(2764.5 1.04683e-06 5.28154e-14)
(2764.5 1.11921e-06 5.28716e-14)
(2764.5 1.19116e-06 5.35843e-14)
(2764.5 1.26213e-06 5.33229e-14)
(2764.5 1.33155e-06 5.63994e-14)
(2764.5 1.3989e-06 5.47861e-14)
(2764.5 1.46365e-06 5.57589e-14)
(2764.5 1.52525e-06 5.11156e-14)
(2764.5 1.58317e-06 5.14405e-14)
(2764.5 1.63688e-06 5.71137e-14)
(2764.5 1.68594e-06 5.36627e-14)
(2764.5 1.72993e-06 5.12102e-14)
(2764.5 1.76851e-06 5.20439e-14)
(2764.5 1.80134e-06 5.16349e-14)
(2764.5 1.82807e-06 5.23808e-14)
(2764.5 1.84843e-06 5.16852e-14)
(2764.5 1.86202e-06 5.1339e-14)
(2764.5 1.86894e-06 4.99453e-14)
(2764.5 1.86932e-06 5.04e-14)
(2764.5 1.86189e-06 4.99567e-14)
(2764.5 1.84915e-06 4.85418e-14)
(2764.5 1.83126e-06 4.79376e-14)
(2764.5 1.80759e-06 5.10917e-14)
(2764.5 1.77878e-06 5.11755e-14)
(2764.5 1.7453e-06 4.99093e-14)
(2764.5 1.70751e-06 5.05334e-14)
(2764.5 1.6658e-06 4.99665e-14)
(2764.5 1.62061e-06 4.85985e-14)
(2764.5 1.57239e-06 4.80167e-14)
(2764.5 1.52167e-06 4.98471e-14)
(2764.5 1.46899e-06 5.22591e-14)
(2764.5 1.41498e-06 5.05433e-14)
(2764.5 1.36031e-06 4.91375e-14)
(2764.5 1.30563e-06 4.56126e-14)
(2764.5 1.25141e-06 4.71695e-14)
(2764.5 1.19807e-06 4.73102e-14)
(2764.5 1.14598e-06 4.74377e-14)
(2764.5 1.09548e-06 4.74702e-14)
(2764.5 1.04688e-06 4.81471e-14)
(2764.5 1.00037e-06 4.615e-14)
(2764.5 9.56155e-07 4.56143e-14)
(2764.5 9.14417e-07 4.76163e-14)
(2764.5 8.75261e-07 4.85944e-14)
(2764.5 8.38974e-07 4.66558e-14)
(2764.5 8.05877e-07 4.76318e-14)
(2764.5 7.7599e-07 4.90092e-14)
(2764.5 7.50044e-07 4.84782e-14)
(2764.5 7.28741e-07 4.73302e-14)
(2764.5 7.09358e-07 4.40862e-14)
(2764.5 6.92397e-07 4.73094e-14)
(2764.5 6.82872e-07 4.68522e-14)
(2764.5 6.81021e-07 4.70371e-14)
(2764.5 6.82502e-07 4.37714e-14)
(2764.5 6.86396e-07 4.31112e-14)
(2764.5 6.95434e-07 4.71085e-14)
(2764.5 7.11811e-07 4.63422e-14)
(2764.5 7.36664e-07 4.35173e-14)
(2764.5 7.70821e-07 4.35787e-14)
(2764.5 8.15126e-07 4.60165e-14)
(2764.5 8.70547e-07 4.2554e-14)
(2764.5 9.38121e-07 4.27633e-14)
(2764.5 1.01885e-06 4.37638e-14)
(2764.5 1.11356e-06 4.10411e-14)
(2764.5 1.22275e-06 4.70426e-14)
(2764.5 1.3466e-06 4.45258e-14)
(2764.5 1.48495e-06 4.3418e-14)
(2764.5 1.63732e-06 4.53795e-14)
(2764.5 1.80294e-06 4.28977e-14)
(2764.5 1.98083e-06 4.23034e-14)
(2764.5 2.16989e-06 4.07284e-14)
(2764.5 2.36894e-06 4.11121e-14)
(2764.5 2.57669e-06 4.27768e-14)
(2764.5 2.79182e-06 4.17283e-14)
(2764.5 3.01306e-06 4.19186e-14)
(2764.5 3.23927e-06 4.27967e-14)
(2764.5 3.46953e-06 4.03797e-14)
(2764.5 3.70325e-06 4.13508e-14)
(2764.5 3.94019e-06 4.02826e-14)
(2764.5 4.18052e-06 4.03066e-14)
(2764.5 4.42489e-06 3.92201e-14)
(2764.5 4.6745e-06 3.81368e-14)
(2764.5 4.93112e-06 4.17847e-14)
(2764.5 5.19705e-06 4.11908e-14)
(2764.5 5.47514e-06 4.12764e-14)
(2764.5 5.7688e-06 4.04702e-14)
(2764.5 6.08204e-06 3.83313e-14)
(2764.5 6.41952e-06 3.8209e-14)
(2764.5 6.78653e-06 3.85443e-14)
(2764.5 7.18903e-06 3.97187e-14)
(2764.5 7.63361e-06 4.06273e-14)
(2764.5 8.12744e-06 3.74883e-14)
(2764.5 8.6782e-06 3.7659e-14)
(2764.5 9.29384e-06 4.21679e-14)
(2764.5 9.98243e-06 3.97318e-14)
(2764.5 1.07519e-05 4.14414e-14)
(2764.5 1.16098e-05 4.05436e-14)
(2764.5 1.25631e-05 3.87288e-14)
(2764.5 1.36176e-05 3.84973e-14)
(2764.5 1.47783e-05 3.78596e-14)
(2764.5 1.60487e-05 4.03325e-14)
(2764.5 1.74307e-05 3.85246e-14)
(2764.5 1.89249e-05 4.06075e-14)
(2764.5 2.05301e-05 4.02567e-14)
(2764.5 2.22435e-05 3.88018e-14)
(2764.5 2.40609e-05 3.90254e-14)
(2764.5 2.59767e-05 3.59301e-14)
(2764.5 2.79838e-05 3.84804e-14)
(2764.5 4.08922e-06 6.15352e-14)
(2764.5 4.42824e-06 6.25648e-14)
(2764.5 4.77774e-06 6.39754e-14)
(2764.5 5.13577e-06 6.00713e-14)
(2764.5 5.49992e-06 6.21227e-14)
(2764.5 5.86742e-06 6.31259e-14)
(2764.5 6.23523e-06 6.30594e-14)
(2764.5 6.60007e-06 5.99967e-14)
(2764.5 6.9583e-06 6.20965e-14)
(2764.5 7.30628e-06 6.33901e-14)
(2764.5 7.64052e-06 5.98194e-14)
(2764.5 7.95769e-06 6.19236e-14)
(2764.5 8.25449e-06 6.3598e-14)
(2764.5 8.52748e-06 6.08595e-14)
(2764.5 8.77363e-06 5.68107e-14)
(2764.5 8.9904e-06 5.79334e-14)
(2764.5 9.17582e-06 6.27079e-14)
(2764.5 9.32917e-06 6.1648e-14)
(2764.5 9.44872e-06 6.12671e-14)
(2764.5 9.53477e-06 5.69228e-14)
(2764.5 9.58828e-06 5.7919e-14)
(2764.5 9.60284e-06 5.77459e-14)
(2764.5 9.58297e-06 5.94184e-14)
(2764.5 9.52938e-06 6.16782e-14)
(2764.5 9.44533e-06 5.78018e-14)
(2764.5 9.33179e-06 5.69108e-14)
(2764.5 9.19024e-06 5.95214e-14)
(2764.5 9.02268e-06 6.07786e-14)
(2764.5 8.83167e-06 5.87194e-14)
(2764.5 8.62011e-06 5.45464e-14)
(2764.5 8.39089e-06 5.20908e-14)
(2764.5 8.14657e-06 5.72804e-14)
(2764.5 7.88957e-06 5.82276e-14)
(2764.5 7.62234e-06 5.38452e-14)
(2764.5 7.34729e-06 5.31623e-14)
(2764.5 7.06673e-06 5.65722e-14)
(2764.5 6.78318e-06 5.4686e-14)
(2764.5 6.49925e-06 5.52631e-14)
(2764.5 6.21726e-06 5.36098e-14)
(2764.5 5.93918e-06 5.64285e-14)
(2764.5 5.6672e-06 5.56196e-14)
(2764.5 5.40392e-06 5.47884e-14)
(2764.5 5.15209e-06 5.34208e-14)
(2764.5 4.91393e-06 5.46597e-14)
(2764.5 4.69054e-06 5.41215e-14)
(2764.5 4.48237e-06 5.39841e-14)
(2764.5 4.29016e-06 5.47768e-14)
(2764.5 4.11502e-06 5.65993e-14)
(2764.5 3.9571e-06 5.2736e-14)
(2764.5 3.81948e-06 5.32481e-14)
(2764.5 3.708e-06 5.24099e-14)
(2764.5 3.62051e-06 5.49576e-14)
(2764.5 3.56716e-06 5.05912e-14)
(2764.5 3.56908e-06 5.41552e-14)
(2764.5 3.58182e-06 5.27875e-14)
(2764.5 3.60173e-06 5.10992e-14)
(2764.5 3.64049e-06 5.26435e-14)
(2764.5 3.71361e-06 5.11467e-14)
(2764.5 3.82772e-06 5.25877e-14)
(2764.5 3.98584e-06 5.37434e-14)
(2764.5 4.18974e-06 5.15751e-14)
(2764.5 4.44042e-06 5.27828e-14)
(2764.5 4.73822e-06 5.15028e-14)
(2764.5 5.08299e-06 5.06483e-14)
(2764.5 5.47413e-06 4.74364e-14)
(2764.5 5.91086e-06 5.03649e-14)
(2764.5 6.39229e-06 5.31279e-14)
(2764.5 6.91764e-06 4.75978e-14)
(2764.5 7.48647e-06 5.0549e-14)
(2764.5 8.09874e-06 5.28648e-14)
(2764.5 8.7548e-06 4.95916e-14)
(2764.5 9.4553e-06 4.83159e-14)
(2764.5 1.02013e-05 4.80368e-14)
(2764.5 1.09948e-05 5.12264e-14)
(2764.5 1.1839e-05 4.83328e-14)
(2764.5 1.27396e-05 4.68912e-14)
(2764.5 1.37041e-05 4.90236e-14)
(2764.5 1.47426e-05 4.77406e-14)
(2764.5 1.58672e-05 4.68099e-14)
(2764.5 1.70925e-05 4.63283e-14)
(2764.5 1.84345e-05 4.49678e-14)
(2764.5 1.99103e-05 4.50516e-14)
(2764.5 2.1537e-05 4.73561e-14)
(2764.5 2.33306e-05 4.63431e-14)
(2764.5 2.53056e-05 4.69466e-14)
(2764.5 2.74736e-05 4.80834e-14)
(2764.5 2.98441e-05 4.73258e-14)
(2764.5 3.24229e-05 4.30428e-14)
(2764.5 3.5213e-05 4.41367e-14)
(2764.5 3.82135e-05 4.41411e-14)
(2764.5 4.14199e-05 4.63334e-14)
(2764.5 4.48245e-05 4.42025e-14)
(2764.5 4.84161e-05 4.75447e-14)
(2764.5 5.21812e-05 4.50248e-14)
(2764.5 5.61041e-05 4.52407e-14)
(2764.5 6.0168e-05 4.57663e-14)
(2764.5 6.43557e-05 4.56037e-14)
(2764.5 6.86507e-05 4.63719e-14)
(2764.5 7.30378e-05 4.35584e-14)
(2764.5 7.75043e-05 4.57553e-14)
(2764.5 8.20409e-05 4.66197e-14)
(2764.5 8.66427e-05 4.5694e-14)
(2764.5 9.131e-05 4.52183e-14)
(2764.5 9.605e-05 4.33232e-14)
(2764.5 0.000100878 4.5387e-14)
(2764.5 0.000105818 4.38985e-14)
(2764.5 0.000110907 4.40553e-14)
(2764.5 0.000116193 4.41369e-14)
(2764.5 0.00012174 4.42977e-14)
(2764.5 0.000127627 4.2138e-14)
(2764.5 2.08605e-05 7.36432e-14)
(2764.5 2.25477e-05 7.11889e-14)
(2764.5 2.42527e-05 7.04248e-14)
(2764.5 2.59606e-05 7.09499e-14)
(2764.5 2.76565e-05 7.33837e-14)
(2764.5 2.93255e-05 7.02126e-14)
(2764.5 3.09527e-05 6.83848e-14)
(2764.5 3.2524e-05 7.04221e-14)
(2764.5 3.40262e-05 7.30106e-14)
(2764.5 3.54466e-05 7.18937e-14)
(2764.5 3.67718e-05 7.12872e-14)
(2764.5 3.799e-05 6.81174e-14)
(2764.5 3.90914e-05 7.0298e-14)
(2764.5 4.0069e-05 6.81723e-14)
(2764.5 4.09168e-05 6.80431e-14)
(2764.5 4.16265e-05 6.94777e-14)
(2764.5 4.21924e-05 6.96944e-14)
(2764.5 4.26051e-05 6.92434e-14)
(2764.5 4.2864e-05 6.83507e-14)
(2764.5 4.2985e-05 6.67545e-14)
(2764.5 4.29382e-05 7.14488e-14)
(2764.5 4.27364e-05 6.73712e-14)
(2764.5 4.24534e-05 6.80312e-14)
(2764.5 4.20351e-05 6.73565e-14)
(2764.5 4.14859e-05 6.69367e-14)
(2764.5 4.08191e-05 6.68089e-14)
(2764.5 4.00494e-05 6.47782e-14)
(2764.5 3.91901e-05 6.31873e-14)
(2764.5 3.82529e-05 6.85194e-14)