/*--------------------------------*- C++ -*----------------------------------*\
| =========                 |                                                 |
| \\      /  F ield         | OpenFOAM: The Open Source CFD Toolbox           |
|  \\    /   O peration     | Version:  v1706                                 |
|   \\  /    A nd           | Web:      www.OpenFOAM.com                      |
|    \\/     M anipulation  |                                                 |
\*---------------------------------------------------------------------------*/
FoamFile
{
    version     2.0;
    format      ascii;
    class       volScalarField;
    location    "5e-06";
    object      wallHeatFlux;
}
// * * * * * * * * * * * * * * * * * * * * * * * * * * * * * * * * * * * * * //

dimensions      [1 0 -3 0 0 0 0];


internalField   uniform 0;

boundaryField
{
    cone
    {
        type            calculated;
        value           nonuniform List<scalar> 
181
(
22079
18872.4
16013.1
13473
11225.6
9244.22
7503.39
5979.09
4648.45
3490.47
2485.84
1616.91
867.626
223.454
-328.681
-800.504
-1202.48
-1543.89
-1832.97
-2076.97
-2282.22
-2454.35
-2598.32
-2718.37
-2818.16
-2900.84
-2969.15
-3025.39
-3071.57
-3109.36
-3140.2
-3165.28
-3185.62
-3202.05
-3215.29
-3225.91
-3234.41
-3241.17
-3246.53
-3250.76
-3254.08
-3256.66
-3258.66
-3260.18
-3261.33
-3262.18
-3262.8
-3263.22
-3263.5
-3263.66
-3263.73
-3263.73
-3263.67
-3263.57
-3263.43
-3263.27
-3263.08
-3262.88
-3262.67
-3262.45
-3262.22
-3261.99
-3261.75
-3261.51
-3261.26
-3261.02
-3260.77
-3260.53
-3260.28
-3260.03
-3259.79
-3259.54
-3259.29
-3259.04
-3258.8
-3258.55
-3258.31
-3258.06
-3257.81
-3257.57
-3257.33
-3257.08
-3256.84
-3256.59
-3256.35
-3256.11
-3255.87
-3255.63
-3255.39
-3255.14
-3254.9
-3254.66
-3254.43
-3254.19
-3253.95
-3253.71
-3253.47
-3253.24
-3253
-3252.76
-3252.53
-3252.29
-3252.06
-3251.82
-3251.59
-3251.36
-3251.12
-3250.89
-3250.66
-3250.43
-3250.19
-3249.96
-3249.73
-3249.5
-3249.27
-3249.04
-3248.81
-3248.59
-3248.36
-3248.13
-3247.9
-3247.68
-3247.45
-3247.22
-3247
-3246.77
-3246.55
-3246.32
-3246.1
-3245.88
-3245.65
-3245.43
-3245.21
-3244.98
-3244.76
-3244.54
-3244.32
-3244.1
-3243.88
-3243.66
-3243.44
-3243.22
-3243
-3242.79
-3242.57
-3242.35
-3242.14
-3241.92
-3241.7
-3241.49
-3241.27
-3241.06
-3240.85
-3240.63
-3240.42
-3240.21
-3240
-3239.79
-3239.58
-3239.37
-3239.17
-3238.97
-3238.77
-3238.58
-3238.38
-3238.19
-3238
-3237.8
-3237.61
-3237.42
-3237.24
-3237.06
-3236.89
-3236.72
-3236.57
-3236.42
-3236.27
-3236.12
-3235.96
-3235.77
-3235.55
)
;
    }
    inlet
    {
        type            calculated;
        value           uniform 0;
    }
    rWedge
    {
        type            wedge;
    }
    lWedge
    {
        type            wedge;
    }
    outlet
    {
        type            calculated;
        value           nonuniform 0();
    }
    procBoundary1to0
    {
        type            processor;
        value           uniform 0;
    }
    procBoundary1to2
    {
        type            processor;
        value           uniform 0;
    }
}


// ************************************************************************* //
