/*--------------------------------*- C++ -*----------------------------------*\
| =========                 |                                                 |
| \\      /  F ield         | OpenFOAM: The Open Source CFD Toolbox           |
|  \\    /   O peration     | Version:  v1706                                 |
|   \\  /    A nd           | Web:      www.OpenFOAM.com                      |
|    \\/     M anipulation  |                                                 |
\*---------------------------------------------------------------------------*/
FoamFile
{
    version     2.0;
    format      ascii;
    class       volVectorField;
    location    "1e-05";
    object      U;
}
// * * * * * * * * * * * * * * * * * * * * * * * * * * * * * * * * * * * * * //

dimensions      [0 1 -1 0 0 0 0];


internalField   nonuniform List<vector> 
30104
(
(2764.5 -4.55411e-11 2.19908e-15)
(2764.5 -4.29454e-11 5.83387e-15)
(2764.5 -4.17008e-11 5.00487e-15)
(2764.5 -4.11048e-11 3.26081e-15)
(2764.5 -4.06652e-11 3.36558e-15)
(2764.5 -4.07449e-11 2.8365e-15)
(2764.5 -4.08595e-11 1.7226e-15)
(2764.5 -4.15346e-11 1.74226e-15)
(2764.5 -4.16755e-11 4.49299e-15)
(2764.5 -4.22559e-11 4.43951e-15)
(2764.5 -4.2475e-11 3.38247e-15)
(2764.5 -4.20676e-11 4.41489e-15)
(2764.5 -4.18954e-11 8.82691e-16)
(2764.5 -4.34303e-11 3.10377e-15)
(2764.5 -4.46956e-11 4.83196e-15)
(2764.5 -4.52163e-11 4.97889e-15)
(2764.5 -4.49701e-11 4.49438e-15)
(2764.5 -3.78453e-11 1.7312e-15)
(2764.5 -3.91655e-11 3.34943e-15)
(2764.5 -3.90625e-11 3.19291e-15)
(2764.5 -3.88732e-11 2.98106e-15)
(2764.5 -3.80548e-11 2.80425e-15)
(2764.5 -3.77077e-11 2.5267e-15)
(2764.5 -3.98856e-11 2.44521e-15)
(2764.5 -4.07969e-11 3.58057e-15)
(2764.5 -4.19051e-11 2.95746e-15)
(2764.5 -4.27848e-11 2.33456e-15)
(2764.5 -4.24933e-11 2.70022e-15)
(2764.5 -4.01822e-11 2.06241e-15)
(2764.5 -3.4895e-11 4.26012e-15)
(2764.5 -3.13515e-11 5.53029e-15)
(2764.5 -3.18106e-11 -1.65242e-16)
(2764.5 -3.04349e-11 1.95254e-15)
(2764.5 -3.1396e-11 2.12381e-15)
(2764.5 -3.28842e-11 2.65112e-15)
(2764.5 -3.48266e-11 3.70197e-15)
(2764.5 -3.66693e-11 2.28209e-15)
(2764.5 -3.89877e-11 3.54499e-15)
(2764.5 -3.98222e-11 3.76868e-15)
(2764.5 -3.90211e-11 1.69653e-15)
(2764.5 -4.03345e-11 1.77292e-15)
(2764.5 -4.0495e-11 1.92001e-15)
(2764.5 -3.94536e-11 1.65376e-15)
(2764.5 -4.01982e-11 1.77527e-15)
(2764.5 -3.93934e-11 1.96622e-15)
(2764.5 -3.85663e-11 2.05033e-15)
(2764.5 -3.88665e-11 1.96043e-15)
(2764.5 -3.95278e-11 1.94434e-16)
(2764.5 -4.17574e-11 3.00124e-15)
(2764.5 -4.28213e-11 3.88191e-15)
(2764.5 -4.27657e-11 2.26087e-15)
(2764.5 -4.29158e-11 1.53485e-15)
(2764.5 -4.27671e-11 2.02696e-15)
(2764.5 -4.16361e-11 3.07848e-15)
(2764.5 -4.07931e-11 1.83584e-15)
(2764.5 -4.01916e-11 2.35566e-15)
(2764.5 -3.88072e-11 2.57767e-15)
(2764.5 -3.63442e-11 1.71749e-15)
(2764.5 -3.1778e-11 2.19537e-15)
(2764.5 -2.65842e-11 1.88511e-15)
(2764.5 -2.03497e-11 3.48931e-15)
(2764.5 -2.08095e-11 4.37011e-15)
(2764.5 -2.18881e-11 1.9979e-15)
(2764.5 -2.23485e-11 2.26397e-15)
(2764.5 -2.38361e-11 2.27992e-15)
(2764.5 -2.9609e-11 2.6024e-15)
(2764.5 -3.22532e-11 1.72734e-15)
(2764.5 -3.22773e-11 3.41682e-15)
(2764.5 -3.46013e-11 2.61143e-15)
(2764.5 -3.46639e-11 8.85087e-16)
(2764.5 -3.52704e-11 2.10179e-15)
(2764.5 -3.65472e-11 2.22441e-15)
(2764.5 -3.78891e-11 1.19044e-15)
(2764.5 -4.26393e-11 2.57599e-15)
(2764.5 -4.10447e-11 2.51397e-15)
(2764.5 -3.8639e-11 1.55607e-15)
(2764.5 -3.82753e-11 1.19733e-15)
(2764.5 -4.11076e-11 1.12123e-15)
(2764.5 -4.35924e-11 2.4322e-15)
(2764.5 -4.74384e-11 2.92683e-15)
(2764.5 -4.91457e-11 2.18006e-15)
(2764.5 -4.92035e-11 3.79808e-15)
(2764.5 -4.43404e-11 2.95111e-15)
(2764.5 -4.14509e-11 2.42353e-15)
(2764.5 -4.26335e-11 2.75052e-15)
(2764.5 -4.38011e-11 2.39829e-15)
(2764.5 -4.37076e-11 2.54395e-15)
(2764.5 -4.24988e-11 2.25719e-15)
(2764.5 -4.11593e-11 2.01713e-15)
(2764.5 -4.07435e-11 2.35094e-15)
(2764.5 -4.14984e-11 2.40206e-16)
(2764.5 -4.39155e-11 2.48087e-15)
(2764.5 -4.49063e-11 3.00456e-15)
(2764.5 -4.39897e-11 3.1901e-15)
(2764.5 -4.50948e-11 1.20147e-16)
(2764.5 -4.42784e-11 -5.83834e-16)
(2764.5 -4.3992e-11 1.84389e-15)
(2764.5 -4.60674e-11 8.7175e-16)
(2764.5 -4.55505e-11 1.7218e-15)
(2764.5 -4.2492e-11 -2.34756e-16)
(2764.5 -3.66408e-11 2.5624e-16)
(2764.5 -3.67325e-11 4.15321e-15)
(2764.5 -3.81182e-11 3.67069e-15)
(2764.5 -3.89698e-11 2.10724e-15)
(2764.5 -4.01353e-11 1.06644e-15)
(2764.5 -4.33071e-11 1.63173e-15)
(2764.5 -4.11133e-11 2.46521e-15)
(2764.5 -3.67312e-11 2.31732e-15)
(2764.5 -3.59493e-11 2.32054e-15)
(2764.5 -3.79423e-11 2.52641e-15)
(2764.5 -4.122e-11 2.62345e-15)
(2764.5 -3.87895e-11 1.03629e-15)
(2764.5 -3.73155e-11 1.66145e-15)
(2764.5 -3.25927e-11 4.12436e-16)
(2764.5 -3.00865e-11 -4.91285e-16)
(2764.5 -3.31216e-11 2.00324e-15)
(2764.5 -3.84068e-11 2.49799e-15)
(2764.5 -4.18826e-11 2.35799e-15)
(2764.5 -3.88659e-11 2.4942e-15)
(2764.5 -4.0863e-11 1.96193e-15)
(2764.5 -4.32754e-11 1.72304e-15)
(2764.5 -4.27416e-11 1.74612e-15)
(2764.5 -4.32123e-11 2.06148e-15)
(2764.5 -4.83797e-11 4.66577e-16)
(2764.5 -4.91575e-11 -1.78011e-16)
(2764.5 -4.94583e-11 2.1261e-15)
(2764.5 -4.38268e-11 2.77655e-15)
(2764.5 -4.14456e-11 2.29564e-15)
(2764.5 -3.74662e-11 2.00821e-15)
(2764.5 -3.48988e-11 1.71349e-15)
(2764.5 -3.5192e-11 1.23975e-15)
(2764.5 -3.70609e-11 4.64926e-16)
(2764.5 -3.82331e-11 1.09666e-15)
(2764.5 -3.30481e-11 1.32261e-15)
(2764.5 -3.16476e-11 1.35356e-15)
(2764.5 -2.96572e-11 1.37329e-15)
(2764.5 -2.78896e-11 1.01929e-15)
(2764.5 -2.90443e-11 1.5058e-15)
(2764.5 -3.27747e-11 1.09481e-15)
(2764.5 -3.94685e-11 2.3598e-15)
(2764.5 -3.8348e-11 2.04395e-15)
(2764.5 -3.67583e-11 4.89576e-16)
(2764.5 -3.60936e-11 -4.87478e-17)
(2764.5 -4.14421e-11 4.37939e-16)
(2764.5 -4.64413e-11 7.96908e-16)
(2764.5 -4.47878e-11 1.46588e-15)
(2764.5 -4.73973e-11 1.24831e-15)
(2764.5 -4.89282e-11 1.51472e-15)
(2764.5 -5.3932e-11 1.8099e-15)
(2764.5 -5.99561e-11 1.65534e-15)
(2764.5 -6.44117e-11 1.97128e-15)
(2764.5 -6.84863e-11 1.15979e-15)
(2764.5 -6.39334e-11 2.49828e-15)
(2764.5 -5.70644e-11 9.70319e-16)
(2764.5 -5.20886e-11 1.61562e-15)
(2764.5 -3.90406e-11 1.59854e-15)
(2764.5 -2.93401e-11 1.15523e-15)
(2764.5 -1.47307e-11 2.66303e-15)
(2764.5 -8.52185e-14 2.9246e-15)
(2764.5 1.73488e-12 2.4881e-15)
(2764.5 2.21715e-12 2.49615e-15)
(2764.5 4.68405e-12 7.86599e-16)
(2764.5 5.40129e-12 1.07208e-15)
(2764.5 6.44551e-12 2.62296e-15)
(2764.5 4.60863e-12 1.75491e-15)
(2764.5 -2.94268e-12 8.21868e-16)
(2764.5 -1.58235e-11 8.09491e-16)
(2764.5 -2.04755e-11 1.54944e-15)
(2764.5 -3.14321e-11 6.60984e-16)
(2764.5 -4.24349e-11 1.04692e-15)
(2764.5 -4.65994e-11 4.6208e-16)
(2764.5 -4.50922e-11 7.97906e-16)
(2764.5 -3.98113e-11 1.12295e-15)
(2764.5 -4.05915e-11 9.28267e-16)
(2764.5 -5.19042e-11 1.81172e-15)
(2764.5 -7.40302e-11 1.32137e-15)
(2764.5 -8.2471e-11 6.4046e-16)
(2764.5 -8.63307e-11 4.87137e-16)
(2764.5 -9.67471e-11 2.19671e-15)
(2764.5 -1.04692e-10 6.88891e-16)
(2764.5 -1.11206e-10 1.80126e-15)
(2764.5 -1.12246e-10 1.82176e-15)
(2764.5 -1.12008e-10 2.01247e-15)
(2764.5 -1.06243e-10 3.07839e-15)
(2764.5 -9.39871e-11 1.89613e-15)
(2764.5 -7.72788e-11 1.59286e-15)
(2764.5 -6.09507e-11 9.21939e-16)
(2764.5 -4.68795e-11 1.70707e-15)
(2764.5 -2.56141e-11 2.0468e-15)
(2764.5 -9.81754e-12 2.01784e-15)
(2764.5 5.29177e-12 1.60265e-15)
(2764.5 1.3092e-11 1.0727e-15)
(2764.5 2.4997e-11 1.02546e-15)
(2764.5 3.22779e-11 1.97114e-15)
(2764.5 3.22831e-11 1.318e-15)
(2764.5 2.93968e-11 7.46684e-16)
(2764.5 3.75859e-11 1.23401e-15)
(2764.5 3.62202e-11 4.02142e-16)
(2764.5 4.12828e-11 7.72707e-16)
(2764.5 3.26676e-11 1.14978e-15)
(2764.5 2.389e-11 5.46061e-16)
(2764.5 7.13318e-12 1.38027e-15)
(2764.5 -1.23148e-11 1.12181e-15)
(2764.5 -3.28682e-11 1.05268e-16)
(2764.5 -5.96277e-11 1.26067e-15)
(2764.5 -8.31628e-11 1.30036e-15)
(2764.5 -9.2307e-11 9.8052e-16)
(2764.5 -9.39751e-11 6.84191e-16)
(2764.5 -1.05381e-10 7.16221e-16)
(2764.5 -1.32572e-10 5.59438e-16)
(2764.5 -1.31623e-10 1.49174e-14)
(2764.5 -1.33847e-10 1.52764e-14)
(2764.5 -1.32506e-10 1.04654e-14)
(2764.5 -1.32438e-10 1.10172e-14)
(2764.5 -1.31603e-10 1.12359e-14)
(2764.5 -1.29187e-10 1.19166e-14)
(2764.5 -1.27758e-10 1.26553e-14)
(2764.5 -1.26639e-10 1.13415e-14)
(2764.5 -1.23784e-10 1.24918e-14)
(2764.5 -1.20285e-10 1.21592e-14)
(2764.5 -1.15444e-10 1.23755e-14)
(2764.5 -1.13735e-10 1.26736e-14)
(2764.5 -1.10269e-10 1.49466e-14)
(2764.5 -1.09108e-10 1.45571e-14)
(2764.5 -1.05331e-10 1.38091e-14)
(2764.5 -1.04614e-10 1.3913e-14)
(2764.5 -1.05544e-10 1.14334e-14)
(2764.5 -1.14082e-10 4.873e-15)
(2764.5 -1.13336e-10 4.15644e-15)
(2764.5 -1.14095e-10 8.44679e-15)
(2764.5 -1.11241e-10 8.85598e-15)
(2764.5 -1.15138e-10 8.03617e-15)
(2764.5 -1.15057e-10 9.46775e-15)
(2764.5 -1.11199e-10 7.31708e-15)
(2764.5 -1.13294e-10 8.46594e-15)
(2764.5 -1.11989e-10 9.30278e-15)
(2764.5 -1.12763e-10 7.02726e-15)
(2764.5 -1.1472e-10 5.25191e-15)
(2764.5 -1.16765e-10 7.18684e-15)
(2764.5 -1.20219e-10 7.20117e-15)
(2764.5 -1.2005e-10 6.17565e-15)
(2764.5 -1.15827e-10 4.62648e-15)
(2764.5 -1.11852e-10 5.59808e-15)
(2764.5 -1.0833e-10 8.02015e-15)
(2764.5 -1.05262e-10 4.26303e-15)
(2764.5 -1.0257e-10 7.83971e-15)
(2764.5 -9.88992e-11 8.1818e-15)
(2764.5 -9.59634e-11 9.0932e-15)
(2764.5 -9.96263e-11 9.41513e-15)
(2764.5 -1.02585e-10 9.19477e-15)
(2764.5 -1.02876e-10 8.88802e-15)
(2764.5 -1.09064e-10 8.53436e-15)
(2764.5 -1.13341e-10 8.0533e-15)
(2764.5 -1.11159e-10 7.85257e-15)
(2764.5 -1.12328e-10 7.59706e-15)
(2764.5 -1.11768e-10 7.59662e-15)
(2764.5 -1.0754e-10 7.47022e-15)
(2764.5 -1.03716e-10 6.5842e-15)
(2764.5 -1.03762e-10 9.12969e-15)
(2764.5 -9.96469e-11 9.01074e-15)
(2764.5 -1.02619e-10 6.74634e-15)
(2764.5 -1.01549e-10 5.67666e-15)
(2764.5 -1.03388e-10 6.77213e-15)
(2764.5 -1.03498e-10 8.27369e-15)
(2764.5 -1.03949e-10 5.98749e-15)
(2764.5 -1.05064e-10 7.54837e-15)
(2764.5 -1.07313e-10 8.70323e-15)
(2764.5 -1.09383e-10 8.82998e-15)
(2764.5 -1.12951e-10 9.13523e-15)
(2764.5 -1.20038e-10 7.54168e-15)
(2764.5 -1.19329e-10 7.87918e-15)
(2764.5 -1.11155e-10 9.95319e-15)
(2764.5 -1.09687e-10 1.0949e-14)
(2764.5 -1.0572e-10 5.06935e-15)
(2764.5 -9.84039e-11 5.02351e-15)
(2764.5 -8.91089e-11 6.4493e-15)
(2764.5 -8.82065e-11 4.59725e-15)
(2764.5 -9.04082e-11 7.58756e-15)
(2764.5 -8.73909e-11 7.16942e-15)
(2764.5 -9.43523e-11 6.8176e-15)
(2764.5 -9.79575e-11 6.65969e-15)
(2764.5 -1.01096e-10 4.50091e-15)
(2764.5 -9.72424e-11 4.53842e-15)
(2764.5 -9.71696e-11 6.41553e-15)
(2764.5 -1.04044e-10 7.00613e-15)
(2764.5 -1.10709e-10 8.91491e-15)
(2764.5 -1.0974e-10 6.86839e-15)
(2764.5 -1.06056e-10 5.78658e-15)
(2764.5 -1.03992e-10 6.16106e-15)
(2764.5 -1.05705e-10 6.0916e-15)
(2764.5 -1.08642e-10 5.58932e-15)
(2764.5 -1.21482e-10 7.91119e-15)
(2764.5 -1.28643e-10 8.3633e-15)
(2764.5 -1.32032e-10 6.71984e-15)
(2764.5 -1.27803e-10 6.08437e-15)
(2764.5 -1.25713e-10 7.75416e-15)
(2764.5 -1.26745e-10 6.57047e-15)
(2764.5 -1.29451e-10 6.2962e-15)
(2764.5 -1.2788e-10 5.9805e-15)
(2764.5 -1.24322e-10 5.55059e-15)
(2764.5 -1.16349e-10 5.86686e-15)
(2764.5 -1.10393e-10 8.80657e-15)
(2764.5 -1.09321e-10 8.50312e-15)
(2764.5 -1.13497e-10 5.85145e-15)
(2764.5 -1.10782e-10 4.61027e-15)
(2764.5 -1.11982e-10 4.95194e-15)
(2764.5 -1.09838e-10 4.12817e-15)
(2764.5 -1.07551e-10 2.30179e-15)
(2764.5 -1.12425e-10 2.79844e-15)
(2764.5 -1.17942e-10 4.92951e-15)
(2764.5 -1.20878e-10 6.9049e-15)
(2764.5 -1.14266e-10 6.9767e-15)
(2764.5 -1.142e-10 6.41739e-15)
(2764.5 -1.16144e-10 5.70854e-15)
(2764.5 -1.15072e-10 6.01705e-15)
(2764.5 -1.14935e-10 7.07853e-15)
(2764.5 -1.23018e-10 7.68573e-15)
(2764.5 -1.24853e-10 8.4157e-15)
(2764.5 -1.24389e-10 7.26736e-15)
(2764.5 -1.20476e-10 7.03848e-15)
(2764.5 -1.17827e-10 5.36369e-15)
(2764.5 -1.21513e-10 3.38018e-15)
(2764.5 -1.24423e-10 4.99012e-15)
(2764.5 -1.27435e-10 4.05207e-15)
(2764.5 -1.23121e-10 4.4996e-15)
(2764.5 -1.10678e-10 8.10506e-15)
(2764.5 -9.99676e-11 5.19405e-15)
(2764.5 -9.11003e-11 6.48919e-15)
(2764.5 -9.15625e-11 4.50797e-15)
(2764.5 -8.40204e-11 5.18911e-15)
(2764.5 -7.90809e-11 6.0114e-15)
(2764.5 -8.22176e-11 5.76213e-15)
(2764.5 -7.61782e-11 4.69266e-15)
(2764.5 -7.52244e-11 4.5887e-15)
(2764.5 -7.99256e-11 5.8971e-15)
(2764.5 -8.67322e-11 5.52763e-15)
(2764.5 -1.02557e-10 5.42188e-15)
(2764.5 -1.04203e-10 7.5394e-15)
(2764.5 -1.10911e-10 7.95134e-15)
(2764.5 -1.15368e-10 4.73143e-15)
(2764.5 -1.19495e-10 5.08066e-15)
(2764.5 -1.20991e-10 5.70876e-15)
(2764.5 -1.26496e-10 3.8395e-15)
(2764.5 -1.39469e-10 6.42945e-15)
(2764.5 -1.41496e-10 8.33086e-15)
(2764.5 -1.41557e-10 5.99616e-15)
(2764.5 -1.42998e-10 6.44853e-15)
(2764.5 -1.38393e-10 4.35779e-15)
(2764.5 -1.35294e-10 7.93039e-16)
(2764.5 -1.2623e-10 8.33984e-15)
(2764.5 -1.28197e-10 7.3234e-15)
(2764.5 -1.24219e-10 4.59717e-15)
(2764.5 -1.16467e-10 4.6146e-15)
(2764.5 -1.03189e-10 4.62085e-15)
(2764.5 -9.18294e-11 4.17298e-15)
(2764.5 -7.70486e-11 3.74027e-15)
(2764.5 -6.2169e-11 4.21134e-15)
(2764.5 -5.10092e-11 6.09647e-15)
(2764.5 -3.41597e-11 3.75968e-15)
(2764.5 -3.06728e-11 4.1908e-15)
(2764.5 -3.08589e-11 4.30216e-15)
(2764.5 -3.9453e-11 4.66573e-15)
(2764.5 -5.54591e-11 6.17654e-15)
(2764.5 -6.14415e-11 3.68538e-15)
(2764.5 -8.18446e-11 3.48032e-15)
(2764.5 -1.01211e-10 2.77714e-15)
(2764.5 -1.21675e-10 4.15707e-15)
(2764.5 -1.36838e-10 4.64282e-15)
(2764.5 -1.39457e-10 4.93908e-15)
(2764.5 -1.40259e-10 4.94587e-15)
(2764.5 -1.47593e-10 5.0407e-15)
(2764.5 -1.6185e-10 5.0257e-15)
(2764.5 -1.67468e-10 5.83308e-15)
(2764.5 -1.74778e-10 4.25665e-15)
(2764.5 -1.7961e-10 5.22028e-15)
(2764.5 -1.74291e-10 4.69453e-15)
(2764.5 -1.74714e-10 3.71188e-15)
(2764.5 -1.9095e-10 4.36425e-15)
(2764.5 -1.80251e-10 4.13737e-15)
(2764.5 -1.90832e-10 5.88425e-15)
(2764.5 -1.9213e-10 6.48772e-15)
(2764.5 -1.86499e-10 6.44114e-15)
(2764.5 -1.7963e-10 6.58344e-15)
(2764.5 -1.53758e-10 5.86542e-15)
(2764.5 -1.18429e-10 5.90741e-15)
(2764.5 -7.44913e-11 6.60573e-15)
(2764.5 -5.62992e-11 4.92104e-15)
(2764.5 -2.58592e-11 5.58699e-15)
(2764.5 2.23718e-12 4.32381e-15)
(2764.5 1.47348e-11 4.58746e-15)
(2764.5 3.02645e-11 5.55737e-15)
(2764.5 4.12092e-11 3.67995e-15)
(2764.5 5.90952e-11 4.2834e-15)
(2764.5 4.32625e-11 5.03526e-15)
(2764.5 3.37442e-11 6.08637e-15)
(2764.5 3.39358e-11 5.13098e-15)
(2764.5 3.777e-11 4.63592e-15)
(2764.5 2.19206e-11 5.99168e-15)
(2764.5 -1.28313e-11 8.42434e-16)
(2764.5 -2.33261e-11 2.51296e-15)
(2764.5 -4.15163e-11 3.01593e-15)
(2764.5 -5.14085e-11 2.13558e-15)
(2764.5 -6.74858e-11 2.93011e-15)
(2764.5 -9.43274e-11 2.96288e-15)
(2764.5 -1.32448e-10 2.81491e-15)
(2764.5 -1.54618e-10 2.40564e-15)
(2764.5 -2.0437e-10 2.98718e-15)
(2764.5 -2.32866e-10 3.4517e-15)
(2764.5 -2.68963e-10 3.93927e-15)
(2764.5 -2.82183e-10 3.65936e-15)
(2764.5 -2.91669e-10 4.87367e-15)
(2764.5 -2.87459e-10 3.13039e-15)
(2764.5 -2.86641e-10 1.47321e-15)
(2764.5 -2.81807e-10 4.33733e-15)
(2764.5 -2.70852e-10 5.66618e-15)
(2764.5 -2.82542e-10 7.05689e-15)
(2764.5 -2.53767e-10 7.13615e-15)
(2764.5 -2.37739e-10 6.17841e-15)
(2764.5 -2.08705e-10 5.41285e-15)
(2764.5 -1.42522e-10 5.34499e-15)
(2764.5 -1.9539e-10 1.67129e-14)
(2764.5 -1.97012e-10 2.16032e-14)
(2764.5 -1.94923e-10 2.04695e-14)
(2764.5 -1.93498e-10 2.00539e-14)
(2764.5 -1.94891e-10 2.41091e-14)
(2764.5 -1.9837e-10 2.175e-14)
(2764.5 -2.0018e-10 1.82464e-14)
(2764.5 -2.06814e-10 1.90948e-14)
(2764.5 -2.15877e-10 2.35101e-14)
(2764.5 -2.23853e-10 2.24319e-14)
(2764.5 -2.34973e-10 2.05088e-14)
(2764.5 -2.384e-10 2.1256e-14)
(2764.5 -2.39923e-10 1.92089e-14)
(2764.5 -2.402e-10 1.84643e-14)
(2764.5 -2.39486e-10 2.18494e-14)
(2764.5 -2.36054e-10 2.08449e-14)
(2764.5 -1.93918e-10 1.32548e-14)
(2764.5 -1.94636e-10 1.33747e-14)
(2764.5 -1.9397e-10 1.37747e-14)
(2764.5 -1.90631e-10 1.38928e-14)
(2764.5 -1.88172e-10 1.48338e-14)
(2764.5 -1.9261e-10 1.29597e-14)
(2764.5 -1.86224e-10 1.18939e-14)
(2764.5 -1.83968e-10 1.56683e-14)
(2764.5 -1.83615e-10 1.39914e-14)
(2764.5 -1.85205e-10 1.1903e-14)
(2764.5 -1.82886e-10 1.47058e-14)
(2764.5 -1.88145e-10 1.28145e-14)
(2764.5 -1.91552e-10 1.40675e-14)
(2764.5 -1.96396e-10 1.32836e-14)
(2764.5 -2.00119e-10 1.1286e-14)
(2764.5 -1.99662e-10 1.15554e-14)
(2764.5 -1.96069e-10 1.13763e-14)
(2764.5 -1.91652e-10 1.3218e-14)
(2764.5 -1.89357e-10 1.34643e-14)
(2764.5 -1.86006e-10 1.14282e-14)
(2764.5 -1.83e-10 1.3164e-14)
(2764.5 -1.7687e-10 1.35805e-14)
(2764.5 -1.76272e-10 1.23212e-14)
(2764.5 -1.73204e-10 1.24666e-14)
(2764.5 -1.74301e-10 1.31269e-14)
(2764.5 -1.77052e-10 1.24313e-14)
(2764.5 -1.84324e-10 1.29447e-14)
(2764.5 -1.88126e-10 1.28234e-14)
(2764.5 -1.95764e-10 1.21297e-14)
(2764.5 -1.97935e-10 1.23637e-14)
(2764.5 -1.96527e-10 1.16813e-14)
(2764.5 -1.93116e-10 1.20437e-14)
(2764.5 -1.9011e-10 1.23802e-14)
(2764.5 -1.83847e-10 1.17648e-14)
(2764.5 -1.82712e-10 1.18424e-14)
(2764.5 -1.81286e-10 1.37246e-14)
(2764.5 -1.803e-10 1.13369e-14)
(2764.5 -1.79044e-10 1.11999e-14)
(2764.5 -1.78569e-10 1.33317e-14)
(2764.5 -1.79762e-10 1.2424e-14)
(2764.5 -1.8722e-10 1.28399e-14)
(2764.5 -1.885e-10 1.44664e-14)
(2764.5 -1.94113e-10 1.19859e-14)
(2764.5 -2.00609e-10 1.24704e-14)
(2764.5 -2.00691e-10 1.11273e-14)
(2764.5 -1.99143e-10 1.1652e-14)
(2764.5 -1.98941e-10 1.25655e-14)
(2764.5 -1.97639e-10 1.36672e-14)
(2764.5 -1.8974e-10 1.21465e-14)
(2764.5 -1.82098e-10 1.07661e-14)
(2764.5 -1.76116e-10 1.08217e-14)
(2764.5 -1.7026e-10 1.06134e-14)
(2764.5 -1.6298e-10 1.02943e-14)
(2764.5 -1.62603e-10 9.05301e-15)
(2764.5 -1.58031e-10 8.80953e-15)
(2764.5 -1.66151e-10 1.3284e-14)
(2764.5 -1.6501e-10 9.48878e-15)
(2764.5 -1.63257e-10 1.08176e-14)
(2764.5 -1.68015e-10 1.17912e-14)
(2764.5 -1.76669e-10 1.13656e-14)
(2764.5 -1.76499e-10 1.14188e-14)
(2764.5 -1.78359e-10 1.10827e-14)
(2764.5 -1.73412e-10 1.24113e-14)
(2764.5 -1.69791e-10 1.22013e-14)
(2764.5 -1.69816e-10 1.00029e-14)
(2764.5 -1.72572e-10 8.19658e-15)
(2764.5 -1.85067e-10 1.30842e-14)
(2764.5 -2.01644e-10 1.08676e-14)
(2764.5 -2.06881e-10 1.01599e-14)
(2764.5 -2.02817e-10 1.31847e-14)
(2764.5 -2.03786e-10 9.45984e-15)
(2764.5 -2.05617e-10 9.44721e-15)
(2764.5 -2.07144e-10 1.15386e-14)
(2764.5 -2.06087e-10 1.26274e-14)
(2764.5 -1.91549e-10 9.26082e-15)
(2764.5 -1.82898e-10 8.13117e-15)
(2764.5 -1.8198e-10 1.15663e-14)
(2764.5 -1.81646e-10 9.85324e-15)
(2764.5 -1.81646e-10 9.15696e-15)
(2764.5 -1.84681e-10 7.00079e-15)
(2764.5 -1.8175e-10 7.90195e-15)
(2764.5 -1.85828e-10 9.7582e-15)
(2764.5 -1.90775e-10 1.14219e-14)
(2764.5 -2.03422e-10 1.01305e-14)
(2764.5 -2.04171e-10 9.76532e-15)
(2764.5 -2.01508e-10 1.04758e-14)
(2764.5 -1.98944e-10 9.21689e-15)
(2764.5 -1.98226e-10 8.04557e-15)
(2764.5 -1.98699e-10 7.8896e-15)
(2764.5 -2.01223e-10 8.91351e-15)
(2764.5 -2.02123e-10 1.13246e-14)
(2764.5 -2.01039e-10 9.39278e-15)
(2764.5 -1.98091e-10 9.4654e-15)
(2764.5 -1.92872e-10 9.56322e-15)
(2764.5 -1.84243e-10 9.45386e-15)
(2764.5 -1.73805e-10 8.46045e-15)
(2764.5 -1.73912e-10 8.2498e-15)
(2764.5 -1.79736e-10 1.07419e-14)
(2764.5 -1.83256e-10 9.54251e-15)
(2764.5 -1.81e-10 7.74761e-15)
(2764.5 -1.77945e-10 8.93692e-15)
(2764.5 -1.74708e-10 8.66814e-15)
(2764.5 -1.7485e-10 7.53897e-15)
(2764.5 -1.69709e-10 9.23317e-15)
(2764.5 -1.69075e-10 1.0697e-14)
(2764.5 -1.7962e-10 8.03513e-15)
(2764.5 -1.81183e-10 6.10532e-15)
(2764.5 -1.78565e-10 9.87629e-15)
(2764.5 -1.70877e-10 8.67753e-15)
(2764.5 -1.74093e-10 9.70233e-15)
(2764.5 -1.90729e-10 1.12743e-14)
(2764.5 -1.99453e-10 1.13708e-14)
(2764.5 -2.06048e-10 9.01805e-15)
(2764.5 -2.06557e-10 9.77539e-15)
(2764.5 -2.04104e-10 9.68701e-15)
(2764.5 -2.00931e-10 9.66069e-15)
(2764.5 -1.99372e-10 9.85315e-15)
(2764.5 -1.93588e-10 1.08144e-14)
(2764.5 -1.89032e-10 1.02327e-14)
(2764.5 -1.76505e-10 1.04711e-14)
(2764.5 -1.56332e-10 1.02177e-14)
(2764.5 -1.40253e-10 8.38933e-15)
(2764.5 -1.24993e-10 1.00855e-14)
(2764.5 -1.20036e-10 8.05779e-15)
(2764.5 -1.2293e-10 7.84397e-15)
(2764.5 -1.29248e-10 7.52858e-15)
(2764.5 -1.22764e-10 6.7304e-15)
(2764.5 -1.25349e-10 7.90332e-15)
(2764.5 -1.37064e-10 5.88911e-15)
(2764.5 -1.38376e-10 5.41562e-15)
(2764.5 -1.47994e-10 5.47544e-15)
(2764.5 -1.59893e-10 5.42935e-15)
(2764.5 -1.64868e-10 7.61291e-15)
(2764.5 -1.70179e-10 8.60006e-15)
(2764.5 -1.68079e-10 7.72247e-15)
(2764.5 -1.8024e-10 7.97454e-15)
(2764.5 -2.07894e-10 9.038e-15)
(2764.5 -2.38958e-10 7.62292e-15)
(2764.5 -2.64103e-10 1.06478e-14)
(2764.5 -2.83383e-10 9.70715e-15)
(2764.5 -2.95863e-10 9.01861e-15)
(2764.5 -2.97954e-10 8.83385e-15)
(2764.5 -2.90601e-10 9.41847e-15)
(2764.5 -2.76046e-10 9.13758e-15)
(2764.5 -2.56747e-10 8.93816e-15)
(2764.5 -2.43852e-10 8.40551e-15)
(2764.5 -2.34812e-10 9.79498e-15)
(2764.5 -2.09927e-10 1.05997e-14)
(2764.5 -1.77229e-10 1.02325e-14)
(2764.5 -1.40174e-10 8.88005e-15)
(2764.5 -1.09604e-10 9.85269e-15)
(2764.5 -6.49284e-11 8.95642e-15)
(2764.5 -2.33352e-11 1.00812e-14)
(2764.5 -4.69828e-12 8.59649e-15)
(2764.5 -6.50262e-12 8.10245e-15)
(2764.5 -2.10238e-11 9.08888e-15)
(2764.5 -3.5042e-11 8.98861e-15)
(2764.5 -3.39505e-11 9.82073e-15)
(2764.5 -2.28131e-11 8.51004e-15)
(2764.5 -8.8628e-12 7.71891e-15)
(2764.5 -3.01933e-11 7.94666e-15)
(2764.5 -4.50065e-11 4.50091e-15)
(2764.5 -6.56255e-11 2.95301e-15)
(2764.5 -8.05635e-11 3.51401e-15)
(2764.5 -1.22796e-10 5.04038e-15)
(2764.5 -1.70169e-10 5.57301e-15)
(2764.5 -2.16171e-10 6.12931e-15)
(2764.5 -2.42913e-10 3.5647e-15)
(2764.5 -2.92751e-10 7.84939e-15)
(2764.5 -3.49655e-10 8.30659e-15)
(2764.5 -3.95049e-10 5.51508e-15)
(2764.5 -4.13296e-10 7.26045e-15)
(2764.5 -4.45185e-10 8.5197e-15)
(2764.5 -4.73246e-10 7.27142e-15)
(2764.5 -4.69628e-10 6.30285e-15)
(2764.5 -4.70298e-10 5.94616e-15)
(2764.5 -4.47899e-10 7.07659e-15)
(2764.5 -4.07286e-10 8.48008e-15)
(2764.5 -3.48176e-10 6.67478e-15)
(2764.5 -3.11497e-10 5.75409e-15)
(2764.5 -2.64643e-10 7.34176e-15)
(2764.5 -2.155e-10 7.4047e-15)
(2764.5 -1.70712e-10 8.09316e-15)
(2764.5 -1.05506e-10 9.02656e-15)
(2764.5 -4.06176e-11 8.49528e-15)
(2764.5 1.65377e-11 9.86973e-15)
(2764.5 6.79807e-11 8.91607e-15)
(2764.5 1.20281e-10 6.52674e-15)
(2764.5 1.58518e-10 9.58252e-15)
(2764.5 1.79531e-10 8.26007e-15)
(2764.5 1.62333e-10 6.93202e-15)
(2764.5 1.82255e-10 7.61819e-15)
(2764.5 1.73713e-10 7.64165e-15)
(2764.5 -3.00424e-10 2.81937e-14)
(2764.5 -3.02132e-10 2.6423e-14)
(2764.5 -3.0319e-10 2.59068e-14)
(2764.5 -2.99024e-10 2.9093e-14)
(2764.5 -2.92621e-10 2.91234e-14)
(2764.5 -2.82643e-10 2.31235e-14)
(2764.5 -2.71897e-10 2.51839e-14)
(2764.5 -2.50484e-10 2.66299e-14)
(2764.5 -2.30892e-10 2.51026e-14)
(2764.5 -2.20932e-10 2.60008e-14)
(2764.5 -2.17047e-10 3.07286e-14)
(2764.5 -2.19461e-10 2.94769e-14)
(2764.5 -2.25847e-10 2.59691e-14)
(2764.5 -2.35254e-10 2.45818e-14)
(2764.5 -2.55376e-10 2.65485e-14)
(2764.5 -2.71267e-10 2.673e-14)
(2764.5 -2.63765e-10 1.75945e-14)
(2764.5 -2.65186e-10 1.73224e-14)
(2764.5 -2.68872e-10 1.7732e-14)
(2764.5 -2.67211e-10 1.76385e-14)
(2764.5 -2.6448e-10 1.97013e-14)
(2764.5 -2.62157e-10 1.97035e-14)
(2764.5 -2.67148e-10 1.82935e-14)
(2764.5 -2.62338e-10 1.8728e-14)
(2764.5 -2.56437e-10 2.06581e-14)
(2764.5 -2.53975e-10 2.06949e-14)
(2764.5 -2.499e-10 1.77044e-14)
(2764.5 -2.51129e-10 1.96198e-14)
(2764.5 -2.50808e-10 1.73441e-14)
(2764.5 -2.52822e-10 1.59553e-14)
(2764.5 -2.60809e-10 1.80305e-14)
(2764.5 -2.62176e-10 1.70518e-14)
(2764.5 -2.6482e-10 1.65651e-14)
(2764.5 -2.66909e-10 1.54912e-14)
(2764.5 -2.66674e-10 1.44079e-14)
(2764.5 -2.6831e-10 1.61717e-14)
(2764.5 -2.69481e-10 1.8224e-14)
(2764.5 -2.68229e-10 1.91701e-14)
(2764.5 -2.60416e-10 1.91172e-14)
(2764.5 -2.50622e-10 1.76542e-14)
(2764.5 -2.45185e-10 1.65076e-14)
(2764.5 -2.42395e-10 1.65419e-14)
(2764.5 -2.40747e-10 1.78074e-14)
(2764.5 -2.40392e-10 1.57323e-14)
(2764.5 -2.41627e-10 2.00243e-14)
(2764.5 -2.51137e-10 1.91632e-14)
(2764.5 -2.603e-10 1.49234e-14)
(2764.5 -2.66142e-10 1.70358e-14)
(2764.5 -2.70917e-10 1.57266e-14)
(2764.5 -2.76859e-10 1.54688e-14)
(2764.5 -2.73484e-10 1.69289e-14)
(2764.5 -2.7236e-10 1.6538e-14)
(2764.5 -2.71666e-10 1.72189e-14)
(2764.5 -2.68875e-10 1.8907e-14)
(2764.5 -2.64394e-10 1.7422e-14)
(2764.5 -2.58006e-10 1.50358e-14)
(2764.5 -2.58856e-10 1.76957e-14)
(2764.5 -2.59746e-10 1.612e-14)
(2764.5 -2.65307e-10 1.60411e-14)
(2764.5 -2.69256e-10 1.81605e-14)
(2764.5 -2.77923e-10 1.78658e-14)
(2764.5 -2.83696e-10 1.79936e-14)
(2764.5 -2.85235e-10 1.74189e-14)
(2764.5 -2.87292e-10 1.66284e-14)
(2764.5 -2.90524e-10 1.72637e-14)
(2764.5 -2.8882e-10 1.4942e-14)
(2764.5 -2.82045e-10 1.31694e-14)
(2764.5 -2.73577e-10 1.66228e-14)
(2764.5 -2.64733e-10 1.6046e-14)
(2764.5 -2.58901e-10 1.58552e-14)
(2764.5 -2.5531e-10 1.62719e-14)
(2764.5 -2.565e-10 1.66843e-14)
(2764.5 -2.49502e-10 1.49042e-14)
(2764.5 -2.52554e-10 1.47285e-14)
(2764.5 -2.42136e-10 1.58225e-14)
(2764.5 -2.47687e-10 1.56502e-14)
(2764.5 -2.46169e-10 1.73875e-14)
(2764.5 -2.44909e-10 1.59467e-14)
(2764.5 -2.42998e-10 1.55244e-14)
(2764.5 -2.39135e-10 1.58865e-14)
(2764.5 -2.25904e-10 1.32247e-14)
(2764.5 -2.16368e-10 1.26088e-14)
(2764.5 -2.05478e-10 1.67345e-14)
(2764.5 -2.02047e-10 1.52567e-14)
(2764.5 -2.10438e-10 1.591e-14)
(2764.5 -2.25395e-10 1.5667e-14)
(2764.5 -2.41592e-10 1.52847e-14)
(2764.5 -2.49507e-10 1.51256e-14)
(2764.5 -2.62928e-10 1.56255e-14)
(2764.5 -2.75802e-10 1.47248e-14)
(2764.5 -2.87043e-10 1.49128e-14)
(2764.5 -2.8393e-10 1.43906e-14)
(2764.5 -2.74625e-10 1.55262e-14)
(2764.5 -2.71835e-10 1.49756e-14)
(2764.5 -2.64188e-10 1.54458e-14)
(2764.5 -2.62072e-10 1.43455e-14)
(2764.5 -2.516e-10 1.72298e-14)
(2764.5 -2.44442e-10 1.58243e-14)
(2764.5 -2.42569e-10 1.49326e-14)
(2764.5 -2.41387e-10 1.3008e-14)
(2764.5 -2.53128e-10 1.60365e-14)
(2764.5 -2.54784e-10 1.52104e-14)
(2764.5 -2.51449e-10 1.47361e-14)
(2764.5 -2.41929e-10 1.33611e-14)
(2764.5 -2.38264e-10 1.22983e-14)
(2764.5 -2.39799e-10 1.40949e-14)
(2764.5 -2.40501e-10 1.43701e-14)
(2764.5 -2.44496e-10 1.22636e-14)
(2764.5 -2.47141e-10 1.38118e-14)
(2764.5 -2.58227e-10 1.39822e-14)
(2764.5 -2.62335e-10 1.28438e-14)
(2764.5 -2.58739e-10 1.19176e-14)
(2764.5 -2.6124e-10 1.24138e-14)
(2764.5 -2.65159e-10 1.31985e-14)
(2764.5 -2.74038e-10 1.29734e-14)
(2764.5 -2.82361e-10 1.31034e-14)
(2764.5 -2.93502e-10 1.31327e-14)
(2764.5 -2.97791e-10 1.20683e-14)
(2764.5 -2.99784e-10 1.37226e-14)
(2764.5 -3.01727e-10 1.53842e-14)
(2764.5 -2.87975e-10 1.30263e-14)
(2764.5 -2.7992e-10 1.29539e-14)
(2764.5 -2.7224e-10 1.32321e-14)
(2764.5 -2.53042e-10 1.47651e-14)
(2764.5 -2.37507e-10 1.40619e-14)
(2764.5 -2.25027e-10 1.06902e-14)
(2764.5 -2.037e-10 1.28042e-14)
(2764.5 -1.91523e-10 1.66174e-14)
(2764.5 -1.8217e-10 1.33174e-14)
(2764.5 -1.80841e-10 1.34959e-14)
(2764.5 -1.77859e-10 1.24864e-14)
(2764.5 -1.74431e-10 1.1131e-14)
(2764.5 -1.73803e-10 1.21932e-14)
(2764.5 -1.8057e-10 1.21579e-14)
(2764.5 -1.89289e-10 1.24014e-14)
(2764.5 -2.03723e-10 1.60108e-14)
(2764.5 -2.24217e-10 1.419e-14)
(2764.5 -2.45934e-10 1.07389e-14)
(2764.5 -2.5822e-10 1.259e-14)
(2764.5 -2.60995e-10 1.22919e-14)
(2764.5 -2.63324e-10 1.21422e-14)
(2764.5 -2.73096e-10 1.22902e-14)
(2764.5 -2.94068e-10 1.10527e-14)
(2764.5 -3.04614e-10 9.83106e-15)
(2764.5 -3.27259e-10 1.23155e-14)
(2764.5 -3.42052e-10 1.20134e-14)
(2764.5 -3.35753e-10 1.14479e-14)
(2764.5 -3.4223e-10 1.14238e-14)
(2764.5 -3.231e-10 9.98912e-15)
(2764.5 -2.90048e-10 1.03893e-14)
(2764.5 -2.63831e-10 1.09238e-14)
(2764.5 -2.39501e-10 1.06108e-14)
(2764.5 -1.9926e-10 1.24794e-14)
(2764.5 -1.79661e-10 1.38124e-14)
(2764.5 -1.62932e-10 1.37725e-14)
(2764.5 -1.6266e-10 1.17797e-14)
(2764.5 -1.61196e-10 1.02463e-14)
(2764.5 -1.55835e-10 1.07591e-14)
(2764.5 -1.46962e-10 1.135e-14)
(2764.5 -1.35123e-10 1.12803e-14)
(2764.5 -1.31984e-10 1.04197e-14)
(2764.5 -1.14067e-10 1.19714e-14)
(2764.5 -1.10692e-10 1.1837e-14)
(2764.5 -1.21512e-10 1.13918e-14)
(2764.5 -1.21235e-10 1.10096e-14)
(2764.5 -1.32426e-10 1.00299e-14)
(2764.5 -1.40383e-10 1.06894e-14)
(2764.5 -1.6817e-10 8.70982e-15)
(2764.5 -1.81034e-10 8.78751e-15)
(2764.5 -2.00226e-10 8.23621e-15)
(2764.5 -2.24257e-10 8.41359e-15)
(2764.5 -2.46216e-10 7.87748e-15)
(2764.5 -3.02038e-10 7.88978e-15)
(2764.5 -3.45935e-10 9.76936e-15)
(2764.5 -3.91407e-10 9.5447e-15)
(2764.5 -4.15014e-10 9.48805e-15)
(2764.5 -4.36613e-10 1.12862e-14)
(2764.5 -4.58714e-10 1.01723e-14)
(2764.5 -4.60345e-10 1.07659e-14)
(2764.5 -4.51277e-10 8.79734e-15)
(2764.5 -4.28761e-10 9.7049e-15)
(2764.5 -4.06219e-10 9.44416e-15)
(2764.5 -3.80555e-10 1.026e-14)
(2764.5 -3.65085e-10 8.7031e-15)
(2764.5 -3.19052e-10 9.74821e-15)
(2764.5 -2.89721e-10 7.15846e-15)
(2764.5 -2.50741e-10 1.31719e-14)
(2764.5 -1.96621e-10 1.1028e-14)
(2764.5 -1.50775e-10 1.13706e-14)
(2764.5 -1.06287e-10 1.35383e-14)
(2764.5 -7.11663e-11 1.30807e-14)
(2764.5 -2.64217e-11 1.13515e-14)
(2764.5 9.94205e-12 1.24446e-14)
(2764.5 4.70604e-11 1.14841e-14)
(2764.5 9.0717e-11 1.12595e-14)
(2764.5 1.14618e-10 9.74895e-15)
(2764.5 1.26397e-10 1.02797e-14)
(2764.5 1.43819e-10 1.019e-14)
(2764.5 1.36044e-10 8.24871e-15)
(2764.5 1.14285e-10 9.5131e-15)
(2764.5 7.28461e-11 9.26793e-15)
(2764.5 4.4865e-11 9.02002e-15)
(2764.5 -7.02157e-12 7.47283e-15)
(2764.5 -5.75877e-11 7.15235e-15)
(2764.5 -1.21678e-10 7.73835e-15)
(2764.5 -1.89745e-10 7.88202e-15)
(2764.5 -2.85398e-10 8.51491e-15)
(2764.5 -3.5279e-10 8.22478e-15)
(2764.5 -4.65145e-10 7.38271e-15)
(2764.5 -3.33696e-10 3.31897e-14)
(2764.5 -3.38179e-10 3.41283e-14)
(2764.5 -3.49165e-10 3.68097e-14)
(2764.5 -3.73991e-10 3.90499e-14)
(2764.5 -3.9733e-10 3.48722e-14)
(2764.5 -4.22545e-10 3.45507e-14)
(2764.5 -4.47472e-10 3.87829e-14)
(2764.5 -4.87911e-10 3.84848e-14)
(2764.5 -5.01809e-10 3.7601e-14)
(2764.5 -5.03209e-10 3.9233e-14)
(2764.5 -4.85864e-10 4.06483e-14)
(2764.5 -4.56721e-10 3.58624e-14)
(2764.5 -4.26039e-10 3.66445e-14)
(2764.5 -3.70966e-10 3.27131e-14)
(2764.5 -3.13589e-10 3.18245e-14)
(2764.5 -3.36989e-10 2.6311e-14)
(2764.5 -3.34797e-10 2.40335e-14)
(2764.5 -3.39256e-10 2.23428e-14)
(2764.5 -3.43127e-10 2.14521e-14)
(2764.5 -3.46495e-10 2.33058e-14)
(2764.5 -3.43918e-10 2.19259e-14)
(2764.5 -3.42689e-10 2.21281e-14)
(2764.5 -3.43308e-10 2.46498e-14)
(2764.5 -3.44296e-10 2.42991e-14)
(2764.5 -3.44536e-10 2.53896e-14)
(2764.5 -3.37359e-10 2.51025e-14)