/*--------------------------------*- C++ -*----------------------------------*\
| =========                 |                                                 |
| \\      /  F ield         | OpenFOAM: The Open Source CFD Toolbox           |
|  \\    /   O peration     | Version:  v1706                                 |
|   \\  /    A nd           | Web:      www.OpenFOAM.com                      |
|    \\/     M anipulation  |                                                 |
\*---------------------------------------------------------------------------*/
FoamFile
{
    version     2.0;
    format      ascii;
    class       volScalarField;
    location    "1e-05";
    object      wallHeatFlux;
}
// * * * * * * * * * * * * * * * * * * * * * * * * * * * * * * * * * * * * * //

dimensions      [1 0 -3 0 0 0 0];


internalField   uniform 0;

boundaryField
{
    cone
    {
        type            calculated;
        value           nonuniform List<scalar> 
119
(
110953
112525
114142
115804
117511
119264
121062
122906
124795
126732
128715
130746
132825
134954
137134
139365
141648
143986
146378
148825
151329
153891
156511
159190
161929
164728
167588
170509
173493
176539
179647
182819
186054
189352
192714
196139
199628
203181
206797
210476
214218
218022
221889
225818
229809
233860
237973
242147
246382
250677
255032
259448
263925
268465
273068
277734
282465
287264
292132
297072
302087
307181
312357
317621
322975
328427
333980
339644
345424
351331
357371
363557
369898
376406
383095
389977
397068
404384
411942
419762
427863
436268
445000
454083
463546
473416
483728
494518
505826
517700
530195
543375
557312
572091
587809
604583
622552
641884
662785
685509
710367
737737
768056
801749
838970
878863
917846
946684
948277
901797
798173
655138
505352
373590
269474
192355
137972
104386
94468
)
;
    }
    inlet
    {
        type            calculated;
        value           uniform 0;
    }
    rWedge
    {
        type            wedge;
    }
    lWedge
    {
        type            wedge;
    }
    outlet
    {
        type            calculated;
        value           uniform 0;
    }
    procBoundary0to1
    {
        type            processor;
        value           uniform 0;
    }
    procBoundary0to2
    {
        type            processor;
        value           uniform 0;
    }
}


// ************************************************************************* //
