/*--------------------------------*- C++ -*----------------------------------*\
| =========                 |                                                 |
| \\      /  F ield         | OpenFOAM: The Open Source CFD Toolbox           |
|  \\    /   O peration     | Version:  v1706                                 |
|   \\  /    A nd           | Web:      www.OpenFOAM.com                      |
|    \\/     M anipulation  |                                                 |
\*---------------------------------------------------------------------------*/
FoamFile
{
    version     2.0;
    format      ascii;
    class       volScalarField;
    location    "6e-06";
    object      kappatr;
}
// * * * * * * * * * * * * * * * * * * * * * * * * * * * * * * * * * * * * * //

dimensions      [1 1 -3 -1 0 0 0];


internalField   nonuniform List<scalar> 
30104
(
0.014593
0.014593
0.014593
0.014593
0.014593
0.014593
0.014593
0.014593
0.014593
0.014593
0.014593
0.014593
0.014593
0.014593
0.014593
0.014593
0.014593
0.014593
0.014593
0.014593
0.014593
0.014593
0.014593
0.014593
0.014593
0.014593
0.014593
0.014593
0.014593
0.014593
0.014593
0.014593
0.014593
0.014593
0.014593
0.014593
0.014593
0.014593
0.014593
0.014593
0.014593
0.014593
0.014593
0.014593
0.014593
0.014593
0.014593
0.014593
0.014593
0.014593
0.014593
0.014593
0.014593
0.014593
0.014593
0.014593
0.014593
0.014593
0.014593
0.014593
0.014593
0.014593
0.014593
0.014593
0.014593
0.014593
0.014593
0.014593
0.014593
0.014593
0.014593
0.014593
0.014593
0.014593
0.014593
0.014593
0.014593
0.014593
0.014593
0.014593
0.014593
0.014593
0.014593
0.014593
0.014593
0.014593
0.014593
0.014593
0.014593
0.014593
0.014593
0.014593
0.014593
0.014593
0.014593
0.014593
0.014593
0.014593
0.014593
0.014593
0.014593
0.014593
0.014593
0.014593
0.014593
0.014593
0.014593
0.014593
0.014593
0.014593
0.014593
0.014593
0.014593
0.014593
0.014593
0.014593
0.014593
0.014593
0.014593
0.014593
0.014593
0.014593
0.014593
0.014593
0.014593
0.014593
0.014593
0.014593
0.014593
0.014593
0.014593
0.014593
0.014593
0.014593
0.014593
0.014593
0.014593
0.014593
0.014593
0.014593
0.014593
0.014593
0.014593
0.014593
0.014593
0.014593
0.014593
0.014593
0.014593
0.014593
0.014593
0.014593
0.014593
0.014593
0.014593
0.014593
0.014593
0.014593
0.014593
0.014593
0.014593
0.014593
0.014593
0.014593
0.014593
0.014593
0.014593
0.014593
0.014593
0.014593
0.014593
0.014593
0.014593
0.014593
0.014593
0.014593
0.014593
0.014593
0.014593
0.014593
0.014593
0.014593
0.014593
0.014593
0.014593
0.014593
0.014593
0.014593
0.014593
0.014593
0.014593
0.014593
0.014593
0.014593
0.014593
0.014593
0.014593
0.014593
0.014593
0.014593
0.014593
0.014593
0.014593
0.014593
0.014593
0.014593
0.014593
0.014593
0.014593
0.014593
0.014593
0.014593
0.014593
0.014593
0.014593
0.014593
0.014593
0.014593
0.014593
0.014593
0.014593
0.014593
0.014593
0.014593
0.014593
0.014593
0.014593
0.014593
0.014593
0.014593
0.014593
0.014593
0.014593
0.014593
0.014593
0.014593
0.014593
0.014593
0.014593
0.014593
0.014593
0.014593
0.014593
0.014593
0.014593
0.014593
0.014593
0.014593
0.014593
0.014593
0.014593
0.014593
0.014593
0.014593
0.014593
0.014593
0.014593
0.014593
0.014593
0.014593
0.014593
0.014593
0.014593
0.014593
0.014593
0.014593
0.014593
0.014593
0.014593
0.014593
0.014593
0.014593
0.014593
0.014593
0.014593
0.014593
0.014593
0.014593
0.014593
0.014593
0.014593
0.014593
0.014593
0.014593
0.014593
0.014593
0.014593
0.014593
0.014593
0.014593
0.014593
0.014593
0.014593
0.014593
0.014593
0.014593
0.014593
0.014593
0.014593
0.014593
0.014593
0.014593
0.014593
0.014593
0.014593
0.014593
0.014593
0.014593
0.014593
0.014593
0.014593
0.014593
0.014593
0.014593
0.014593
0.014593
0.014593
0.014593
0.014593
0.014593
0.014593
0.014593
0.014593
0.014593
0.014593
0.014593
0.014593
0.014593
0.014593
0.014593
0.014593
0.014593
0.014593
0.014593
0.014593
0.014593
0.014593
0.014593
0.014593
0.014593
0.014593
0.014593
0.014593
0.014593
0.014593
0.014593
0.014593
0.014593
0.014593
0.014593
0.014593
0.014593
0.014593
0.014593
0.014593
0.014593
0.014593
0.014593
0.014593
0.014593
0.014593
0.014593
0.014593
0.014593
0.014593
0.014593
0.014593
0.014593
0.014593
0.014593
0.014593
0.014593
0.014593
0.014593
0.014593
0.014593
0.014593
0.014593
0.014593
0.014593
0.014593
0.014593
0.014593
0.014593
0.014593
0.014593
0.014593
0.014593
0.014593
0.014593
0.014593
0.014593
0.014593
0.014593
0.014593
0.014593
0.014593
0.014593
0.014593
0.014593
0.014593
0.014593
0.014593
0.014593
0.014593
0.014593
0.014593
0.014593
0.014593
0.014593
0.014593
0.014593
0.014593
0.014593
0.014593
0.014593
0.014593
0.014593
0.014593
0.014593
0.014593
0.014593
0.014593
0.014593
0.014593
0.014593
0.014593
0.014593
0.014593
0.014593
0.014593
0.014593
0.014593
0.014593
0.014593
0.014593
0.014593
0.014593
0.014593
0.014593
0.014593
0.014593
0.014593
0.014593
0.014593
0.014593
0.014593
0.014593
0.014593
0.014593
0.014593
0.014593
0.014593
0.014593
0.014593
0.014593
0.014593
0.014593
0.014593
0.014593
0.014593
0.014593
0.014593
0.014593
0.014593
0.014593
0.014593
0.014593
0.014593
0.014593
0.014593
0.014593
0.014593
0.014593
0.014593
0.014593
0.014593
0.014593
0.014593
0.014593
0.014593
0.014593
0.014593
0.014593
0.014593
0.014593
0.014593
0.014593
0.014593
0.014593
0.014593
0.014593
0.014593
0.014593
0.014593
0.014593
0.014593
0.014593
0.014593
0.014593
0.014593
0.014593
0.014593
0.014593
0.014593
0.014593
0.014593
0.014593
0.014593
0.014593
0.014593
0.014593
0.014593
0.014593
0.014593
0.014593
0.014593
0.014593
0.014593
0.014593
0.014593
0.014593
0.014593
0.014593
0.014593
0.014593
0.014593
0.014593
0.014593
0.014593
0.014593
0.014593
0.014593
0.014593
0.014593
0.014593
0.014593
0.014593
0.014593
0.014593
0.014593
0.014593
0.014593
0.014593
0.014593
0.014593
0.014593
0.014593
0.014593
0.014593
0.014593
0.014593
0.014593
0.014593
0.014593
0.014593
0.014593
0.014593
0.014593
0.014593
0.014593
0.014593
0.014593
0.014593
0.014593
0.014593
0.014593
0.014593
0.014593
0.014593
0.014593
0.014593
0.014593
0.014593
0.014593
0.014593
0.014593
0.014593
0.014593
0.014593
0.014593
0.014593
0.014593
0.014593
0.014593
0.014593
0.014593
0.014593
0.014593
0.014593
0.014593
0.014593
0.014593
0.014593
0.014593
0.014593
0.014593
0.014593
0.014593
0.014593
0.014593
0.014593
0.014593
0.014593
0.014593
0.014593
0.014593
0.014593
0.014593
0.014593
0.014593
0.014593
0.014593
0.014593
0.014593
0.014593
0.014593
0.014593
0.014593
0.014593
0.014593
0.014593
0.014593
0.014593
0.014593
0.014593
0.014593
0.014593
0.014593
0.014593
0.014593
0.014593
0.014593
0.014593
0.014593
0.014593
0.014593
0.014593
0.014593
0.014593
0.014593
0.014593
0.014593
0.014593
0.014593
0.014593
0.014593
0.014593
0.014593
0.014593
0.014593
0.014593
0.014593
0.014593
0.014593
0.014593
0.014593
0.014593
0.014593
0.014593
0.014593
0.014593
0.014593
0.014593
0.014593
0.014593
0.014593
0.014593
0.014593
0.014593
0.014593
0.014593
0.014593
0.014593
0.014593
0.014593
0.014593
0.014593
0.014593
0.014593
0.014593
0.014593
0.014593
0.014593
0.014593
0.014593
0.014593
0.014593
0.014593
0.014593
0.014593
0.014593
0.014593
0.014593
0.014593
0.014593
0.014593
0.014593
0.014593
0.014593
0.014593
0.014593
0.014593
0.014593
0.014593
0.014593
0.014593
0.014593
0.014593
0.014593
0.014593
0.014593
0.014593
0.014593
0.014593
0.014593
0.014593
0.014593
0.014593
0.014593
0.014593
0.014593
0.014593
0.014593
0.014593
0.014593
0.014593
0.014593
0.014593
0.014593
0.014593
0.014593
0.014593
0.014593
0.014593
0.014593
0.014593
0.014593
0.014593
0.014593
0.014593
0.014593
0.014593
0.014593
0.014593
0.014593
0.014593
0.014593
0.014593
0.014593
0.014593
0.014593
0.014593
0.014593
0.014593
0.014593
0.014593
0.014593
0.014593
0.014593
0.014593
0.014593
0.014593
0.014593
0.014593
0.014593
0.014593
0.014593
0.014593
0.014593
0.014593
0.014593
0.014593
0.014593
0.014593
0.014593
0.014593
0.014593
0.014593
0.014593
0.014593
0.014593
0.014593
0.014593
0.014593
0.014593
0.014593
0.014593
0.014593
0.014593
0.014593
0.014593
0.014593
0.014593
0.014593
0.014593
0.014593
0.014593
0.014593
0.014593
0.014593
0.014593
0.014593
0.014593
0.014593
0.014593
0.014593
0.014593
0.014593
0.014593
0.014593
0.014593
0.014593
0.014593
0.014593
0.014593
0.014593
0.014593
0.014593
0.014593
0.014593
0.014593
0.014593
0.014593
0.014593
0.014593
0.014593
0.014593
0.014593
0.014593
0.014593
0.014593
0.014593
0.014593
0.014593
0.014593
0.014593
0.014593
0.014593
0.014593
0.014593
0.014593
0.014593
0.014593
0.014593
0.014593
0.014593
0.014593
0.014593
0.014593
0.014593
0.014593
0.014593
0.014593
0.014593
0.014593
0.014593
0.014593
0.014593
0.014593
0.014593
0.014593
0.014593
0.014593
0.014593
0.014593
0.014593
0.014593
0.014593
0.014593
0.014593
0.014593
0.014593
0.014593
0.014593
0.014593
0.014593
0.014593
0.014593
0.014593
0.014593
0.014593
0.014593
0.014593
0.014593
0.014593
0.014593
0.014593
0.014593
0.014593
0.014593
0.014593
0.014593
0.014593
0.014593
0.014593
0.014593
0.014593
0.014593
0.014593
0.014593
0.014593
0.014593
0.014593
0.014593
0.014593
0.014593
0.014593
0.014593
0.014593
0.014593
0.014593
0.014593
0.014593
0.014593
0.014593
0.014593
0.014593
0.014593
0.014593
0.014593
0.014593
0.014593
0.014593
0.014593
0.014593
0.014593
0.014593
0.014593
0.014593
0.014593
0.014593
0.014593
0.014593
0.014593
0.014593
0.014593
0.014593
0.014593
0.014593
0.014593
0.014593
0.014593
0.014593
0.014593
0.014593
0.014593
0.014593
0.014593
0.014593
0.014593
0.014593
0.014593
0.014593
0.014593
0.014593
0.014593
0.014593
0.014593
0.014593
0.014593
0.014593
0.014593
0.014593
0.014593
0.014593
0.014593
0.014593
0.014593
0.014593
0.014593
0.014593
0.014593
0.014593
0.014593
0.014593
0.014593
0.014593
0.014593
0.014593
0.014593
0.014593
0.014593
0.014593
0.014593
0.014593
0.014593
0.014593
0.014593
0.014593
0.014593
0.014593
0.014593
0.014593
0.014593
0.014593
0.014593
0.014593
0.014593
0.014593
0.014593
0.014593
0.014593
0.014593
0.014593
0.014593
0.014593
0.014593
0.014593
0.014593
0.014593
0.014593
0.014593
0.014593
0.014593
0.014593
0.014593
0.014593
0.014593
0.014593
0.014593
0.014593
0.014593
0.014593
0.014593
0.014593
0.014593
0.014593
0.014593
0.014593
0.014593
0.014593
0.014593
0.014593
0.014593
0.014593
0.014593
0.014593
0.014593
0.014593
0.014593
0.014593
0.014593
0.014593
0.014593
0.014593
0.014593
0.014593
0.014593
0.014593
0.014593
0.014593
0.014593
0.014593
0.014593
0.014593
0.014593
0.014593
0.014593
0.014593
0.014593
0.014593
0.014593
0.014593
0.014593
0.014593
0.014593
0.014593
0.014593
0.014593
0.014593
0.014593
0.014593
0.014593
0.014593
0.014593
0.014593
0.014593
0.014593
0.014593
0.014593
0.014593
0.014593
0.014593
0.014593
0.014593
0.014593
0.014593
0.014593
0.014593
0.014593
0.014593
0.014593
0.014593
0.014593
0.014593
0.014593
0.014593
0.014593
0.014593
0.014593
0.014593
0.014593
0.014593
0.014593
0.014593
0.014593
0.014593
0.014593
0.014593
0.014593
0.014593
0.014593
0.014593
0.014593
0.014593
0.014593
0.014593
0.014593
0.014593
0.014593
0.014593
0.014593
0.014593
0.014593
0.014593
0.014593
0.014593
0.014593
0.014593
0.014593
0.014593
0.014593
0.014593
0.014593
0.014593
0.014593
0.014593
0.014593
0.014593
0.014593
0.014593
0.014593
0.014593
0.014593
0.014593
0.014593
0.014593
0.014593
0.014593
0.014593
0.014593
0.014593
0.014593
0.014593
0.014593
0.014593
0.014593
0.014593
0.014593
0.014593
0.014593
0.014593
0.014593
0.014593
0.014593
0.014593
0.014593
0.014593
0.014593
0.014593
0.014593
0.014593
0.014593
0.014593
0.014593
0.014593
0.014593
0.014593
0.014593
0.014593
0.014593
0.014593
0.014593
0.014593
0.014593
0.014593
0.014593
0.014593
0.014593
0.014593
0.014593
0.014593
0.014593
0.014593
0.014593
0.014593
0.014593
0.014593
0.014593
0.014593
0.014593
0.014593
0.014593
0.014593
0.014593
0.014593
0.014593
0.014593
0.014593
0.014593
0.014593
0.014593
0.014593
0.014593
0.014593
0.014593
0.014593
0.014593
0.014593
0.014593
0.014593
0.014593
0.014593
0.014593
0.014593
0.014593
0.0145931
0.0145931
0.0145931
0.0145931
0.0145931
0.0145931
0.0145931
0.0145931
0.0145931
0.0145931
0.0145931
0.0145931
0.0145931
0.0145931
0.0145931
0.0145932
0.0145932
0.0145932
0.0145932
0.0145932
0.0145932
0.0145932
0.0145933
0.0145933
0.0145933
0.0145933
0.0145934
0.0145934
0.014593
0.014593
0.014593
0.014593
0.014593
0.014593
0.014593
0.014593
0.014593
0.014593
0.014593
0.014593
0.014593
0.014593
0.014593
0.014593
0.014593
0.014593
0.014593
0.014593
0.014593
0.014593
0.014593
0.014593
0.014593
0.014593
0.014593
0.014593
0.014593
0.014593
0.014593
0.014593
0.014593
0.014593
0.014593
0.014593
0.014593
0.014593
0.014593
0.014593
0.014593
0.014593
0.014593
0.014593
0.014593
0.014593
0.014593
0.014593
0.014593
0.014593
0.014593
0.014593
0.014593
0.014593
0.014593
0.014593
0.014593
0.014593
0.014593
0.014593
0.014593
0.014593
0.014593
0.014593
0.014593
0.014593
0.014593
0.014593
0.014593
0.014593
0.014593
0.014593
0.014593
0.014593
0.014593
0.014593
0.014593
0.014593
0.014593
0.014593
0.014593
0.014593
0.014593
0.014593
0.014593
0.014593
0.014593
0.014593
0.014593
0.014593
0.014593
0.014593
0.014593
0.014593
0.014593
0.014593
0.014593
0.014593
0.014593
0.014593
0.014593
0.014593
0.014593
0.014593
0.014593
0.014593
0.014593
0.014593
0.014593
0.014593
0.014593
0.014593
0.014593
0.014593
0.014593
0.014593
0.014593
0.014593
0.014593
0.014593
0.014593
0.014593
0.014593
0.014593
0.014593
0.014593
0.014593
0.014593
0.014593
0.014593
0.014593
0.014593
0.014593
0.014593
0.014593
0.014593
0.014593
0.014593
0.014593
0.014593
0.014593
0.014593
0.014593
0.014593
0.014593
0.014593
0.014593
0.014593
0.014593
0.014593
0.014593
0.014593
0.0145931
0.0145931
0.0145931
0.0145931
0.0145931
0.0145931
0.0145931
0.0145931
0.0145931
0.0145931
0.0145931
0.0145931
0.0145931
0.0145931
0.0145932
0.0145932
0.0145932
0.0145932
0.0145932
0.0145932
0.0145932
0.0145933
0.0145933
0.0145933
0.0145933
0.0145934
0.0145934
0.0145934
0.0145934
0.0145935
0.0145935
0.0145936
0.0145936
0.0145937
0.0145937
0.0145938
0.0145939
0.0145939
0.014594
0.0145941
0.0145942
0.0145943
0.0145944
0.0145945
0.0145946
0.0145948
0.0145949
0.0145951
0.0145952
0.0145954
0.0145956
0.0145958
0.0145961
0.0145961
0.014593
0.014593
0.014593
0.014593
0.014593
0.014593
0.014593
0.014593
0.014593
0.014593
0.014593
0.014593
0.014593
0.014593
0.014593
0.014593
0.014593
0.014593
0.014593
0.014593
0.014593
0.014593
0.014593
0.014593
0.014593
0.014593
0.014593
0.014593
0.014593
0.014593
0.014593
0.014593
0.014593
0.014593
0.014593
0.014593
0.014593
0.014593
0.014593
0.014593
0.014593
0.014593
0.014593
0.014593
0.014593
0.014593
0.014593
0.014593
0.014593
0.014593
0.014593
0.014593
0.014593
0.014593
0.014593
0.014593
0.014593
0.014593
0.014593
0.014593
0.014593
0.014593
0.014593
0.014593
0.014593
0.014593
0.014593
0.014593
0.014593
0.014593
0.014593
0.014593
0.014593
0.014593
0.014593
0.014593
0.014593
0.014593
0.014593
0.014593
0.014593
0.014593
0.014593
0.014593
0.014593
0.014593
0.014593
0.014593
0.014593
0.014593
0.014593
0.014593
0.014593
0.014593
0.014593
0.014593
0.014593
0.014593
0.014593
0.014593
0.014593
0.014593
0.014593
0.014593
0.014593
0.014593
0.014593
0.014593
0.014593
0.014593
0.014593
0.014593
0.014593
0.014593
0.014593
0.014593
0.014593
0.014593
0.014593
0.014593
0.014593
0.014593
0.014593
0.014593
0.014593
0.014593
0.014593
0.0145931
0.0145931
0.0145931
0.0145931
0.0145931
0.0145931
0.0145931
0.0145931
0.0145931
0.0145931
0.0145931
0.0145931
0.0145931
0.0145931
0.0145931
0.0145932
0.0145932
0.0145932
0.0145932
0.0145932
0.0145932
0.0145933
0.0145933
0.0145933
0.0145933
0.0145934
0.0145934
0.0145934
0.0145935
0.0145935
0.0145935
0.0145936
0.0145936
0.0145937
0.0145938
0.0145938
0.0145939
0.014594
0.0145941
0.0145941
0.0145942
0.0145944
0.0145945
0.0145946
0.0145948
0.0145949
0.0145951
0.0145953
0.0145955
0.0145957
0.0145959
0.0145961
0.0145964
0.0145967
0.014597
0.0145973
0.0145977
0.0145981
0.0145985
0.014599
0.0145995
0.0146001
0.0146007
0.0146014
0.0146021
0.0146029
0.0146038
0.0146047
0.0146057
0.0146068
0.0146079
0.0146092
0.0146105
0.014612
0.0146135
0.0146152
0.014617
0.0146194
0.0146195
0.014593
0.014593
0.014593
0.014593
0.014593
0.014593
0.014593
0.014593
0.014593
0.014593
0.014593
0.014593
0.014593
0.014593
0.014593
0.014593
0.014593
0.014593
0.014593
0.014593
0.014593
0.014593
0.014593
0.014593
0.014593
0.014593
0.014593
0.014593
0.014593
0.014593
0.014593
0.014593
0.014593
0.014593
0.014593
0.014593
0.014593
0.014593
0.014593
0.014593
0.014593
0.014593
0.014593
0.014593
0.014593
0.014593
0.014593
0.014593
0.014593
0.014593
0.014593
0.014593
0.014593
0.014593
0.014593
0.014593
0.014593
0.014593
0.014593
0.014593
0.014593
0.014593
0.014593
0.014593
0.014593
0.014593
0.014593
0.014593
0.014593
0.014593
0.014593
0.014593
0.014593
0.014593
0.014593
0.014593
0.014593
0.014593
0.014593
0.014593
0.014593
0.014593
0.014593
0.014593
0.014593
0.014593
0.014593
0.014593
0.014593
0.014593
0.014593
0.014593
0.014593
0.014593
0.014593
0.014593
0.014593
0.014593
0.014593
0.014593
0.014593
0.014593
0.014593
0.014593
0.014593
0.014593
0.0145931
0.0145931
0.0145931
0.0145931
0.0145931
0.0145931
0.0145931
0.0145931
0.0145931
0.0145931
0.0145931
0.0145931
0.0145931
0.0145932
0.0145932
0.0145932
0.0145932
0.0145932
0.0145932
0.0145932
0.0145933
0.0145933
0.0145933
0.0145933
0.0145934
0.0145934
0.0145934
0.0145935
0.0145935
0.0145936
0.0145936
0.0145937
0.0145937
0.0145938
0.0145939
0.014594
0.014594
0.0145941
0.0145942
0.0145943
0.0145945
0.0145946
0.0145947
0.0145949
0.0145951
0.0145953
0.0145955
0.0145957
0.0145959
0.0145962
0.0145965
0.0145968
0.0145971
0.0145975
0.0145979
0.0145983
0.0145988
0.0145993
0.0145998
0.0146004
0.0146011
0.0146018
0.0146026
0.0146035
0.0146044
0.0146055
0.0146066
0.0146078
0.0146092
0.0146106
0.0146122
0.0146139
0.0146158
0.0146178
0.0146199
0.0146222
0.0146248
0.0146275
0.0146304
0.0146337
0.0146372
0.014641
0.0146453
0.0146499
0.014655
0.0146607
0.0146669
0.0146738
0.0146814
0.0146898
0.0146989
0.014709
0.0147199
0.0147318
0.0147447
0.0147585
0.0147734
0.0147893
0.014806
0.0148264
0.0148321
0.014593
0.014593
0.014593
0.014593
0.014593
0.014593
0.014593
0.014593
0.014593
0.014593
0.014593
0.014593
0.014593
0.014593
0.014593
0.014593
0.014593
0.014593
0.014593
0.014593
0.014593
0.014593
0.014593
0.014593
0.014593
0.014593
0.014593
0.014593
0.014593
0.014593
0.014593
0.014593
0.014593
0.014593
0.014593
0.014593
0.014593
0.014593
0.014593
0.014593
0.014593
0.014593
0.014593
0.014593
0.014593
0.014593
0.014593
0.014593
0.014593
0.014593
0.014593
0.014593
0.014593
0.014593
0.014593
0.014593
0.014593
0.014593
0.014593
0.014593
0.014593
0.014593
0.014593
0.014593
0.014593
0.014593
0.014593
0.014593
0.014593
0.014593
0.014593
0.014593
0.014593
0.014593
0.014593
0.014593
0.014593
0.014593
0.014593
0.014593
0.014593
0.014593
0.014593
0.014593
0.0145931
0.0145931
0.0145931
0.0145931
0.0145931
0.0145931
0.0145931
0.0145931
0.0145931
0.0145931
0.0145931
0.0145931
0.0145931
0.0145931
0.0145932
0.0145932
0.0145932
0.0145932
0.0145932
0.0145932
0.0145933
0.0145933
0.0145933
0.0145934
0.0145934
0.0145934
0.0145935
0.0145935
0.0145935
0.0145936
0.0145936
0.0145937
0.0145938
0.0145938
0.0145939
0.014594
0.0145941
0.0145942
0.0145943
0.0145944
0.0145945
0.0145947
0.0145948
0.014595
0.0145952
0.0145954
0.0145956
0.0145958
0.0145961
0.0145964
0.0145967
0.014597
0.0145974
0.0145978
0.0145983
0.0145987
0.0145993
0.0145998
0.0146005
0.0146011
0.0146019
0.0146027
0.0146036
0.0146045
0.0146056
0.0146067
0.014608
0.0146094
0.0146109
0.0146126
0.0146144
0.0146164
0.0146186
0.014621
0.0146235
0.0146263
0.0146293
0.0146326
0.0146361
0.01464
0.0146442
0.0146487
0.0146537
0.0146592
0.0146653
0.014672
0.0146794
0.0146875
0.0146966
0.0147065
0.0147176
0.0147297
0.014743
0.0147576
0.0147735
0.0147908
0.0148095
0.0148297
0.0148513
0.0148744
0.0148991
0.0149254
0.0149535
0.0149836
0.0150158
0.0150506
0.0150883
0.0151296
0.0151748
0.0152248
0.0152801
0.0153417
0.01541
0.015486
0.0155702
0.0156637
0.0157662
0.0158791
0.0160012
0.0161342
0.0162746
0.0164333
0.0165445
0.014593
0.014593
0.014593
0.014593
0.014593
0.014593
0.014593
0.014593
0.014593
0.014593
0.014593
0.014593
0.014593
0.014593
0.014593
0.014593
0.014593
0.014593
0.014593
0.014593
0.014593
0.014593
0.014593
0.014593
0.014593
0.014593
0.014593
0.014593
0.014593
0.014593
0.014593
0.014593
0.014593
0.014593
0.014593
0.014593
0.014593
0.014593
0.014593
0.014593
0.014593
0.014593
0.014593
0.014593
0.014593
0.014593
0.014593
0.014593
0.014593
0.014593
0.014593
0.014593
0.014593
0.014593
0.014593
0.014593
0.014593
0.014593
0.014593
0.014593
0.014593
0.014593
0.014593
0.014593
0.0145931
0.0145931
0.0145931
0.0145931
0.0145931
0.0145931
0.0145931
0.0145931
0.0145931
0.0145931
0.0145931
0.0145931
0.0145931
0.0145932
0.0145932
0.0145932
0.0145932
0.0145932
0.0145932
0.0145933
0.0145933
0.0145933
0.0145933
0.0145934
0.0145934
0.0145934
0.0145935
0.0145935
0.0145936
0.0145936
0.0145937
0.0145938
0.0145938
0.0145939
0.014594
0.0145941
0.0145942
0.0145943
0.0145944
0.0145946
0.0145947
0.0145949
0.014595
0.0145952
0.0145954
0.0145956
0.0145959
0.0145962
0.0145965
0.0145968
0.0145972
0.0145976
0.014598
0.0145985
0.014599
0.0145996
0.0146002
0.0146009
0.0146016
0.0146024
0.0146033
0.0146043
0.0146053
0.0146065
0.0146077
0.0146091
0.0146106
0.0146123
0.0146141
0.0146161
0.0146184
0.0146208
0.0146234
0.0146263
0.0146295
0.014633
0.0146367
0.0146408
0.0146453
0.0146501
0.0146554
0.0146611
0.0146674
0.0146743
0.0146819
0.0146903
0.0146995
0.0147097
0.014721
0.0147335
0.0147473
0.0147625
0.0147793
0.0147977
0.0148179
0.0148399
0.0148638
0.0148897
0.0149176
0.0149476
0.0149798
0.0150144
0.0150514
0.0150913
0.0151343
0.0151809
0.0152317
0.0152873
0.0153486
0.0154164
0.0154917
0.0155753
0.0156681
0.0157712
0.0158851
0.0160106
0.016148
0.0162973
0.0164584
0.0166307
0.0168133
0.0170054
0.0172057
0.0174134
0.0176274
0.017848
0.0180749
0.0183099
0.0185539
0.018811
0.019083
0.0193766
0.0196938
0.0200441
0.0204286
0.0208604
0.0213368
0.0218756
0.0224648
0.0231271
0.0238407
0.0246005
0.02561
0.014593
0.014593
0.014593
0.014593
0.014593
0.014593
0.014593
0.014593
0.014593
0.014593
0.014593
0.014593
0.014593
0.014593
0.014593
0.014593
0.014593
0.014593
0.014593
0.014593
0.014593
0.014593
0.014593
0.014593
0.014593
0.014593
0.014593
0.014593
0.014593
0.014593
0.014593
0.014593
0.014593
0.014593
0.014593
0.014593
0.014593
0.014593
0.014593
0.014593
0.014593
0.014593
0.014593
0.0145931
0.0145931
0.0145931
0.0145931
0.0145931
0.0145931
0.0145931
0.0145931
0.0145931
0.0145931
0.0145931
0.0145931
0.0145931
0.0145932
0.0145932
0.0145932
0.0145932
0.0145932
0.0145932
0.0145933
0.0145933
0.0145933
0.0145933
0.0145934
0.0145934
0.0145934
0.0145935
0.0145935
0.0145936
0.0145936
0.0145937
0.0145938
0.0145938
0.0145939
0.014594
0.0145941
0.0145942
0.0145943
0.0145944
0.0145946
0.0145947
0.0145949
0.0145951
0.0145953
0.0145955
0.0145957
0.014596
0.0145962
0.0145966
0.0145969
0.0145973
0.0145977
0.0145981
0.0145986
0.0145992
0.0145998
0.0146004
0.0146012
0.014602
0.0146028
0.0146038
0.0146048
0.0146059
0.0146072
0.0146085
0.01461
0.0146116
0.0146134
0.0146154
0.0146176
0.01462
0.0146226
0.0146255
0.0146286
0.0146321
0.0146359
0.0146401
0.0146447
0.0146497
0.0146552
0.0146611
0.0146676
0.0146747
0.0146825
0.014691
0.0147003
0.0147106
0.0147219
0.0147344
0.0147483
0.0147636
0.0147806
0.0147993
0.01482
0.0148429
0.0148679
0.0148953
0.0149253
0.0149578
0.014993
0.015031
0.0150719
0.015116
0.0151635
0.0152147
0.0152701
0.0153303
0.015396
0.015468
0.0155473
0.015635
0.0157321
0.0158397
0.0159589
0.0160906
0.0162356
0.0163944
0.0165671
0.0167537
0.0169536
0.0171661
0.01739
0.0176244
0.0178681
0.0181206
0.0183817
0.018652
0.018933
0.0192273
0.0195384
0.0198706
0.0202295
0.0206208
0.021051
0.0215265
0.0220536
0.0226372
0.0232813
0.0239866
0.0247517
0.0255704
0.0264351
0.0273318
0.0282491
0.0291679
0.0300773
0.0309574
0.0318029
0.0325966
0.0333412
0.0340248
0.034659
0.0352349
0.0357671
0.0362488
0.0366955
0.0371031
0.0374841
0.0378376
0.0381695
0.0384809
0.0387793
0.0390338
0.014593
0.014593
0.014593
0.014593
0.014593
0.014593
0.014593
0.014593
0.014593
0.014593
0.014593
0.014593
0.014593
0.014593
0.014593
0.014593
0.014593
0.014593
0.014593
0.014593
0.014593
0.014593
0.0145931
0.0145931
0.0145931
0.0145931
0.0145931
0.0145931
0.0145931
0.0145931
0.0145931
0.0145931
0.0145931
0.0145931
0.0145931
0.0145932
0.0145932
0.0145932
0.0145932
0.0145932
0.0145932
0.0145933
0.0145933
0.0145933
0.0145933
0.0145934
0.0145934
0.0145934
0.0145935
0.0145935
0.0145936
0.0145936
0.0145937
0.0145938
0.0145938
0.0145939
0.014594
0.0145941
0.0145942
0.0145943
0.0145945
0.0145946
0.0145947
0.0145949
0.0145951
0.0145953
0.0145955
0.0145958
0.014596
0.0145963
0.0145967
0.014597
0.0145974
0.0145978
0.0145983
0.0145988
0.0145994
0.0146
0.0146007
0.0146015
0.0146023
0.0146032
0.0146042
0.0146053
0.0146066
0.0146079
0.0146093
0.0146109
0.0146127
0.0146146
0.0146167
0.0146191
0.0146216
0.0146244
0.0146275
0.0146309
0.0146347
0.0146389
0.0146434
0.0146484
0.0146539
0.01466
0.0146666
0.0146738
0.0146818
0.0146904
0.0146999
0.0147103
0.0147218
0.0147343
0.0147482
0.0147635
0.0147803
0.014799
0.0148197
0.0148427
0.014868
0.0148959
0.0149267
0.0149605
0.0149974
0.0150377
0.0150814
0.0151289
0.0151801
0.0152355
0.0152954
0.0153601
0.0154302
0.0155066
0.01559
0.0156815
0.0157822
0.0158934
0.0160163
0.0161522
0.0163021
0.0164669
0.0166474
0.0168439
0.0170562
0.0172839
0.0175263
0.0177822
0.0180506
0.0183305
0.0186212
0.0189228
0.019236
0.0195626
0.0199056
0.0202688
0.0206572
0.0210766
0.0215331
0.0220332
0.0225829
0.0231872
0.0238496
0.0245714
0.0253505
0.0261818
0.0270565
0.0279629
0.0288866
0.0298123
0.0307244
0.0316085
0.0324524
0.0332467
0.0339857
0.0346667
0.0352908
0.0358619
0.0363842
0.0368622
0.0373009
0.0377047
0.038078
0.038424
0.0387451
0.0390426
0.0393173
0.03957
0.0398006
0.0400109
0.0402019
0.0403771
0.0405389
0.0406922
0.0408408
0.0410072
0.041174
0.0413371
0.0414947
0.0416498
0.0418029
0.0419592
0.0421152
0.0422745
0.0424335
0.042595
0.0427557
0.0429299
0.014593
0.014593
0.014593
0.014593
0.014593
0.014593
0.014593
0.014593
0.014593
0.014593
0.014593
0.014593
0.0145931
0.0145931
0.0145931
0.0145931
0.0145932
0.0145932
0.0145932
0.0145932
0.0145932
0.0145932
0.0145933
0.0145933
0.0145933
0.0145933
0.0145934
0.0145934
0.0145935
0.0145935
0.0145935
0.0145936
0.0145937
0.0145937
0.0145938
0.0145939
0.0145939
0.014594
0.0145941
0.0145943
0.0145944
0.0145945
0.0145947
0.0145948
0.014595
0.0145952
0.0145954
0.0145956
0.0145959
0.0145962
0.0145965
0.0145968
0.0145972
0.0145976
0.0145981
0.0145986
0.0145991
0.0145997
0.0146004
0.0146011
0.0146019
0.0146028
0.0146038
0.0146049
0.014606
0.0146073
0.0146088
0.0146104
0.0146121
0.014614
0.0146161
0.0146184
0.0146209
0.0146237
0.0146267
0.0146301
0.0146338
0.0146379
0.0146424
0.0146474
0.0146529
0.0146589
0.0146656
0.0146729
0.0146809
0.0146898
0.0146995
0.0147101
0.0147217
0.0147345
0.0147486
0.014764
0.014781
0.0147998
0.0148205
0.0148435
0.0148689
0.014897
0.0149281
0.0149624
0.0150003
0.0150419
0.0150875
0.0151373
0.0151916
0.0152505
0.0153144
0.0153836
0.0154585
0.0155397
0.0156279
0.0157241
0.0158292
0.0159445
0.0160713
0.0162109
0.0163649
0.0165344
0.0167205
0.016924
0.0171454
0.0173847
0.0176415
0.017915
0.0182042
0.0185079
0.0188254
0.019156
0.0194998
0.0198578
0.0202321
0.0206259
0.0210433
0.0214896
0.0219706
0.0224922
0.0230605
0.0236802
0.0243547
0.0250852
0.0258698
0.0267037
0.0275784
0.0284827
0.0294028
0.0303238
0.0312306
0.0321092
0.0329476
0.0337369
0.0344713
0.0351482
0.0357681
0.036334
0.0368515
0.0373253
0.0377599
0.0381592
0.0385264
0.0388642
0.0391743
0.0394578
0.0397156
0.0399484
0.0401576
0.0403451
0.0405137
0.0406672
0.0408097
0.0409458
0.0410798
0.0412296
0.0413828
0.0415336
0.0416811
0.0418259
0.0419714
0.0421177
0.0422646
0.0424121
0.0425599
0.0427077
0.0428554
0.0430027
0.0431496
0.0432961
0.0434429
0.0435892
0.0437362
0.043882
0.0440075
0.0441211
0.0442354
0.0443563
0.0444838
0.0446173
0.0447568
0.044901
0.0450501
0.0452029
0.0453596
0.0455174
0.0456949
0.014593
0.014593
0.014593
0.014593
0.014593
0.014593
0.014593
0.014593
0.014593
0.014593
0.0145935
0.0145935
0.0145936
0.0145937
0.0145937
0.0145938
0.0145939
0.014594
0.0145941
0.0145942
0.0145943
0.0145944
0.0145946
0.0145947
0.0145949
0.0145951
0.0145953
0.0145956
0.0145958
0.0145961
0.0145964
0.0145967
0.0145971
0.0145975
0.014598
0.0145984
0.014599
0.0145996
0.0146002
0.014601
0.0146018
0.0146026
0.0146036
0.0146047
0.0146058
0.0146071
0.0146085
0.0146101
0.0146119
0.0146138
0.0146159
0.0146182
0.0146207
0.0146235
0.0146266
0.01463
0.0146337
0.0146378
0.0146423
0.0146473
0.0146528
0.0146589
0.0146656
0.0146731
0.0146812
0.0146903
0.0147002
0.0147111
0.0147231
0.0147363
0.0147508
0.0147668
0.0147843
0.0148036
0.0148248
0.0148483
0.0148741
0.0149028
0.0149345
0.0149695
0.0150083
0.0150511
0.0150983
0.0151502
0.0152071
0.0152692
0.015337
0.0154107
0.0154908
0.0155776
0.0156717
0.015774
0.0158852
0.0160066
0.0161393
0.0162848
0.0164445
0.0166201
0.0168127
0.0170237
0.0172539
0.0175038
0.0177735
0.0180625
0.0183702
0.0186954
0.0190371
0.0193945
0.0197672
0.0201555
0.0205607
0.0209852
0.0214324
0.0219066
0.0224131
0.0229573
0.0235448
0.02418
0.0248662
0.0256045
0.0263931
0.0272272
0.0280989
0.0289974
0.0299098
0.0308218
0.0317191
0.0325883
0.033418
0.0341995
0.0349271
0.0355984
0.0362136
0.0367751
0.037287
0.0377548
0.0381829
0.0385744
0.038932
0.0392577
0.0395529
0.0398188
0.0400566
0.0402678
0.0404547
0.0406201
0.0407678
0.0409023
0.0410283
0.0411503
0.0412719
0.0414061
0.0415464
0.0416862
0.0418232
0.0419583
0.0420938
0.0422296
0.0423653
0.042501
0.0426366
0.042772
0.042907
0.0430419
0.0431767
0.0433117
0.0434466
0.0435813
0.0437157
0.0438333
0.0439407
0.0440484
0.044162
0.0442818
0.0444072
0.0445376
0.0446725
0.0448114
0.0449538
0.0450993
0.0452472
0.0453972
0.0455486
0.0457008
0.0458533
0.0460053
0.0461566
0.0463073
0.0464604
0.0466227
0.0467938
0.0469701
0.0471516
0.0473374
0.0475282
0.0477226
0.0479215
0.0481231
0.048329
0.0485374
0.0487521
0.014593
0.014593
0.014593
0.014593
0.014593
0.014593
0.014593