/*--------------------------------*- C++ -*----------------------------------*\
| =========                 |                                                 |
| \\      /  F ield         | OpenFOAM: The Open Source CFD Toolbox           |
|  \\    /   O peration     | Version:  v1706                                 |
|   \\  /    A nd           | Web:      www.OpenFOAM.com                      |
|    \\/     M anipulation  |                                                 |
\*---------------------------------------------------------------------------*/
FoamFile
{
    version     2.0;
    format      ascii;
    class       volScalarField;
    location    "6e-06";
    object      Mach;
}
// * * * * * * * * * * * * * * * * * * * * * * * * * * * * * * * * * * * * * //

dimensions      [0 0 0 0 0 0 0];


internalField   nonuniform List<scalar> 
30104
(
11.2859
11.2859
11.2859
11.2859
11.2859
11.2859
11.2859
11.2859
11.2859
11.2859
11.2859
11.2859
11.2859
11.2859
11.2859
11.2859
11.2859
11.2859
11.2859
11.2859
11.2859
11.2859
11.2859
11.2859
11.2859
11.2859
11.2859
11.2859
11.2859
11.2859
11.2859
11.2859
11.2859
11.2859
11.2859
11.2859
11.2859
11.2859
11.2859
11.2859
11.2859
11.2859
11.2859
11.2859
11.2859
11.2859
11.2859
11.2859
11.2859
11.2859
11.2859
11.2859
11.2859
11.2859
11.2859
11.2859
11.2859
11.2859
11.2859
11.2859
11.2859
11.2859
11.2859
11.2859
11.2859
11.2859
11.2859
11.2859
11.2859
11.2859
11.2859
11.2859
11.2859
11.2859
11.2859
11.2859
11.2859
11.2859
11.2859
11.2859
11.2859
11.2859
11.2859
11.2859
11.2859
11.2859
11.2859
11.2859
11.2859
11.2859
11.2859
11.2859
11.2859
11.2859
11.2859
11.2859
11.2859
11.2859
11.2859
11.2859
11.2859
11.2859
11.2859
11.2859
11.2859
11.2859
11.2859
11.2859
11.2859
11.2859
11.2859
11.2859
11.2859
11.2859
11.2859
11.2859
11.2859
11.2859
11.2859
11.2859
11.2859
11.2859
11.2859
11.2859
11.2859
11.2859
11.2859
11.2859
11.2859
11.2859
11.2859
11.2859
11.2859
11.2859
11.2859
11.2859
11.2859
11.2859
11.2859
11.2859
11.2859
11.2859
11.2859
11.2859
11.2859
11.2859
11.2859
11.2859
11.2859
11.2859
11.2859
11.2859
11.2859
11.2859
11.2859
11.2859
11.2859
11.2859
11.2859
11.2859
11.2859
11.2859
11.2859
11.2859
11.2859
11.2859
11.2859
11.2859
11.2859
11.2859
11.2859
11.2859
11.2859
11.2859
11.2859
11.2859
11.2859
11.2859
11.2859
11.2859
11.2859
11.2859
11.2859
11.2859
11.2859
11.2859
11.2859
11.2859
11.2859
11.2859
11.2859
11.2859
11.2859
11.2859
11.2859
11.2859
11.2859
11.2859
11.2859
11.2859
11.2859
11.2859
11.2859
11.2859
11.2859
11.2859
11.2859
11.2859
11.2859
11.2859
11.2859
11.2859
11.2859
11.2859
11.2859
11.2859
11.2859
11.2859
11.2859
11.2859
11.2859
11.2859
11.2859
11.2859
11.2859
11.2859
11.2859
11.2859
11.2859
11.2859
11.2859
11.2859
11.2859
11.2859
11.2859
11.2859
11.2859
11.2859
11.2859
11.2859
11.2859
11.2859
11.2859
11.2859
11.2859
11.2859
11.2859
11.2859
11.2859
11.2859
11.2859
11.2859
11.2859
11.2859
11.2859
11.2859
11.2859
11.2859
11.2859
11.2859
11.2859
11.2859
11.2859
11.2859
11.2859
11.2859
11.2859
11.2859
11.2859
11.2859
11.2859
11.2859
11.2859
11.2859
11.2859
11.2859
11.2859
11.2859
11.2859
11.2859
11.2859
11.2859
11.2859
11.2859
11.2859
11.2859
11.2859
11.2859
11.2859
11.2859
11.2859
11.2859
11.2859
11.2859
11.2859
11.2859
11.2859
11.2859
11.2859
11.2859
11.2859
11.2859
11.2859
11.2859
11.2859
11.2859
11.2859
11.2859
11.2859
11.2859
11.2859
11.2859
11.2859
11.2859
11.2859
11.2859
11.2859
11.2859
11.2859
11.2859
11.2859
11.2859
11.2859
11.2859
11.2859
11.2859
11.2859
11.2859
11.2859
11.2859
11.2859
11.2859
11.2859
11.2859
11.2859
11.2859
11.2859
11.2859
11.2859
11.2859
11.2859
11.2859
11.2859
11.2859
11.2859
11.2859
11.2859
11.2859
11.2859
11.2859
11.2859
11.2859
11.2859
11.2859
11.2859
11.2859
11.2859
11.2859
11.2859
11.2859
11.2859
11.2859
11.2859
11.2859
11.2859
11.2859
11.2859
11.2859
11.2859
11.2859
11.2859
11.2859
11.2859
11.2859
11.2859
11.2859
11.2859
11.2859
11.2859
11.2859
11.2859
11.2859
11.2859
11.2859
11.2859
11.2859
11.2859
11.2859
11.2859
11.2859
11.2859
11.2859
11.2859
11.2859
11.2859
11.2859
11.2859
11.2859
11.2859
11.2859
11.2859
11.2859
11.2859
11.2859
11.2859
11.2859
11.2859
11.2859
11.2859
11.2859
11.2859
11.2859
11.2859
11.2859
11.2859
11.2859
11.2859
11.2859
11.2859
11.2859
11.2859
11.2859
11.2859
11.2859
11.2859
11.2859
11.2859
11.2859
11.2859
11.2859
11.2859
11.2859
11.2859
11.2859
11.2859
11.2859
11.2859
11.2859
11.2859
11.2859
11.2859
11.2859
11.2859
11.2859
11.2859
11.2859
11.2859
11.2859
11.2859
11.2859
11.2859
11.2859
11.2859
11.2859
11.2859
11.2859
11.2859
11.2859
11.2859
11.2859
11.2859
11.2859
11.2859
11.2859
11.2859
11.2859
11.2859
11.2859
11.2859
11.2859
11.2859
11.2859
11.2859
11.2859
11.2859
11.2859
11.2859
11.2859
11.2859
11.2859
11.2859
11.2859
11.2859
11.2859
11.2859
11.2859
11.2859
11.2859
11.2859
11.2859
11.2859
11.2859
11.2859
11.2859
11.2859
11.2859
11.2859
11.2859
11.2859
11.2859
11.2859
11.2859
11.2859
11.2859
11.2859
11.2859
11.2859
11.2859
11.2859
11.2859
11.2859
11.2859
11.2859
11.2859
11.2859
11.2859
11.2859
11.2859
11.2859
11.2859
11.2859
11.2859
11.2859
11.2859
11.2859
11.2859
11.2859
11.2859
11.2859
11.2859
11.2859
11.2859
11.2859
11.2859
11.2859
11.2859
11.2859
11.2859
11.2859
11.2859
11.2859
11.2859
11.2859
11.2859
11.2859
11.2859
11.2859
11.2859
11.2859
11.2859
11.2859
11.2859
11.2859
11.2859
11.2859
11.2859
11.2859
11.2859
11.2859
11.2859
11.2859
11.2859
11.2859
11.2859
11.2859
11.2859
11.2859
11.2859
11.2859
11.2859
11.2859
11.2859
11.2859
11.2859
11.2859
11.2859
11.2859
11.2859
11.2859
11.2859
11.2859
11.2859
11.2859
11.2859
11.2859
11.2859
11.2859
11.2859
11.2859
11.2859
11.2859
11.2859
11.2859
11.2859
11.2859
11.2859
11.2859
11.2859
11.2859
11.2859
11.2859
11.2859
11.2859
11.2859
11.2859
11.2859
11.2859
11.2859
11.2859
11.2859
11.2859
11.2859
11.2859
11.2859
11.2859
11.2859
11.2859
11.2859
11.2859
11.2859
11.2859
11.2859
11.2859
11.2859
11.2859
11.2859
11.2859
11.2859
11.2859
11.2859
11.2859
11.2859
11.2859
11.2859
11.2859
11.2859
11.2859
11.2859
11.2859
11.2859
11.2859
11.2859
11.2859
11.2859
11.2859
11.2859
11.2859
11.2859
11.2859
11.2859
11.2859
11.2859
11.2859
11.2859
11.2859
11.2859
11.2859
11.2859
11.2859
11.2859
11.2859
11.2859
11.2859
11.2859
11.2859
11.2859
11.2859
11.2859
11.2859
11.2859
11.2859
11.2859
11.2859
11.2859
11.2859
11.2859
11.2859
11.2859
11.2859
11.2859
11.2859
11.2859
11.2859
11.2859
11.2859
11.2859
11.2859
11.2859
11.2859
11.2859
11.2859
11.2859
11.2859
11.2859
11.2859
11.2859
11.2859
11.2859
11.2859
11.2859
11.2859
11.2859
11.2859
11.2859
11.2859
11.2859
11.2859
11.2859
11.2859
11.2859
11.2859
11.2859
11.2859
11.2859
11.2859
11.2859
11.2859
11.2859
11.2859
11.2859
11.2859
11.2859
11.2859
11.2859
11.2859
11.2859
11.2859
11.2859
11.2859
11.2859
11.2859
11.2859
11.2859
11.2859
11.2859
11.2859
11.2859
11.2859
11.2859
11.2859
11.2859
11.2859
11.2859
11.2859
11.2859
11.2859
11.2859
11.2859
11.2859
11.2859
11.2859
11.2859
11.2859
11.2859
11.2859
11.2859
11.2859
11.2859
11.2859
11.2859
11.2859
11.2859
11.2859
11.2859
11.2859
11.2859
11.2859
11.2859
11.2859
11.2859
11.2859
11.2859
11.2859
11.2859
11.2859
11.2859
11.2859
11.2859
11.2859
11.2859
11.2859
11.2859
11.2859
11.2859
11.2859
11.2859
11.2859
11.2859
11.2859
11.2859
11.2859
11.2859
11.2859
11.2859
11.2859
11.2859
11.2859
11.2859
11.2859
11.2859
11.2859
11.2859
11.2859
11.2859
11.2859
11.2859
11.2859
11.2859
11.2859
11.2859
11.2859
11.2859
11.2859
11.2859
11.2859
11.2859
11.2859
11.2859
11.2859
11.2859
11.2859
11.2859
11.2859
11.2859
11.2859
11.2859
11.2859
11.2859
11.2859
11.2859
11.2859
11.2859
11.2859
11.2859
11.2859
11.2859
11.2859
11.2859
11.2859
11.2859
11.2859
11.2859
11.2859
11.2859
11.2859
11.2859
11.2859
11.2859
11.2859
11.2859
11.2859
11.2859
11.2859
11.2859
11.2859
11.2859
11.2859
11.2859
11.2859
11.2859
11.2859
11.2859
11.2859
11.2859
11.2859
11.2859
11.2859
11.2859
11.2859
11.2859
11.2859
11.2859
11.2859
11.2859
11.2859
11.2859
11.2859
11.2859
11.2859
11.2859
11.2859
11.2859
11.2859
11.2859
11.2859
11.2859
11.2859
11.2859
11.2859
11.2859
11.2859
11.2859
11.2859
11.2859
11.2859
11.2859
11.2859
11.2859
11.2859
11.2859
11.2859
11.2859
11.2859
11.2859
11.2859
11.2859
11.2859
11.2859
11.2859
11.2859
11.2859
11.2859
11.2859
11.2859
11.2859
11.2859
11.2859
11.2859
11.2859
11.2859
11.2859
11.2859
11.2859
11.2859
11.2859
11.2859
11.2859
11.2859
11.2859
11.2859
11.2859
11.2859
11.2859
11.2859
11.2859
11.2859
11.2859
11.2859
11.2859
11.2859
11.2859
11.2859
11.2859
11.2859
11.2859
11.2859
11.2859
11.2859
11.2859
11.2859
11.2859
11.2859
11.2859
11.2859
11.2859
11.2859
11.2859
11.2859
11.2859
11.2859
11.2859
11.2859
11.2859
11.2859
11.2859
11.2859
11.2859
11.2859
11.2859
11.2859
11.2859
11.2859
11.2859
11.2859
11.2859
11.2859
11.2859
11.2859
11.2859
11.2859
11.2859
11.2859
11.2859
11.2859
11.2859
11.2859
11.2859
11.2859
11.2859
11.2859
11.2859
11.2859
11.2859
11.2859
11.2859
11.2859
11.2859
11.2859
11.2859
11.2859
11.2859
11.2859
11.2859
11.2859
11.2859
11.2859
11.2859
11.2859
11.2859
11.2859
11.2859
11.2859
11.2859
11.2859
11.2859
11.2859
11.2859
11.2859
11.2859
11.2859
11.2859
11.2859
11.2859
11.2859
11.2859
11.2859
11.2859
11.2859
11.2859
11.2859
11.2859
11.2859
11.2858
11.2858
11.2858
11.2858
11.2858
11.2858
11.2858
11.2858
11.2858
11.2858
11.2858
11.2858
11.2858
11.2858
11.2859
11.2859
11.2859
11.2859
11.2859
11.2859
11.2859
11.2859
11.2859
11.2859
11.2859
11.2859
11.2859
11.2859
11.2859
11.2859
11.2859
11.2859
11.2859
11.2859
11.2859
11.2859
11.2859
11.2859
11.2859
11.2859
11.2859
11.2859
11.2859
11.2859
11.2859
11.2859
11.2859
11.2859
11.2859
11.2859
11.2859
11.2859
11.2859
11.2859
11.2859
11.2859
11.2859
11.2859
11.2859
11.2859
11.2859
11.2859
11.2859
11.2859
11.2859
11.2859
11.2859
11.2859
11.2859
11.2859
11.2859
11.2859
11.2859
11.2859
11.2859
11.2859
11.2859
11.2859
11.2859
11.2859
11.2859
11.2859
11.2859
11.2859
11.2859
11.2859
11.2859
11.2859
11.2859
11.2859
11.2859
11.2859
11.2859
11.2859
11.2859
11.2859
11.2859
11.2859
11.2859
11.2859
11.2859
11.2859
11.2859
11.2859
11.2859
11.2859
11.2859
11.2859
11.2859
11.2859
11.2859
11.2859
11.2859
11.2859
11.2859
11.2859
11.2859
11.2859
11.2859
11.2859
11.2859
11.2859
11.2859
11.2859
11.2859
11.2859
11.2859
11.2859
11.2859
11.2859
11.2859
11.2859
11.2859
11.2859
11.2859
11.2859
11.2859
11.2859
11.2859
11.2859
11.2859
11.2859
11.2859
11.2859
11.2859
11.2859
11.2859
11.2859
11.2859
11.2859
11.2859
11.2859
11.2859
11.2859
11.2859
11.2859
11.2859
11.2859
11.2859
11.2859
11.2859
11.2859
11.2859
11.2859
11.2859
11.2859
11.2859
11.2859
11.2859
11.2859
11.2859
11.2859
11.2859
11.2859
11.2859
11.2859
11.2859
11.2859
11.2859
11.2859
11.2859
11.2859
11.2858
11.2858
11.2858
11.2858
11.2858
11.2858
11.2858
11.2858
11.2858
11.2858
11.2858
11.2858
11.2858
11.2858
11.2858
11.2858
11.2858
11.2858
11.2858
11.2858
11.2858
11.2858
11.2858
11.2858
11.2858
11.2858
11.2858
11.2858
11.2858
11.2858
11.2858
11.2858
11.2857
11.2857
11.2857
11.2857
11.2857
11.2857
11.2857
11.2857
11.2857
11.2859
11.2859
11.2859
11.2859
11.2859
11.2859
11.2859
11.2859
11.2859
11.2859
11.2859
11.2859
11.2859
11.2859
11.2859
11.2859
11.2859
11.2859
11.2859
11.2859
11.2859
11.2859
11.2859
11.2859
11.2859
11.2859
11.2859
11.2859
11.2859
11.2859
11.2859
11.2859
11.2859
11.2859
11.2859
11.2859
11.2859
11.2859
11.2859
11.2859
11.2859
11.2859
11.2859
11.2859
11.2859
11.2859
11.2859
11.2859
11.2859
11.2859
11.2859
11.2859
11.2859
11.2859
11.2859
11.2859
11.2859
11.2859
11.2859
11.2859
11.2859
11.2859
11.2859
11.2859
11.2859
11.2859
11.2859
11.2859
11.2859
11.2859
11.2859
11.2859
11.2859
11.2859
11.2859
11.2859
11.2859
11.2859
11.2859
11.2859
11.2859
11.2859
11.2859
11.2859
11.2859
11.2859
11.2859
11.2859
11.2859
11.2859
11.2859
11.2859
11.2859
11.2859
11.2859
11.2859
11.2859
11.2859
11.2859
11.2859
11.2859
11.2859
11.2859
11.2859
11.2859
11.2859
11.2859
11.2859
11.2859
11.2859
11.2859
11.2859
11.2859
11.2859
11.2859
11.2859
11.2859
11.2859
11.2859
11.2859
11.2859
11.2859
11.2859
11.2859
11.2859
11.2859
11.2859
11.2859
11.2859
11.2859
11.2859
11.2859
11.2859
11.2859
11.2859
11.2859
11.2859
11.2859
11.2858
11.2858
11.2858
11.2858
11.2858
11.2858
11.2858
11.2858
11.2858
11.2858
11.2858
11.2858
11.2858
11.2858
11.2858
11.2858
11.2858
11.2858
11.2858
11.2858
11.2858
11.2858
11.2858
11.2858
11.2858
11.2858
11.2858
11.2858
11.2858
11.2858
11.2858
11.2858
11.2857
11.2857
11.2857
11.2857
11.2857
11.2857
11.2857
11.2857
11.2856
11.2856
11.2856
11.2856
11.2856
11.2855
11.2855
11.2855
11.2855
11.2854
11.2854
11.2854
11.2853
11.2853
11.2852
11.2852
11.2851
11.285
11.285
11.2849
11.2848
11.2847
11.2846
11.2845
11.2844
11.2843
11.2841
11.2841
11.2859
11.2859
11.2859
11.2859
11.2859
11.2859
11.2859
11.2859
11.2859
11.2859
11.2859
11.2859
11.2859
11.2859
11.2859
11.2859
11.2859
11.2859
11.2859
11.2859
11.2859
11.2859
11.2859
11.2859
11.2859
11.2859
11.2859
11.2859
11.2859
11.2859
11.2859
11.2859
11.2859
11.2859
11.2859
11.2859
11.2859
11.2859
11.2859
11.2859
11.2859
11.2859
11.2859
11.2859
11.2859
11.2859
11.2859
11.2859
11.2859
11.2859
11.2859
11.2859
11.2859
11.2859
11.2859
11.2859
11.2859
11.2859
11.2859
11.2859
11.2859
11.2859
11.2859
11.2859
11.2859
11.2859
11.2859
11.2859
11.2859
11.2859
11.2859
11.2859
11.2859
11.2859
11.2859
11.2859
11.2859
11.2859
11.2859
11.2859
11.2859
11.2859
11.2859
11.2859
11.2859
11.2859
11.2859
11.2859
11.2859
11.2859
11.2859
11.2859
11.2859
11.2859
11.2859
11.2859
11.2859
11.2859
11.2859
11.2859
11.2859
11.2859
11.2859
11.2859
11.2859
11.2859
11.2859
11.2859
11.2859
11.2859
11.2859
11.2859
11.2859
11.2859
11.2858
11.2858
11.2858
11.2858
11.2858
11.2858
11.2858
11.2858
11.2858
11.2858
11.2858
11.2858
11.2858
11.2858
11.2858
11.2858
11.2858
11.2858
11.2858
11.2858
11.2858
11.2858
11.2858
11.2858
11.2858
11.2858
11.2858
11.2858
11.2858
11.2858
11.2858
11.2857
11.2857
11.2857
11.2857
11.2857
11.2857
11.2857
11.2857
11.2856
11.2856
11.2856
11.2856
11.2856
11.2855
11.2855
11.2855
11.2854
11.2854
11.2854
11.2853
11.2853
11.2852
11.2852
11.2851
11.2851
11.285
11.2849
11.2848
11.2847
11.2846
11.2845
11.2844
11.2842
11.2841
11.2839
11.2838
11.2836
11.2834
11.2832
11.283
11.2827
11.2824
11.2821
11.2818
11.2815
11.2811
11.2807
11.2802
11.2797
11.2792
11.2786
11.278
11.2773
11.2766
11.2759
11.2751
11.2742
11.2733
11.2723
11.271
11.271
11.2859
11.2859
11.2859
11.2859
11.2859
11.2859
11.2859
11.2859
11.2859
11.2859
11.2859
11.2859
11.2859
11.2859
11.2859
11.2859
11.2859
11.2859
11.2859
11.2859
11.2859
11.2859
11.2859
11.2859
11.2859
11.2859
11.2859
11.2859
11.2859
11.2859
11.2859
11.2859
11.2859
11.2859
11.2859
11.2859
11.2859
11.2859
11.2859
11.2859
11.2859
11.2859
11.2859
11.2859
11.2859
11.2859
11.2859
11.2859
11.2859
11.2859
11.2859
11.2859
11.2859
11.2859
11.2859
11.2859
11.2859
11.2859
11.2859
11.2859
11.2859
11.2859
11.2859
11.2859
11.2859
11.2859
11.2859
11.2859
11.2859
11.2859
11.2859
11.2859
11.2859
11.2859
11.2859
11.2859
11.2859
11.2859
11.2859
11.2859
11.2859
11.2859
11.2859
11.2859
11.2859
11.2859
11.2859
11.2859
11.2859
11.2859
11.2859
11.2859
11.2859
11.2858
11.2858
11.2858
11.2858
11.2858
11.2858
11.2858
11.2858
11.2858
11.2858
11.2858
11.2858
11.2858
11.2858
11.2858
11.2858
11.2858
11.2858
11.2858
11.2858
11.2858
11.2858
11.2858
11.2858
11.2858
11.2858
11.2858
11.2858
11.2858
11.2858
11.2857
11.2857
11.2857
11.2857
11.2857
11.2857
11.2857
11.2856
11.2856
11.2856
11.2856
11.2856
11.2855
11.2855
11.2855
11.2854
11.2854
11.2854
11.2853
11.2853
11.2852
11.2852
11.2851
11.285
11.285
11.2849
11.2848
11.2847
11.2846
11.2845
11.2844
11.2842
11.2841
11.2839
11.2837
11.2835
11.2833
11.2831
11.2828
11.2826
11.2823
11.282
11.2816
11.2812
11.2808
11.2804
11.2799
11.2793
11.2787
11.2781
11.2774
11.2766
11.2758
11.2749
11.2739
11.2729
11.2717
11.2705
11.2692
11.2678
11.2663
11.2647
11.263
11.2611
11.2591
11.2569
11.2544
11.2517
11.2487
11.2455
11.2418
11.2378
11.2333
11.2284
11.2229
11.217
11.2104
11.2033
11.1956
11.1873
11.1783
11.1688
11.1574
11.1534
11.2859
11.2859
11.2859
11.2859
11.2859
11.2859
11.2859
11.2859
11.2859
11.2859
11.2859
11.2859
11.2859
11.2859
11.2859
11.2859
11.2859
11.2859
11.2859
11.2859
11.2859
11.2859
11.2859
11.2859
11.2859
11.2859
11.2859
11.2859
11.2859
11.2859
11.2859
11.2859
11.2859
11.2859
11.2859
11.2859
11.2859
11.2859
11.2859
11.2859
11.2859
11.2859
11.2859
11.2859
11.2859
11.2859
11.2859
11.2859
11.2859
11.2859
11.2859
11.2859
11.2859
11.2859
11.2859
11.2859
11.2859
11.2859
11.2859
11.2859
11.2859
11.2859
11.2859
11.2859
11.2859
11.2859
11.2859
11.2859
11.2859
11.2859
11.2859
11.2858
11.2858
11.2858
11.2858
11.2858
11.2858
11.2858
11.2858
11.2858
11.2858
11.2858
11.2858
11.2858
11.2858
11.2858
11.2858
11.2858
11.2858
11.2858
11.2858
11.2858
11.2858
11.2858
11.2858
11.2858
11.2858
11.2858
11.2858
11.2858
11.2858
11.2857
11.2857
11.2857
11.2857
11.2857
11.2857
11.2857
11.2856
11.2856
11.2856
11.2856
11.2856
11.2855
11.2855
11.2855
11.2854
11.2854
11.2853
11.2853
11.2852
11.2852
11.2851
11.2851
11.285
11.2849
11.2848
11.2847
11.2846
11.2845
11.2844
11.2843
11.2841
11.284
11.2838
11.2836
11.2834
11.2832
11.2829
11.2826
11.2823
11.282
11.2816
11.2812
11.2808
11.2803
11.2798
11.2793
11.2787
11.278
11.2773
11.2765
11.2756
11.2746
11.2736
11.2725
11.2712
11.2699
11.2684
11.2669
11.2652
11.2634
11.2614
11.2592
11.2569
11.2545
11.2517
11.2488
11.2455
11.242
11.238
11.2337
11.2289
11.2235
11.2176
11.2111
11.2039
11.1959
11.1872
11.1777
11.1674
11.1562
11.1441
11.1312
11.1174
11.1026
11.0869
11.0702
11.0523
11.0332
11.0126
10.9902
10.9659
10.9393
10.9101
10.8779
10.8424
10.8033
10.7604
10.7133
10.6622
10.6066
10.5475
10.4839
10.4181
10.3448
10.2942
11.2859
11.2859
11.2859
11.2859
11.2859
11.2859
11.2859
11.2859
11.2859
11.2859
11.2859
11.2859
11.2859
11.2859
11.2859
11.2859
11.2859
11.2859
11.2859
11.2859
11.2859
11.2859
11.2859
11.2859
11.2859
11.2859
11.2859
11.2859
11.2859
11.2859
11.2859
11.2859
11.2859
11.2859
11.2859
11.2859
11.2859
11.2859
11.2859
11.2859
11.2859
11.2859
11.2859
11.2859
11.2859
11.2859
11.2859
11.2859
11.2859
11.2859
11.2859
11.2858
11.2858
11.2858
11.2858
11.2858
11.2858
11.2858
11.2858
11.2858
11.2858
11.2858
11.2858
11.2858
11.2858
11.2858
11.2858
11.2858
11.2858
11.2858
11.2858
11.2858
11.2858
11.2858
11.2858
11.2858
11.2858
11.2858
11.2858
11.2858
11.2857
11.2857
11.2857
11.2857
11.2857
11.2857
11.2857
11.2856
11.2856
11.2856
11.2856
11.2856
11.2855
11.2855
11.2855
11.2854
11.2854
11.2853
11.2853
11.2852
11.2852
11.2851
11.285
11.285
11.2849
11.2848
11.2847
11.2846
11.2845
11.2844
11.2842
11.2841
11.2839
11.2837
11.2835
11.2833
11.2831
11.2828
11.2825
11.2822
11.2818
11.2814
11.281
11.2805
11.28
11.2795
11.2789
11.2782
11.2775
11.2767
11.2758
11.2748
11.2738
11.2726
11.2714
11.27
11.2685
11.2668
11.265
11.2631
11.261
11.2587
11.2562
11.2535
11.2505
11.2473
11.2439
11.2401
11.236
11.2315
11.2265
11.221
11.215
11.2083
11.2008
11.1926
11.1835
11.1736
11.1626
11.1506
11.1375
11.1233
11.1079
11.0914
11.0736
11.0546
11.0342
11.0123
10.9889
10.9636
10.9363
10.9067
10.8743
10.8388
10.7999
10.757
10.71
10.6584
10.6021
10.5409
10.475
10.4045
10.3299
10.2515
10.1701
10.0861
10.0004
9.91336
9.82547
9.73671
9.64724
9.55635
9.46381
9.3682
9.26909
9.16437
9.05387
8.93477
8.80788
8.66952
8.52265
8.36234
8.19554
8.01547
7.83321
7.64705
7.41794
11.2859
11.2859
11.2859
11.2859
11.2859
11.2859
11.2859
11.2859
11.2859
11.2859
11.2859
11.2859
11.2859
11.2859
11.2859
11.2859
11.2859
11.2859
11.2859
11.2859
11.2859
11.2859
11.2859
11.2859
11.2859
11.2859
11.2859
11.2859
11.2859
11.2859
11.2859
11.2858
11.2858
11.2858
11.2858
11.2858
11.2858
11.2858
11.2858
11.2858
11.2858
11.2858
11.2858
11.2858
11.2858
11.2858
11.2858
11.2858
11.2858
11.2858
11.2858
11.2858
11.2858
11.2858
11.2858
11.2858
11.2858
11.2858
11.2858
11.2857
11.2857
11.2857
11.2857
11.2857
11.2857
11.2857
11.2857
11.2856
11.2856
11.2856
11.2856
11.2855
11.2855
11.2855
11.2854
11.2854
11.2853
11.2853
11.2852
11.2852
11.2851
11.285
11.285
11.2849
11.2848
11.2847
11.2846
11.2845
11.2843
11.2842
11.284
11.2838
11.2837
11.2834
11.2832
11.283
11.2827
11.2824
11.282
11.2817
11.2813
11.2808
11.2803
11.2798
11.2792
11.2786
11.2778
11.2771
11.2762
11.2753
11.2742
11.2731
11.2719
11.2705
11.269
11.2674
11.2656
11.2636
11.2614
11.259
11.2565
11.2536
11.2506
11.2472
11.2436
11.2397
11.2354
11.2307
11.2256
11.2199
11.2138
11.207
11.1995
11.1913
11.1821
11.172
11.1608
11.1485
11.135
11.1201
11.1039
11.0862
11.0671
11.0464
11.0242
11.0003
10.9746
10.947
10.9173
10.8853
10.8506
10.813
10.7719
10.7271
10.678
10.6243
10.5656
10.5016
10.4324
10.3578
10.2782
10.194
10.1055
10.0136
9.91893
9.82209
9.72369
9.62408
9.5234
9.42147
9.31781
9.21164
9.10191
8.98741
8.86682
8.73885
8.60236
8.4565
8.30082
8.13555
7.96142
7.78018
7.59388
7.40563
7.21808
7.03489
6.85806
6.6909
6.53384
6.38941
6.25624
6.13632
6.02669
5.92919
5.83963
5.76039
5.68655
5.62127
5.55895
5.50378
5.44949
5.40152
5.35295
5.31012
5.26672
5.22399
11.2859
11.2859
11.2859
11.2859
11.2859
11.2859
11.2859
11.2859
11.2859
11.2859
11.2859
11.2859
11.2859
11.2858
11.2858
11.2858
11.2858
11.2858
11.2858
11.2858
11.2858
11.2858
11.2858
11.2858
11.2858
11.2858
11.2858
11.2858
11.2858
11.2858
11.2858
11.2858
11.2858
11.2858
11.2858
11.2858
11.2858
11.2858
11.2857
11.2857
11.2857
11.2857
11.2857
11.2857
11.2857
11.2857
11.2856
11.2856
11.2856
11.2856
11.2855
11.2855
11.2855
11.2854
11.2854
11.2853
11.2853
11.2852
11.2852
11.2851
11.285
11.285
11.2849
11.2848
11.2847
11.2845
11.2844
11.2843
11.2841
11.284
11.2838
11.2836
11.2834
11.2831
11.2829
11.2826
11.2822
11.2819
11.2815
11.2811
11.2806
11.2801
11.2795
11.2789
11.2782
11.2775
11.2766
11.2757
11.2747
11.2736
11.2724
11.2711
11.2696
11.268
11.2662
11.2643
11.2622
11.2598
11.2572
11.2544
11.2513
11.2479
11.2441
11.2401
11.2356
11.2308
11.2255
11.2198
11.2135
11.2066
11.199
11.1907
11.1816
11.1715
11.1603
11.1479
11.1343
11.1193
11.1027
11.0846
11.0647
11.0431
11.0196
10.9942
10.9667
10.9372
10.9054
10.8712
10.8343
10.7946
10.7515
10.7048
10.654
10.5986
10.5382
10.4724
10.4011
10.3239
10.2411
10.1527
10.0593
9.96141
9.85973
9.755
9.64794
9.53913
9.42897
9.31756
9.20471
9.08988
8.97226
8.85079
8.72427
8.59147
8.45129
8.30286
8.14577
7.98015
7.80678
7.62714
7.44337
7.25811
7.07428
6.89482
6.7224
6.55927
6.40705
6.26676
6.13876
6.02291
5.91857
5.82487
5.74064
5.66467
5.59582
5.53309
5.47548
5.42225
5.37267
5.32634
5.28275
5.24185
5.20323
5.16705
5.13289
5.101
5.0708
5.04259
5.0157
4.99042
4.96629
4.94232
4.92016
4.89974
4.88041
4.86152
4.84339
4.82624
4.80968
4.79386
4.77867
4.76422
4.7503
4.7372
11.2859
11.2859
11.2859
11.2859
11.2859
11.2859
11.2859
11.2859
11.2859
11.2859
11.2859
11.2859
11.2858
11.2858
11.2858
11.2858
11.2858
11.2858
11.2858
11.2857
11.2857
11.2857
11.2857
11.2857
11.2857
11.2857
11.2856
11.2856
11.2856
11.2856
11.2856
11.2855
11.2855
11.2855
11.2854
11.2854
11.2853
11.2853
11.2852
11.2852
11.2851
11.285
11.2849
11.2848
11.2847
11.2846
11.2845
11.2844
11.2842
11.2841
11.2839
11.2837
11.2835
11.2832
11.283
11.2827
11.2824
11.2821
11.2817
11.2813
11.2808
11.2803
11.2798
11.2792
11.2785
11.2778
11.277
11.2761
11.2751
11.274
11.2728
11.2715
11.2701
11.2685
11.2668
11.2649
11.2628
11.2604
11.2579
11.2551
11.252
11.2485
11.2448
11.2407
11.2362
11.2312
11.2258
11.2199
11.2134
11.2063
11.1986
11.1901
11.1808
11.1706
11.1593
11.1469
11.1332
11.1181
11.1014
11.0831
11.0628
11.0406
11.0164
10.9899
10.9612
10.93
10.8964
10.8602
10.8212
10.7791
10.7339
10.685
10.6322
10.575
10.513
10.4456
10.3726
10.2936
10.2085
10.1173
10.0204
9.91811
9.81108
9.70004
9.5858
9.46908
9.3505
9.23045
9.10903
8.98602
8.8609
8.73284
8.60085
8.46381
8.32068
8.17062
8.01316
7.84834
7.67684
7.49998
7.31972
7.13849
6.95901
6.78406
6.61618
6.45752
6.30966
6.17358
6.04964
5.93769
5.83711
5.74701
5.66627
5.59369
5.52806
5.46835
5.41368
5.3633
5.31661
5.27315
5.2326
5.19473
5.15935
5.12631
5.09546
5.0666
5.03954
5.01405
4.98991
4.96694
4.94507
4.9233
4.90304
4.88448
4.86667
4.84935
4.83299
4.8174
4.80252
4.78837
4.77493
4.76216
4.75001
4.7384
4.7272
4.71641
4.70592
4.6956
4.68545
4.67533
4.6654
4.65357
4.64084
4.62823
4.61572
4.60321
4.59075
4.57825
4.56573
4.55313
4.54043
4.52774
4.51366
11.2859
11.2859
11.2859
11.2859
11.2859
11.2859
11.2859
11.2859
11.2859
11.2859
11.2856
11.2856
11.2855
11.2855
11.2854
11.2854
11.2854
11.2853
11.2852
11.2852
11.2851
11.285
11.285
11.2849
11.2848
11.2847
11.2845
11.2844
11.2843
11.2841
11.2839
11.2837
11.2835
11.2833
11.283
11.2828
11.2825
11.2821
11.2818
11.2814
11.2809
11.2804
11.2799
11.2793
11.2786
11.2779
11.2771
11.2762
11.2752
11.2742
11.273
11.2717
11.2703
11.2687
11.2669
11.265
11.2629
11.2606
11.258
11.2552
11.2521
11.2486
11.2448
11.2407
11.2361
11.231
11.2255
11.2193
11.2127
11.2053
11.1973
11.1885
11.1789
11.1683
11.1568
11.144
11.13
11.1146
11.0976
11.0788
11.0582
11.0354
11.0104
10.983
10.9531
10.9205
10.8851
10.8469
10.8056
10.7611
10.7132
10.6617
10.6062
10.5464
10.4819
10.4123
10.337
10.2558
10.1683
10.0745
9.97452
9.86856
9.75715
9.64096
9.52079
9.39744
9.27169
9.14411
9.01508
8.88466
8.7526
8.61836
8.48116
8.34007
8.19416
8.04266
7.88508
7.7214
7.55215
7.37849
7.20217
7.02541
6.85071
6.68064
6.51759
6.36359
6.22015
6.08822
5.96817
5.85987
5.76276
5.67594
5.59835
5.52884
5.46626
5.40953
5.35779
5.31036
5.26668
5.22632
5.18897
5.15435
5.12227
5.0925
5.06483
5.039
5.01476
4.99185
4.97006
4.94921
4.9292
4.90942
4.89074
4.87371
4.85736
4.84157
4.8267
4.81258
4.79917
4.78647
4.77444
4.76302
4.75211
4.74162
4.7315
4.72167
4.71201
4.70244
4.69284
4.68349
4.67255
4.6607
4.64896
4.63733
4.62575
4.61419
4.60261
4.59098
4.57926
4.5674
4.55535
4.54305
4.53046
4.51753
4.50421
4.49045
4.47626
4.46176
4.44713
4.43297
4.41887
4.40441
4.38956
4.37436
4.35876
4.34283
4.32645
4.30976
4.29254
4.27524
4.25646
11.2859
11.2859
11.2859
11.2859
11.2859
11.2859
11.2859
11.2859
11.2859
11.2843
11.2842
11.284
11.2838
11.2836
11.2834
11.2831
11.2828
11.2825
11.2821
11.2818
11.2813
11.2809
11.2804
11.2798
11.2792
11.2785
11.2778
11.2769
11.276
11.275
11.274
11.2727
11.2714
11.2699
11.2683
11.2665
11.2645
11.2624
11.26
11.2573
11.2544
11.2512
11.2477
11.2437
11.2394
11.2347
11.2294
11.2236
11.2173
11.2103
11.2026
11.1941
11.1848
11.1746
11.1635
11.1513
11.1379
11.1231
11.107
11.0892
11.0696
11.048
11.0243
10.9981
10.9695
10.938
10.9037
10.8662
10.8256
10.7816
10.7341
10.683
10.628
10.5689
10.5054
10.4372
10.3639
10.2851
10.2004
10.1094
10.0121
9.90836
9.79838
9.68255
9.56148
9.43592
9.3067
9.17466
9.04052
8.90482
8.76782
8.6295
8.48953
8.34734
8.20222
8.05338
7.90015
7.74213
7.57929
7.41213
7.24171
7.06962
6.8979
6.72884
6.56478
6.40791
6.26006
6.12261
5.99639
5.88172
5.77843
5.68597
5.60348
5.52992
5.4642
5.40524
5.35205
5.30375
5.2597
5.21939
5.1824
5.14842
5.11714
5.0883
5.06164
5.03688
5.01372
4.99189
4.97113
4.95125
4.93214
4.91366
4.89547
4.87827
4.86263
4.84767
4.83339
4.82001
4.80738
4.79544
4.78419
4.77352
4.76335
4.75359
4.74417
4.73502
4.72604
4.71707
4.70809
4.69939
4.68957
4.67862
4.66773
4.65694
4.64621
4.63546
4.62468
4.61381
4.60282
4.59164
4.58023
4.56854
4.55654
4.54416
4.53138
4.51828
4.50488
4.49129
4.47802
4.46484
4.45128
4.43734
4.42302
4.40831
4.39322
4.37773
4.36184
4.34555
4.32888
4.31184
4.29445
4.27674
4.25875
4.24051
4.22206
4.20345
4.18466
4.16562
4.14618
4.12637
4.10611
4.08553
4.06449
4.04321
4.02143
3.99951
3.97704
3.95451
3.93324
11.2859
11.2859
11.2785
11.2777
11.2768
11.2759
11.2748
11.2737
11.2724
11.2709
11.2693
11.2676
11.2656
11.2635
11.2611
11.2585
11.2557
11.2525
11.249
11.2452
11.241
11.2364
11.2313
11.2257
11.2195
11.2126
11.2051
11.1968
11.1876
11.1776
11.1665
11.1544
11.1412
11.1266
11.1106
11.0931
11.0739
11.0528
11.0296
11.004
10.976
10.9451
10.9113
10.8744
10.834
10.7901
10.7425
10.6911
10.6356
10.576
10.5121
10.4435
10.3701
10.2915
10.2073
10.1173
10.021
9.91843
9.80941
9.69412
9.5729
9.44633
9.31513
9.18014
9.04222
8.90215
8.76056
8.61783
8.47404
8.32902
8.18237
8.0335
7.88181
7.72679
7.56816
7.40603
7.24096
7.07401
6.90673
6.74102
6.57898
6.4227
6.27411
6.13475
6.00574
5.88772
5.78083
5.68482
5.59907
5.52273
5.45481
5.39427
5.34013
5.29147
5.24752
5.20764
5.17137
5.13831
5.10811
5.08044
5.05499
5.03145
5.0095
4.98884
4.96919
4.95033
4.93217
4.9146
4.89753
4.88078
4.86514
4.85089
4.83737
4.82461
4.81266
4.80143
4.79085
4.78083
4.77128
4.76213
4.75329
4.74472
4.73627
4.72779
4.71939
4.71125
4.70231
4.69225
4.68214
4.67215
4.6622
4.65223
4.6422
4.63207
4.62177
4.61126
4.60051
4.58947
4.57809
4.56634
4.55437
4.5421
4.52954
4.51712
4.50484
4.49223
4.47921
4.4658
4.45199
4.43778
4.42316
4.40814
4.39273
4.37694
4.36079
4.34431
4.32753
4.31048
4.29321
4.27572
4.25804
4.24007
4.22171
4.20293
4.18373
4.16414
4.14417
4.12383
4.10315
4.08215
4.06085
4.03928
4.01744
3.99536
3.97303
3.95047
3.92767
3.9046
3.88126
3.85758
3.83361
3.80931
3.78477
3.75991
3.73489
3.70952
3.68412
3.65824
3.63259
3.60622
3.57994
3.5605
11.2507
11.2469
11.2427
11.2381
11.2329
11.2272
11.2208
11.2138
11.206
11.1974
11.188
11.1776
11.1661
11.1536
11.1398
11.1247
11.1082
11.0901
11.0703
11.0486
11.0249
10.9989
10.9704
10.9391
10.9048
10.8673
10.8262
10.7815
10.7328
10.6801
10.6231
10.5617
10.4958
10.4252
10.3497
10.2691
10.1832
10.0916
9.99404
9.89034
9.78036
9.6641
9.54175
9.4137
9.28056
9.14306
9.00208
8.85846
8.71301
8.56633
8.41882
8.2706
8.12153
7.97129
7.81941
7.66547
7.50915
7.35039
7.18952
7.02727
6.86484
6.70379
6.54592
6.39313
6.24724
6.10978
5.98195
5.8645
5.75773
5.66155
5.57553
5.49896
5.43098
5.37064
5.31697
5.26911
5.22627
5.18775
5.15298
5.12152
5.09297
5.06696
5.04314
5.02116
5.00067
4.98137
4.96297
4.94526
4.92813
4.91155
4.89541
4.87972
4.86454
4.85065
4.83795
4.82602
4.8148
4.80431
4.79444
4.78507
4.77613
4.76756
4.75928
4.75124
4.7432
4.7352
4.72735
4.71971
4.71135
4.70203
4.6926
4.68327
4.67396
4.6646
4.65515
4.64556
4.6358
4.62582
4.61557
4.60502
4.5942
4.5832
4.57191
4.56028
4.54867
4.53719
4.52542
4.51325
4.50069
4.48774
4.47439
4.46065
4.44652
4.43201
4.41715
4.40195
4.38645
4.37068
4.35465
4.33837
4.32185
4.30505
4.28785
4.27022
4.25216
4.23369
4.21483
4.19559
4.176
4.15607
4.13584
4.11531
4.0945
4.07341
4.05206
4.03043
4.00851
3.98628
3.96372
3.94082
3.91761
3.89409
3.87029
3.84622
3.82191
3.79738
3.77262
3.74766
3.72251