/*--------------------------------*- C++ -*----------------------------------*\
| =========                 |                                                 |
| \\      /  F ield         | OpenFOAM: The Open Source CFD Toolbox           |
|  \\    /   O peration     | Version:  v1706                                 |
|   \\  /    A nd           | Web:      www.OpenFOAM.com                      |
|    \\/     M anipulation  |                                                 |
\*---------------------------------------------------------------------------*/
FoamFile
{
    version     2.0;
    format      ascii;
    class       volScalarField;
    location    "6e-06";
    object      p;
}
// * * * * * * * * * * * * * * * * * * * * * * * * * * * * * * * * * * * * * //

dimensions      [1 -1 -2 0 0 0 0];


internalField   nonuniform List<scalar> 
30104
(
21.9139
21.9139
21.9139
21.9139
21.9139
21.9139
21.9139
21.9139
21.9139
21.9139
21.9139
21.9139
21.9139
21.9139
21.9139
21.9139
21.9139
21.9139
21.9139
21.9139
21.9139
21.9139
21.9139
21.9139
21.9139
21.9139
21.9139
21.9139
21.9139
21.9139
21.9139
21.9139
21.9139
21.9139
21.9139
21.9139
21.9139
21.9139
21.9139
21.9139
21.9139
21.9139
21.9139
21.9139
21.9139
21.9139
21.9139
21.9139
21.9139
21.9139
21.9139
21.9139
21.9139
21.9139
21.9139
21.9139
21.9139
21.9139
21.9139
21.9139
21.9139
21.9139
21.9139
21.9139
21.9139
21.9139
21.9139
21.9139
21.9139
21.9139
21.9139
21.9139
21.9139
21.9139
21.9139
21.9139
21.9139
21.9139
21.9139
21.9139
21.9139
21.9139
21.9139
21.9139
21.9139
21.9139
21.9139
21.9139
21.9139
21.9139
21.9139
21.9139
21.9139
21.9139
21.9139
21.9139
21.9139
21.9139
21.9139
21.9139
21.9139
21.9139
21.9139
21.9139
21.9139
21.9139
21.9139
21.9139
21.9139
21.9139
21.9139
21.9139
21.9139
21.9139
21.9139
21.9139
21.9139
21.9139
21.9139
21.9139
21.9139
21.9139
21.9139
21.9139
21.9139
21.9139
21.9139
21.9139
21.9139
21.9139
21.9139
21.9139
21.9139
21.9139
21.9139
21.9139
21.9139
21.9139
21.9139
21.9139
21.9139
21.9139
21.9139
21.9139
21.9139
21.9139
21.9139
21.9139
21.9139
21.9139
21.9139
21.9139
21.9139
21.9139
21.9139
21.9139
21.9139
21.9139
21.9139
21.9139
21.9139
21.9139
21.9139
21.9139
21.9139
21.9139
21.9139
21.9139
21.9139
21.9139
21.9139
21.9139
21.9139
21.9139
21.9139
21.9139
21.9139
21.9139
21.9139
21.9139
21.9139
21.9139
21.9139
21.9139
21.9139
21.9139
21.9139
21.9139
21.9139
21.9139
21.9139
21.9139
21.9139
21.9139
21.9139
21.9139
21.9139
21.9139
21.9139
21.9139
21.9139
21.9139
21.9139
21.9139
21.9139
21.9139
21.9139
21.9139
21.9139
21.9139
21.9139
21.9139
21.9139
21.9139
21.9139
21.9139
21.9139
21.9139
21.9139
21.9139
21.9139
21.9139
21.9139
21.9139
21.9139
21.9139
21.9139
21.9139
21.9139
21.9139
21.9139
21.9139
21.9139
21.9139
21.9139
21.9139
21.9139
21.9139
21.9139
21.9139
21.9139
21.9139
21.9139
21.9139
21.9139
21.9139
21.9139
21.9139
21.9139
21.9139
21.9139
21.9139
21.9139
21.9139
21.9139
21.9139
21.9139
21.9139
21.9139
21.9139
21.9139
21.9139
21.9139
21.9139
21.9139
21.9139
21.9139
21.9139
21.9139
21.9139
21.9139
21.9139
21.9139
21.9139
21.9139
21.9139
21.9139
21.9139
21.9139
21.9139
21.9139
21.9139
21.9139
21.9139
21.9139
21.9139
21.9139
21.9139
21.9139
21.9139
21.9139
21.9139
21.9139
21.9139
21.9139
21.9139
21.9139
21.9139
21.9139
21.9139
21.9139
21.9139
21.9139
21.9139
21.9139
21.9139
21.9139
21.9139
21.9139
21.9139
21.9139
21.9139
21.9139
21.9139
21.9139
21.9139
21.9139
21.9139
21.9139
21.9139
21.9139
21.9139
21.9139
21.9139
21.9139
21.9139
21.9139
21.9139
21.9139
21.9139
21.9139
21.9139
21.9139
21.9139
21.9139
21.9139
21.9139
21.9139
21.9139
21.9139
21.9139
21.9139
21.9139
21.9139
21.9139
21.9139
21.9139
21.9139
21.9139
21.9139
21.9139
21.9139
21.9139
21.9139
21.9139
21.9139
21.9139
21.9139
21.9139
21.9139
21.9139
21.9139
21.9139
21.9139
21.9139
21.9139
21.9139
21.9139
21.9139
21.9139
21.9139
21.9139
21.9139
21.9139
21.9139
21.9139
21.9139
21.9139
21.9139
21.9139
21.9139
21.9139
21.9139
21.9139
21.9139
21.9139
21.9139
21.9139
21.9139
21.9139
21.9139
21.9139
21.9139
21.9139
21.9139
21.9139
21.9139
21.9139
21.9139
21.9139
21.9139
21.9139
21.9139
21.9139
21.9139
21.9139
21.9139
21.9139
21.9139
21.9139
21.9139
21.9139
21.9139
21.9139
21.9139
21.9139
21.9139
21.9139
21.9139
21.9139
21.9139
21.9139
21.9139
21.9139
21.9139
21.9139
21.9139
21.9139
21.9139
21.9139
21.9139
21.9139
21.9139
21.9139
21.9139
21.9139
21.9139
21.9139
21.9139
21.9139
21.9139
21.9139
21.9139
21.9139
21.9139
21.9139
21.9139
21.9139
21.9139
21.9139
21.9139
21.9139
21.9139
21.9139
21.9139
21.9139
21.9139
21.9139
21.9139
21.9139
21.9139
21.9139
21.9139
21.9139
21.9139
21.9139
21.9139
21.9139
21.9139
21.9139
21.9139
21.9139
21.9139
21.9139
21.9139
21.9139
21.9139
21.9139
21.9139
21.9139
21.9139
21.9139
21.9139
21.9139
21.9139
21.9139
21.9139
21.9139
21.9139
21.9139
21.9139
21.9139
21.9139
21.9139
21.9139
21.9139
21.9139
21.9139
21.9139
21.9139
21.9139
21.9139
21.9139
21.9139
21.9139
21.9139
21.9139
21.9139
21.9139
21.9139
21.9139
21.9139
21.9139
21.9139
21.9139
21.9139
21.9139
21.9139
21.9139
21.9139
21.9139
21.9139
21.9139
21.9139
21.9139
21.9139
21.9139
21.9139
21.9139
21.9139
21.9139
21.9139
21.9139
21.9139
21.9139
21.9139
21.9139
21.9139
21.9139
21.9139
21.9139
21.9139
21.9139
21.9139
21.9139
21.9139
21.9139
21.9139
21.9139
21.9139
21.9139
21.9139
21.9139
21.9139
21.9139
21.9139
21.9139
21.9139
21.9139
21.9139
21.9139
21.9139
21.9139
21.9139
21.9139
21.9139
21.9139
21.9139
21.9139
21.9139
21.9139
21.9139
21.9139
21.9139
21.9139
21.9139
21.9139
21.9139
21.9139
21.9139
21.9139
21.9139
21.9139
21.9139
21.9139
21.9139
21.9139
21.9139
21.9139
21.9139
21.9139
21.9139
21.9139
21.9139
21.9139
21.9139
21.9139
21.9139
21.9139
21.9139
21.9139
21.9139
21.9139
21.9139
21.9139
21.9139
21.9139
21.9139
21.9139
21.9139
21.9139
21.9139
21.9139
21.9139
21.9139
21.9139
21.9139
21.9139
21.9139
21.9139
21.9139
21.9139
21.9139
21.9139
21.9139
21.9139
21.9139
21.9139
21.9139
21.9139
21.9139
21.9139
21.9139
21.9139
21.9139
21.9139
21.9139
21.9139
21.9139
21.9139
21.9139
21.9139
21.9139
21.9139
21.9139
21.9139
21.9139
21.9139
21.9139
21.9139
21.9139
21.9139
21.9139
21.9139
21.9139
21.9139
21.9139
21.9139
21.9139
21.9139
21.9139
21.9139
21.9139
21.9139
21.9139
21.9139
21.9139
21.9139
21.9139
21.9139
21.9139
21.9139
21.9139
21.9139
21.9139
21.9139
21.9139
21.9139
21.9139
21.9139
21.9139
21.9139
21.9139
21.9139
21.9139
21.9139
21.9139
21.9139
21.9139
21.9139
21.9139
21.9139
21.9139
21.9139
21.9139
21.9139
21.9139
21.9139
21.9139
21.9139
21.9139
21.9139
21.9139
21.9139
21.9139
21.9139
21.9139
21.9139
21.9139
21.9139
21.9139
21.9139
21.9139
21.9139
21.9139
21.9139
21.9139
21.9139
21.9139
21.9139
21.9139
21.9139
21.9139
21.9139
21.9139
21.9139
21.9139
21.9139
21.9139
21.9139
21.9139
21.9139
21.9139
21.9139
21.9139
21.9139
21.9139
21.9139
21.9139
21.9139
21.9139
21.9139
21.9139
21.9139
21.9139
21.9139
21.9139
21.9139
21.9139
21.9139
21.9139
21.9139
21.9139
21.9139
21.9139
21.9139
21.9139
21.9139
21.9139
21.9139
21.9139
21.9139
21.9139
21.9139
21.9139
21.9139
21.9139
21.9139
21.9139
21.9139
21.9139
21.9139
21.9139
21.9139
21.9139
21.9139
21.9139
21.9139
21.9139
21.9139
21.9139
21.9139
21.9139
21.9139
21.9139
21.9139
21.9139
21.9139
21.9139
21.9139
21.9139
21.9139
21.9139
21.9139
21.9139
21.9139
21.9139
21.9139
21.9139
21.9139
21.9139
21.9139
21.9139
21.9139
21.9139
21.9139
21.9139
21.9139
21.9139
21.9139
21.9139
21.9139
21.9139
21.9139
21.9139
21.9139
21.9139
21.9139
21.9139
21.9139
21.9139
21.9139
21.9139
21.9139
21.9139
21.9139
21.9139
21.9139
21.9139
21.9139
21.9139
21.9139
21.9139
21.9139
21.9139
21.9139
21.9139
21.9139
21.9139
21.9139
21.9139
21.9139
21.9139
21.9139
21.9139
21.9139
21.9139
21.9139
21.9139
21.9139
21.9139
21.9139
21.9139
21.9139
21.9139
21.9139
21.9139
21.9139
21.9139
21.9139
21.9139
21.9139
21.9139
21.9139
21.9139
21.9139
21.9139
21.9139
21.9139
21.9139
21.9139
21.9139
21.9139
21.9139
21.9139
21.9139
21.9139
21.9139
21.9139
21.9139
21.9139
21.9139
21.9139
21.9139
21.9139
21.9139
21.9139
21.9139
21.9139
21.9139
21.9139
21.9139
21.9139
21.9139
21.9139
21.9139
21.9139
21.9139
21.9139
21.9139
21.9139
21.9139
21.9139
21.9139
21.9139
21.9139
21.9139
21.9139
21.9139
21.9139
21.9139
21.9139
21.9139
21.9139
21.9139
21.9139
21.9139
21.9139
21.9139
21.9139
21.9139
21.9139
21.9139
21.9139
21.9139
21.9139
21.9139
21.9139
21.9139
21.9139
21.9139
21.9139
21.9139
21.9139
21.9139
21.9139
21.9139
21.9139
21.9139
21.9139
21.9139
21.9139
21.9139
21.9139
21.9139
21.9139
21.9139
21.9139
21.9139
21.9139
21.9139
21.9139
21.9139
21.9139
21.9139
21.9139
21.9139
21.9139
21.9139
21.9139
21.9139
21.9139
21.9139
21.9139
21.9139
21.9139
21.9139
21.9139
21.9139
21.9139
21.9139
21.9139
21.9139
21.9139
21.9139
21.9139
21.9139
21.9139
21.9139
21.9139
21.9139
21.9139
21.9139
21.9139
21.9139
21.9139
21.9139
21.9139
21.9139
21.9139
21.9139
21.9139
21.9139
21.9139
21.9139
21.9139
21.9139
21.9139
21.9139
21.9139
21.9139
21.9139
21.9139
21.9139
21.9139
21.9139
21.9139
21.9139
21.9139
21.9139
21.9139
21.9139
21.9139
21.9139
21.9139
21.9139
21.9139
21.9139
21.9139
21.9139
21.9139
21.9139
21.9139
21.9139
21.9139
21.9139
21.9139
21.9139
21.9139
21.9139
21.9139
21.9139
21.9139
21.9139
21.914
21.914
21.914
21.914
21.914
21.914
21.914
21.914
21.914
21.914
21.914
21.914
21.9139
21.9139
21.9139
21.9139
21.9139
21.9139
21.9139
21.9139
21.9139
21.9139
21.9139
21.9139
21.9139
21.9139
21.9139
21.9139
21.9139
21.9139
21.9139
21.9139
21.9139
21.9139
21.9139
21.9139
21.9139
21.9139
21.9139
21.9139
21.9139
21.9139
21.9139
21.9139
21.9139
21.9139
21.9139
21.9139
21.9139
21.9139
21.9139
21.9139
21.9139
21.9139
21.9139
21.9139
21.9139
21.9139
21.9139
21.9139
21.9139
21.9139
21.9139
21.9139
21.9139
21.9139
21.9139
21.9139
21.9139
21.9139
21.9139
21.9139
21.9139
21.9139
21.9139
21.9139
21.9139
21.9139
21.9139
21.9139
21.9139
21.9139
21.9139
21.9139
21.9139
21.9139
21.9139
21.9139
21.9139
21.9139
21.9139
21.9139
21.9139
21.9139
21.9139
21.9139
21.9139
21.9139
21.9139
21.9139
21.9139
21.9139
21.9139
21.9139
21.9139
21.9139
21.9139
21.9139
21.9139
21.9139
21.9139
21.9139
21.9139
21.9139
21.9139
21.9139
21.9139
21.9139
21.9139
21.9139
21.9139
21.9139
21.9139
21.9139
21.9139
21.9139
21.9139
21.9139
21.9139
21.9139
21.9139
21.9139
21.9139
21.9139
21.9139
21.9139
21.9139
21.9139
21.9139
21.9139
21.9139
21.9139
21.9139
21.9139
21.9139
21.9139
21.9139
21.9139
21.9139
21.9139
21.9139
21.9139
21.9139
21.9139
21.9139
21.9139
21.9139
21.9139
21.9139
21.9139
21.9139
21.9139
21.9139
21.9139
21.9139
21.9139
21.9139
21.9139
21.9139
21.9139
21.9139
21.9139
21.9139
21.9139
21.9139
21.9139
21.9139
21.9139
21.9139
21.9139
21.9139
21.914
21.914
21.914
21.914
21.914
21.914
21.914
21.914
21.914
21.914
21.914
21.914
21.914
21.914
21.914
21.9141
21.9141
21.9141
21.9141
21.9141
21.9141
21.9141
21.9142
21.9142
21.9142
21.9142
21.9142
21.9143
21.9143
21.9143
21.9144
21.9144
21.9144
21.9145
21.9145
21.9146
21.9146
21.9147
21.9148
21.9148
21.9139
21.9139
21.9139
21.9139
21.9139
21.9139
21.9139
21.9139
21.9139
21.9139
21.9139
21.9139
21.9139
21.9139
21.9139
21.9139
21.9139
21.9139
21.9139
21.9139
21.9139
21.9139
21.9139
21.9139
21.9139
21.9139
21.9139
21.9139
21.9139
21.9139
21.9139
21.9139
21.9139
21.9139
21.9139
21.9139
21.9139
21.9139
21.9139
21.9139
21.9139
21.9139
21.9139
21.9139
21.9139
21.9139
21.9139
21.9139
21.9139
21.9139
21.9139
21.9139
21.9139
21.9139
21.9139
21.9139
21.9139
21.9139
21.9139
21.9139
21.9139
21.9139
21.9139
21.9139
21.9139
21.9139
21.9139
21.9139
21.9139
21.9139
21.9139
21.9139
21.9139
21.9139
21.9139
21.9139
21.9139
21.9139
21.9139
21.9139
21.9139
21.9139
21.9139
21.9139
21.9139
21.9139
21.9139
21.9139
21.9139
21.9139
21.9139
21.9139
21.9139
21.9139
21.9139
21.9139
21.9139
21.9139
21.9139
21.9139
21.9139
21.9139
21.9139
21.9139
21.9139
21.9139
21.9139
21.9139
21.9139
21.9139
21.9139
21.9139
21.9139
21.9139
21.9139
21.9139
21.9139
21.9139
21.9139
21.9139
21.9139
21.9139
21.9139
21.9139
21.9139
21.9139
21.9139
21.9139
21.9139
21.9139
21.9139
21.9139
21.9139
21.9139
21.9139
21.9139
21.9139
21.9139
21.9139
21.9139
21.9139
21.914
21.914
21.914
21.914
21.914
21.914
21.914
21.914
21.914
21.914
21.914
21.914
21.914
21.9141
21.9141
21.9141
21.9141
21.9141
21.9141
21.9141
21.9142
21.9142
21.9142
21.9142
21.9143
21.9143
21.9143
21.9143
21.9144
21.9144
21.9145
21.9145
21.9145
21.9146
21.9147
21.9147
21.9148
21.9149
21.9149
21.915
21.9151
21.9152
21.9153
21.9155
21.9156
21.9158
21.916
21.9162
21.9164
21.9166
21.9168
21.9171
21.9174
21.9177
21.918
21.9184
21.9187
21.9191
21.9195
21.92
21.9204
21.9209
21.9214
21.9221
21.9222
21.9139
21.9139
21.9139
21.9139
21.9139
21.9139
21.9139
21.9139
21.9139
21.9139
21.9139
21.9139
21.9139
21.9139
21.9139
21.9139
21.9139
21.9139
21.9139
21.9139
21.9139
21.9139
21.9139
21.9139
21.9139
21.9139
21.9139
21.9139
21.9139
21.9139
21.9139
21.9139
21.9139
21.9139
21.9139
21.9139
21.9139
21.9139
21.9139
21.9139
21.9139
21.9139
21.9139
21.9139
21.9139
21.9139
21.9139
21.9139
21.9139
21.9139
21.9139
21.9139
21.9139
21.9139
21.9139
21.9139
21.9139
21.9139
21.9139
21.9139
21.9139
21.9139
21.9139
21.9139
21.9139
21.9139
21.9139
21.9139
21.9139
21.9139
21.9139
21.9139
21.9139
21.9139
21.9139
21.9139
21.9139
21.9139
21.9139
21.9139
21.9139
21.9139
21.9139
21.9139
21.9139
21.9139
21.9139
21.9139
21.9139
21.9139
21.9139
21.9139
21.9139
21.9139
21.9139
21.9139
21.9139
21.9139
21.9139
21.9139
21.9139
21.9139
21.9139
21.9139
21.9139
21.9139
21.9139
21.9139
21.9139
21.9139
21.9139
21.9139
21.9139
21.9139
21.9139
21.9139
21.9139
21.914
21.914
21.914
21.914
21.914
21.914
21.914
21.914
21.914
21.914
21.914
21.914
21.914
21.9141
21.9141
21.9141
21.9141
21.9141
21.9141
21.9142
21.9142
21.9142
21.9142
21.9143
21.9143
21.9143
21.9143
21.9144
21.9144
21.9145
21.9145
21.9146
21.9146
21.9147
21.9147
21.9148
21.9149
21.915
21.9151
21.9152
21.9153
21.9154
21.9155
21.9156
21.9158
21.916
21.9162
21.9164
21.9166
21.9169
21.9171
21.9174
21.9178
21.9181
21.9185
21.919
21.9194
21.9199
21.9205
21.921
21.9216
21.9223
21.923
21.9237
21.9245
21.9254
21.9263
21.9273
21.9284
21.9296
21.9308
21.9323
21.9338
21.9355
21.9373
21.9392
21.9413
21.9436
21.946
21.9486
21.9514
21.9545
21.9577
21.9612
21.965
21.9692
21.9736
21.9794
21.981
21.9139
21.9139
21.9139
21.9139
21.9139
21.9139
21.9139
21.9139
21.9139
21.9139
21.9139
21.9139
21.9139
21.9139
21.9139
21.9139
21.9139
21.9139
21.9139
21.9139
21.9139
21.9139
21.9139
21.9139
21.9139
21.9139
21.9139
21.9139
21.9139
21.9139
21.9139
21.9139
21.9139
21.9139
21.9139
21.9139
21.9139
21.9139
21.9139
21.9139
21.9139
21.9139
21.9139
21.9139
21.9139
21.9139
21.9139
21.9139
21.9139
21.9139
21.9139
21.9139
21.9139
21.9139
21.9139
21.9139
21.9139
21.9139
21.9139
21.9139
21.9139
21.9139
21.9139
21.9139
21.9139
21.9139
21.9139
21.9139
21.9139
21.9139
21.9139
21.9139
21.9139
21.9139
21.9139
21.9139
21.9139
21.9139
21.9139
21.9139
21.9139
21.9139
21.9139
21.9139
21.9139
21.9139
21.9139
21.9139
21.9139
21.9139
21.9139
21.9139
21.9139
21.9139
21.9139
21.9139
21.914
21.914
21.914
21.914
21.914
21.914
21.914
21.914
21.914
21.914
21.914
21.914
21.914
21.9141
21.9141
21.9141
21.9141
21.9141
21.9142
21.9142
21.9142
21.9142
21.9143
21.9143
21.9143
21.9144
21.9144
21.9144
21.9145
21.9145
21.9146
21.9147
21.9147
21.9148
21.9149
21.9149
21.915
21.9151
21.9152
21.9154
21.9155
21.9156
21.9158
21.9159
21.9161
21.9163
21.9165
21.9168
21.917
21.9173
21.9176
21.918
21.9184
21.9188
21.9193
21.9198
21.9203
21.9209
21.9216
21.9223
21.9231
21.9239
21.9248
21.9258
21.9268
21.9279
21.9291
21.9304
21.9318
21.9333
21.935
21.9368
21.9388
21.9409
21.9433
21.9458
21.9486
21.9517
21.955
21.9585
21.9624
21.9666
21.9711
21.9759
21.9812
21.9869
21.9932
22
22.0074
22.0156
22.0246
22.0345
22.0455
22.0577
22.0712
22.0861
22.1027
22.121
22.1412
22.1635
22.1879
22.2147
22.2439
22.2755
22.3097
22.3464
22.3856
22.4274
22.4712
22.5226
22.5471
21.9139
21.9139
21.9139
21.9139
21.9139
21.9139
21.9139
21.9139
21.9139
21.9139
21.9139
21.9139
21.9139
21.9139
21.9139
21.9139
21.9139
21.9139
21.9139
21.9139
21.9139
21.9139
21.9139
21.9139
21.9139
21.9139
21.9139
21.9139
21.9139
21.9139
21.9139
21.9139
21.9139
21.9139
21.9139
21.9139
21.9139
21.9139
21.9139
21.9139
21.9139
21.9139
21.9139
21.9139
21.9139
21.9139
21.9139
21.9139
21.9139
21.9139
21.9139
21.9139
21.9139
21.9139
21.9139
21.9139
21.9139
21.9139
21.9139
21.9139
21.9139
21.9139
21.9139
21.9139
21.9139
21.9139
21.9139
21.9139
21.9139
21.9139
21.9139
21.9139
21.9139
21.9139
21.914
21.914
21.914
21.914
21.914
21.914
21.914
21.914
21.914
21.914
21.914
21.914
21.914
21.9141
21.9141
21.9141
21.9141
21.9141
21.9141
21.9142
21.9142
21.9142
21.9142
21.9143
21.9143
21.9143
21.9144
21.9144
21.9145
21.9145
21.9146
21.9147
21.9147
21.9148
21.9149
21.915
21.9151
21.9152
21.9153
21.9154
21.9155
21.9157
21.9158
21.916
21.9162
21.9164
21.9166
21.9169
21.9171
21.9174
21.9177
21.9181
21.9185
21.9189
21.9194
21.9199
21.9205
21.9211
21.9218
21.9226
21.9235
21.9244
21.9254
21.9265
21.9276
21.9289
21.9303
21.9318
21.9334
21.9351
21.937
21.939
21.9412
21.9437
21.9463
21.9492
21.9524
21.9559
21.9597
21.9638
21.9683
21.9732
21.9785
21.9843
21.9906
21.9974
22.0048
22.0128
22.0216
22.0312
22.0418
22.0534
22.0661
22.0803
22.0959
22.1133
22.1325
22.1539
22.1777
22.2039
22.233
22.265
22.3003
22.3388
22.3809
22.4265
22.4757
22.5286
22.5852
22.6455
22.7097
22.7778
22.8503
22.9275
23.0103
23.0995
23.1962
23.3018
23.4177
23.5457
23.6873
23.8447
24.0192
24.2135
24.4282
24.6665
24.9279
25.2164
25.5288
25.8716
26.2354
26.6479
26.9873
21.9139
21.9139
21.9139
21.9139
21.9139
21.9139
21.9139
21.9139
21.9139
21.9139
21.9139
21.9139
21.9139
21.9139
21.9139
21.9139
21.9139
21.9139
21.9139
21.9139
21.9139
21.9139
21.9139
21.9139
21.9139
21.9139
21.9139
21.9139
21.9139
21.9139
21.9139
21.9139
21.9139
21.9139
21.9139
21.9139
21.9139
21.9139
21.9139
21.9139
21.9139
21.9139
21.9139
21.9139
21.9139
21.9139
21.9139
21.9139
21.9139
21.9139
21.9139
21.9139
21.9139
21.9139
21.914
21.914
21.914
21.914
21.914
21.914
21.914
21.914
21.914
21.914
21.914
21.914
21.914
21.9141
21.9141
21.9141
21.9141
21.9141
21.9141
21.9142
21.9142
21.9142
21.9143
21.9143
21.9143
21.9144
21.9144
21.9145
21.9145
21.9146
21.9146
21.9147
21.9148
21.9149
21.915
21.915
21.9152
21.9153
21.9154
21.9155
21.9157
21.9158
21.916
21.9162
21.9164
21.9167
21.9169
21.9172
21.9175
21.9178
21.9182
21.9186
21.919
21.9195
21.92
21.9206
21.9212
21.9219
21.9227
21.9236
21.9245
21.9256
21.9267
21.928
21.9294
21.9308
21.9325
21.9342
21.9362
21.9382
21.9405
21.943
21.9456
21.9485
21.9517
21.9552
21.959
21.9631
21.9677
21.9727
21.9782
21.9842
21.9907
21.9979
22.0057
22.0141
22.0234
22.0335
22.0445
22.0565
22.0696
22.0841
22.1
22.1175
22.1368
22.1583
22.1821
22.2085
22.2379
22.2704
22.3064
22.3463
22.3902
22.4385
22.4914
22.5491
22.6117
22.6794
22.7522
22.8304
22.9142
23.0038
23.0998
23.2028
23.3138
23.4341
23.5652
23.7089
23.8673
24.0425
24.237
24.4532
24.6935
24.9603
25.2558
25.5819
25.9401
26.3318
26.7576
27.218
27.713
28.2432
28.8086
29.4115
30.0537
30.7419
31.4815
32.2862
33.1668
34.1474
35.2446
36.4971
37.9259
39.5912
41.5145
43.7881
46.4234
49.5615
53.1806
57.475
62.4384
67.8625
77.0628
21.9139
21.9139
21.9139
21.9139
21.9139
21.9139
21.9139
21.9139
21.9139
21.9139
21.9139
21.9139
21.9139
21.9139
21.9139
21.9139
21.9139
21.9139
21.9139
21.9139
21.9139
21.9139
21.9139
21.9139
21.9139
21.9139
21.9139
21.9139
21.9139
21.9139
21.9139
21.9139
21.9139
21.9139
21.914
21.914
21.914
21.914
21.914
21.914
21.914
21.914
21.914
21.914
21.914
21.914
21.9141
21.9141
21.9141
21.9141
21.9141
21.9141
21.9142
21.9142
21.9142
21.9142
21.9143
21.9143
21.9144
21.9144
21.9144
21.9145
21.9146
21.9146
21.9147
21.9148
21.9148
21.9149
21.915
21.9151
21.9152
21.9154
21.9155
21.9157
21.9158
21.916
21.9162
21.9164
21.9167
21.9169
21.9172
21.9175
21.9179
21.9182
21.9186
21.9191
21.9196
21.9201
21.9207
21.9213
21.922
21.9228
21.9237
21.9247
21.9257
21.9269
21.9282
21.9296
21.9311
21.9329
21.9347
21.9368
21.939
21.9415
21.9441
21.947
21.9502
21.9536
21.9574
21.9615
21.966
21.9709
21.9763
21.9822
21.9887
21.9959
22.0037
22.0123
22.0217
22.032
22.0433
22.0556
22.069
22.0837
22.0999
22.1175
22.1369
22.1583
22.1819
22.2081
22.237
22.2691
22.3047
22.3443
22.3882
22.4369
22.4907
22.55
22.6152
22.6867
22.7646
22.8494
22.941
23.04
23.1465
23.2612
23.3845
23.5175
23.6614
23.8178
23.9886
24.1761
24.3829
24.6118
24.8658
25.1479
25.4611
25.8082
26.1918
26.6142
27.0772
27.5821
28.13
28.7219
29.3586
30.0417
30.7741
31.5603
32.4076
33.3267
34.3324
35.4445
36.6885
38.0957
39.7049
41.5614
43.7189
46.2385
49.1904
52.6498
56.7003
61.4227
66.9032
73.2089
80.4101
88.5321
97.6102
107.6
118.493
130.158
142.548
155.452
168.817
182.394
196.186
209.911
223.571
236.88
249.856
262.283
274.155
285.393
295.852
305.797
314.327
324.671
21.9139
21.9139
21.9139
21.9139
21.9139
21.9139
21.9139
21.9139
21.9139
21.9139
21.9139
21.9139
21.9139
21.9139
21.914
21.914
21.914
21.914
21.914
21.914
21.914
21.914
21.914
21.914
21.914
21.9141
21.9141
21.9141
21.9141
21.9141
21.9141
21.9142
21.9142
21.9142
21.9142
21.9143
21.9143
21.9143
21.9144
21.9144
21.9145
21.9145
21.9146
21.9147
21.9147
21.9148
21.9149
21.915
21.9151
21.9152
21.9154
21.9155
21.9157
21.9158
21.916
21.9162
21.9164
21.9167
21.917
21.9172
21.9176
21.9179
21.9183
21.9187
21.9192
21.9197
21.9202
21.9208
21.9215
21.9222
21.923
21.9239
21.9249
21.926
21.9272
21.9285
21.9299
21.9315
21.9333
21.9352
21.9374
21.9397
21.9423
21.9452
21.9483
21.9517
21.9554
21.9594
21.9639
21.9687
21.974
21.9798
21.9862
21.9932
22.0009
22.0093
22.0186
22.0289
22.0401
22.0525
22.066
22.0809
22.0972
22.1151
22.1347
22.1562
22.1798
22.2058
22.2345
22.2661
22.3012
22.3401
22.3832
22.4311
22.4842
22.5432
22.6086
22.6808
22.7605
22.848
22.9439
23.0485
23.1623
23.2857
23.4191
23.5633
23.7193
23.8881
24.0714
24.2712
24.49
24.7305
24.996
25.29
25.616
25.9778
26.379
26.8227
27.312
27.8494
28.437
29.0764
29.7693
30.5175
31.3235
32.1913
33.1271
34.1404
35.2447
36.4585
37.8061
39.3184
41.0337
42.998
45.2657
47.8997
50.9714
54.5598
58.7499
63.6301
69.2877
75.8041
83.2479
91.6687
101.091
111.505
122.871
135.107
148.101
161.711
175.778
190.129
204.609
219.086
233.408
247.419
260.979
273.96
286.261
297.794
308.486
318.283
327.137
335.038
341.968
347.982
353.1
357.451
361.1
364.23
366.951
370.06
372.879
375.342
377.407
379.243
380.863
382.492
384.055
385.731
387.398
389.227
391.05
393.096
21.9139
21.9139
21.9139
21.9139
21.9139
21.9139
21.9139
21.9139
21.9139
21.9139
21.9139
21.9139
21.9141
21.9142
21.9142
21.9142
21.9143
21.9143
21.9143
21.9144
21.9144
21.9145
21.9145
21.9146
21.9147
21.9147
21.9148
21.9149
21.915
21.9151
21.9153
21.9154
21.9155
21.9157
21.9159
21.9161
21.9163
21.9165
21.9168
21.917
21.9173
21.9177
21.918
21.9184
21.9189
21.9194
21.9199
21.9205
21.9211
21.9218
21.9226
21.9234
21.9244
21.9254
21.9265
21.9277
21.9291
21.9306
21.9323
21.9341
21.9362
21.9384
21.9409
21.9436
21.9466
21.9499
21.9536
21.9576
21.9619
21.9668
21.972
21.9778
21.9841
21.991
21.9986
22.007
22.0162
22.0263
22.0374
22.0497
22.0632
22.0781
22.0944
22.1124
22.1322
22.154
22.1779
22.2042
22.233
22.2649
22.2999
22.3387
22.3815
22.4289
22.4816
22.54
22.6049
22.6769
22.7568
22.8452
22.9428
23.0503
23.1683
23.2975
23.4385
23.5918
23.7583
23.939
24.1351
24.3481
24.5802
24.834
25.1124
25.4189
25.7576
26.1326
26.5482
27.0087
27.5182
28.0805
28.6989
29.3762
30.1152
30.9181
31.7878
32.7281
33.7447
34.8457
36.0431
37.3536
38.8
40.4113
42.2245
44.2848
46.6458
49.3704
52.53
56.2041
60.4786
65.4434
71.1881
77.798
85.3468
93.891
103.462
114.062
125.657
138.175
151.508
165.518
180.04
194.896
209.905
224.895
239.733
254.261
268.324
281.769
294.467
306.31
317.209
327.094
335.92
343.67
350.359
356.034
360.78
364.714
367.984
370.74
373.146
375.833
378.335
380.499
382.371
384.026
385.593
387.148
388.729
390.362
392.068
393.839
395.674
397.545
399.442
401.333
403.218
405.034
406.813
408.463
409.192
409.365
409.5
409.721
410.068
410.538
411.153
411.864
412.696
413.578
414.499
415.517
415.861
21.9139
21.9139
21.9139
21.9139
21.9139
21.9139
21.9139
21.9139
21.9139
21.9139
21.9151
21.9153
21.9154
21.9155
21.9157
21.9159
21.9161
21.9163
21.9166
21.9169
21.9172
21.9175
21.9179
21.9183
21.9187
21.9192
21.9197
21.9203
21.9209
21.9216
21.9223
21.9232
21.9241
21.9251
21.9262
21.9274
21.9287
21.9302
21.9318
21.9336
21.9356
21.9378
21.9402
21.9429
21.9458
21.9491
21.9526
21.9566
21.9609
21.9657
21.971
21.9768
21.9832
21.9901
21.9978
22.0062
22.0155
22.0257
22.0368
22.0492
22.0628
22.0777
22.0943
22.1125
22.1326
22.1547
22.1791
22.206
22.2356
22.2681
22.304
22.3435
22.3872
22.4354
22.4887
22.5477
22.6132
22.6858
22.7665
22.856
22.9553
23.0652
23.1867
23.3206
23.4678
23.6291
23.8054
23.9977
24.2071
24.4349
24.6829
24.9533
25.2489
25.5729
25.9292
26.3221
26.7565
27.2372
27.7692
28.3576
29.0068
29.721
30.5039
31.3591
32.29
33.3008
34.3968
35.5857
36.8784
38.2904
39.8425
41.5624
43.4853
45.6549
48.1237
50.9536
54.2154
57.9883
62.3579
67.4143
73.2483
79.9467
87.5869
96.2304
105.916
116.654
128.42
141.154
154.756
169.092
183.998
199.292
214.782
230.272
245.582
260.562
275.048
288.87
301.873
313.923
324.917
334.781
343.474
350.989
357.363
362.669
367.023
370.573
373.492
375.943
378.079
380.378
382.611
384.571
386.295
387.857
389.373
390.898
392.461
394.083
395.768
397.509
399.287
401.08
402.869
404.625
406.317
407.923
409.411
410.128
410.359
410.552
410.839
411.252
411.795
412.455
413.212
414.044
414.923
415.812
416.681
417.488
418.202
418.78
419.193
419.399
419.388
419.159
418.826
418.662
418.719
418.883
419.14
419.427
419.757
420.052
420.344
420.558
420.669
420.985
419.253
21.9139
21.9139
21.9139
21.9139
21.9139
21.9139
21.9139
21.9139
21.9139
21.9206
21.9213
21.922
21.9229
21.9238
21.9248
21.926
21.9272
21.9286
21.9301
21.9318
21.9336
21.9357
21.9379
21.9404
21.9431
21.9461
21.9494
21.953
21.957
21.9614
21.9663
21.9717
21.9777
21.9842
21.9914
21.9993
22.008
22.0176
22.0281
22.0397
22.0524
22.0665
22.0819
22.099
22.1178
22.1386
22.1616
22.1869
22.2149
22.2457
22.2798
22.3173
22.3587
22.4044
22.4548
22.5104
22.572
22.6401
22.7155
22.7992
22.892
22.9951
23.1094
23.2361
23.3764
23.5312
23.7019
23.8895
24.0951
24.32
24.5656
24.8335
25.1257
25.4448
25.7937
26.1763
26.5968
27.0601
27.5716
28.137
28.762
29.4522
30.213
31.0493
31.9658
32.967
34.0577
35.2439
36.5333
37.9366
39.4688
41.1502
43.0078
45.0762
47.3983
50.0264
53.0219
56.4554
60.4057
64.9582
70.2022
76.2277
83.1208
90.9583
99.802
109.693
120.643
132.635
145.613
159.484
174.118
189.353
205.005
220.873
236.751
252.436
267.733
282.481
296.503
309.627
321.703
332.618
342.299
350.714
357.879
363.853
368.739
372.681
375.854
378.447
380.628
382.546
384.55
386.538
388.307
389.891
391.36
392.813
394.291
395.815
397.395
399.027
400.691
402.369
404.039
405.665
407.217
408.657
409.971
410.756
411.068
411.325
411.665
412.135
412.728
413.425
414.207
415.046
415.91
416.763
417.567
418.286
418.881
419.317
419.562
419.615
419.478
419.227
419.12
419.209
419.41
419.677
419.979
420.287
420.576
420.82
421.003
421.11
421.136
421.079
420.951
420.765
420.55
420.334
420.163
420.07
420.09
420.17
420.273
420.338
420.388
420.371
420.34
420.221
420.107
419.921
419.664
419.861
416.838
21.9139
21.9139
21.946
21.9494
21.9532
21.9574
21.9621
21.9673
21.973
21.9794
21.9865
21.9943
22.0029
22.0123
22.0227
22.0342
22.0467
22.0605
22.0757
22.0924
22.1108
22.131
22.1533
22.1779
22.2051
22.2351
22.2683
22.305
22.3454
22.3901
22.4395
22.4939
22.5541
22.6205
22.694
22.7753
22.8653
22.9651
23.0757
23.1985
23.3347
23.4856
23.6526
23.8373
24.0409
24.2649
24.5108
24.7802
25.0749
25.3968
25.7485
26.1331
26.5541
27.016
27.5238
28.0831
28.7002
29.3814
30.1332
30.9619
31.8736
32.8742
33.9693
35.1649
36.4677
37.8865
39.4329
41.1227
42.9771
45.024
47.2993
49.8473
52.7215
55.9849
59.709
63.9733
68.8631
74.4664
80.8708
88.1583
96.401
105.655
115.956
127.311
139.699
153.061
167.304
182.297
197.874
213.847
230.008
246.141
262.026
277.448
292.212
306.145
319.07
330.838
341.341
350.518
358.365
364.925
370.291
374.599
378.023
380.761
383.005
384.919
386.633
388.427
390.178
391.761
393.218
394.616
396.026
397.478
398.981
400.531
402.111
403.702
405.276
406.792
408.218
409.501
410.65
411.42
411.788
412.103
412.487
412.994
413.615
414.326
415.103
415.916
416.729
417.504
418.204
418.794
419.239
419.514
419.635
419.595
419.428
419.357
419.464
419.685
419.963
420.267
420.57
420.846
421.074
421.235
421.321
421.328
421.263
421.139
420.98
420.819
420.693
420.638
420.679
420.789
420.911
421.009
421.071
421.09
421.06
420.984
420.864
420.71
420.534
420.349
420.169
420.009
419.876
419.781
419.719
419.687
419.665
419.639
419.582
419.509
419.405
419.304
419.176
419.082
418.952
418.916
418.821
418.772
419.313
414.997
22.068
22.0846
22.103
22.1234
22.146
22.1711
22.1989
22.2297
22.2638
22.3015
22.3433
22.3894
22.4403
22.4965
22.5585
22.6269
22.7023
22.7855
22.8774
22.9789
23.0911
23.2155
23.3532
23.5058
23.6749
23.8621
24.0692
24.2978
24.5498
24.8269
25.131
25.4641
25.8287
26.2273
26.6632
27.1404
27.6634
28.2377
28.8693
29.5649
30.3316
31.1767
32.1074
33.1308
34.2538
35.4833
36.8265
38.292
39.8902
41.6348
43.5442
45.6426
47.9614
50.5402
53.4273
56.6803
60.3657
64.558
69.3384
74.7917
81.0035
88.0562
96.0237
104.967
114.93
125.933
137.969
151.002
164.962
179.74
195.196
211.155
227.416
243.761
259.962
275.786
291.006
305.411
318.824
331.082
342.055
351.665
359.891
366.768
372.385
376.875
380.414
383.203
385.448
387.323
388.973
390.488
392.128
393.644
395.056
396.413
397.768
399.161
400.604
402.088
403.598
405.111
406.591
407.992
409.271
410.388
411.38
412.046
412.451
412.837
413.287
413.851
414.516
415.252
416.028
416.809
417.558
418.238
418.813
419.25
419.541
419.707
419.736
419.644
419.612
419.731
419.956
420.227
420.513
420.787
421.024
421.207
421.321
421.361
421.331
421.244
421.119
420.99
420.886
420.839
420.877
420.986
421.115
421.226
421.304
421.344
421.341
421.298
421.221
421.118
421.002
420.886
420.782
420.701
420.65
420.628
420.629
420.636
420.63
420.592
420.519
420.416
420.287
420.141
419.984
419.826
419.674
419.537
419.418
419.322
419.249
419.198
419.164
419.143
419.127
419.112
419.094
419.075
419.056
419.045
419.037
419.046
419.048
419.082
419.086
419.161
419.133