/*--------------------------------*- C++ -*----------------------------------*\
| =========                 |                                                 |
| \\      /  F ield         | OpenFOAM: The Open Source CFD Toolbox           |
|  \\    /   O peration     | Version:  v1706                                 |
|   \\  /    A nd           | Web:      www.OpenFOAM.com                      |
|    \\/     M anipulation  |                                                 |
\*---------------------------------------------------------------------------*/
FoamFile
{
    version     2.0;
    format      ascii;
    class       volScalarField;
    location    "6e-06";
    object      Tt;
}
// * * * * * * * * * * * * * * * * * * * * * * * * * * * * * * * * * * * * * //

dimensions      [0 0 0 1 0 0 0];


internalField   nonuniform List<scalar> 
30104
(
144.4
144.4
144.4
144.4
144.4
144.4
144.4
144.4
144.4
144.4
144.4
144.4
144.4
144.4
144.4
144.4
144.4
144.4
144.4
144.4
144.4
144.4
144.4
144.4
144.4
144.4
144.4
144.4
144.4
144.4
144.4
144.4
144.4
144.4
144.4
144.4
144.4
144.4
144.4
144.4
144.4
144.4
144.4
144.4
144.4
144.4
144.4
144.4
144.4
144.4
144.4
144.4
144.4
144.4
144.4
144.4
144.4
144.4
144.4
144.4
144.4
144.4
144.4
144.4
144.4
144.4
144.4
144.4
144.4
144.4
144.4
144.4
144.4
144.4
144.4
144.4
144.4
144.4
144.4
144.4
144.4
144.4
144.4
144.4
144.4
144.4
144.4
144.4
144.4
144.4
144.4
144.4
144.4
144.4
144.4
144.4
144.4
144.4
144.4
144.4
144.4
144.4
144.4
144.4
144.4
144.4
144.4
144.4
144.4
144.4
144.4
144.4
144.4
144.4
144.4
144.4
144.4
144.4
144.4
144.4
144.4
144.4
144.4
144.4
144.4
144.4
144.4
144.4
144.4
144.4
144.4
144.4
144.4
144.4
144.4
144.4
144.4
144.4
144.4
144.4
144.4
144.4
144.4
144.4
144.4
144.4
144.4
144.4
144.4
144.4
144.4
144.4
144.4
144.4
144.4
144.4
144.4
144.4
144.4
144.4
144.4
144.4
144.4
144.4
144.4
144.4
144.4
144.4
144.4
144.4
144.4
144.4
144.4
144.4
144.4
144.4
144.4
144.4
144.4
144.4
144.4
144.4
144.4
144.4
144.4
144.4
144.4
144.4
144.4
144.4
144.4
144.4
144.4
144.4
144.4
144.4
144.4
144.4
144.4
144.4
144.4
144.4
144.4
144.4
144.4
144.4
144.4
144.4
144.4
144.4
144.4
144.4
144.4
144.4
144.4
144.4
144.4
144.4
144.4
144.4
144.4
144.4
144.4
144.4
144.4
144.4
144.4
144.4
144.4
144.4
144.4
144.4
144.4
144.4
144.4
144.4
144.4
144.4
144.4
144.4
144.4
144.4
144.4
144.4
144.4
144.4
144.4
144.4
144.4
144.4
144.4
144.4
144.4
144.4
144.4
144.4
144.4
144.4
144.4
144.4
144.4
144.4
144.4
144.4
144.4
144.4
144.4
144.4
144.4
144.4
144.4
144.4
144.4
144.4
144.4
144.4
144.4
144.4
144.4
144.4
144.4
144.4
144.4
144.4
144.4
144.4
144.4
144.4
144.4
144.4
144.4
144.4
144.4
144.4
144.4
144.4
144.4
144.4
144.4
144.4
144.4
144.4
144.4
144.4
144.4
144.4
144.4
144.4
144.4
144.4
144.4
144.4
144.4
144.4
144.4
144.4
144.4
144.4
144.4
144.4
144.4
144.4
144.4
144.4
144.4
144.4
144.4
144.4
144.4
144.4
144.4
144.4
144.4
144.4
144.4
144.4
144.4
144.4
144.4
144.4
144.4
144.4
144.4
144.4
144.4
144.4
144.4
144.4
144.4
144.4
144.4
144.4
144.4
144.4
144.4
144.4
144.4
144.4
144.4
144.4
144.4
144.4
144.4
144.4
144.4
144.4
144.4
144.4
144.4
144.4
144.4
144.4
144.4
144.4
144.4
144.4
144.4
144.4
144.4
144.4
144.4
144.4
144.4
144.4
144.4
144.4
144.4
144.4
144.4
144.4
144.4
144.4
144.4
144.4
144.4
144.4
144.4
144.4
144.4
144.4
144.4
144.4
144.4
144.4
144.4
144.4
144.4
144.4
144.4
144.4
144.4
144.4
144.4
144.4
144.4
144.4
144.4
144.4
144.4
144.4
144.4
144.4
144.4
144.4
144.4
144.4
144.4
144.4
144.4
144.4
144.4
144.4
144.4
144.4
144.4
144.4
144.4
144.4
144.4
144.4
144.4
144.4
144.4
144.4
144.4
144.4
144.4
144.4
144.4
144.4
144.4
144.4
144.4
144.4
144.4
144.4
144.4
144.4
144.4
144.4
144.4
144.4
144.4
144.4
144.4
144.4
144.4
144.4
144.4
144.4
144.4
144.4
144.4
144.4
144.4
144.4
144.4
144.4
144.4
144.4
144.4
144.4
144.4
144.4
144.4
144.4
144.4
144.4
144.4
144.4
144.4
144.4
144.4
144.4
144.4
144.4
144.4
144.4
144.4
144.4
144.4
144.4
144.4
144.4
144.4
144.4
144.4
144.4
144.4
144.4
144.4
144.4
144.4
144.4
144.4
144.4
144.4
144.4
144.4
144.4
144.4
144.4
144.4
144.4
144.4
144.4
144.4
144.4
144.4
144.4
144.4
144.4
144.4
144.4
144.4
144.4
144.4
144.4
144.4
144.4
144.4
144.4
144.4
144.4
144.4
144.4
144.4
144.4
144.4
144.4
144.4
144.4
144.4
144.4
144.4
144.4
144.4
144.4
144.4
144.4
144.4
144.4
144.4
144.4
144.4
144.4
144.4
144.4
144.4
144.4
144.4
144.4
144.4
144.4
144.4
144.4
144.4
144.4
144.4
144.4
144.4
144.4
144.4
144.4
144.4
144.4
144.4
144.4
144.4
144.4
144.4
144.4
144.4
144.4
144.4
144.4
144.4
144.4
144.4
144.4
144.4
144.4
144.4
144.4
144.4
144.4
144.4
144.4
144.4
144.4
144.4
144.4
144.4
144.4
144.4
144.4
144.4
144.4
144.4
144.4
144.4
144.4
144.4
144.4
144.4
144.4
144.4
144.4
144.4
144.4
144.4
144.4
144.4
144.4
144.4
144.4
144.4
144.4
144.4
144.4
144.4
144.4
144.4
144.4
144.4
144.4
144.4
144.4
144.4
144.4
144.4
144.4
144.4
144.4
144.4
144.4
144.4
144.4
144.4
144.4
144.4
144.4
144.4
144.4
144.4
144.4
144.4
144.4
144.4
144.4
144.4
144.4
144.4
144.4
144.4
144.4
144.4
144.4
144.4
144.4
144.4
144.4
144.4
144.4
144.4
144.4
144.4
144.4
144.4
144.4
144.4
144.4
144.4
144.4
144.4
144.4
144.4
144.4
144.4
144.4
144.4
144.4
144.4
144.4
144.4
144.4
144.4
144.4
144.4
144.4
144.4
144.4
144.4
144.4
144.4
144.4
144.4
144.4
144.4
144.4
144.4
144.4
144.4
144.4
144.4
144.4
144.4
144.4
144.4
144.4
144.4
144.4
144.4
144.4
144.4
144.4
144.4
144.4
144.4
144.4
144.4
144.4
144.4
144.4
144.4
144.4
144.4
144.4
144.4
144.4
144.4
144.4
144.4
144.4
144.4
144.4
144.4
144.4
144.4
144.4
144.4
144.4
144.4
144.4
144.4
144.4
144.4
144.4
144.4
144.4
144.4
144.4
144.4
144.4
144.4
144.4
144.4
144.4
144.4
144.4
144.4
144.4
144.4
144.4
144.4
144.4
144.4
144.4
144.4
144.4
144.4
144.4
144.4
144.4
144.4
144.4
144.4
144.4
144.4
144.4
144.4
144.4
144.4
144.4
144.4
144.4
144.4
144.4
144.4
144.4
144.4
144.4
144.4
144.4
144.4
144.4
144.4
144.4
144.4
144.4
144.4
144.4
144.4
144.4
144.4
144.4
144.4
144.4
144.4
144.4
144.4
144.4
144.4
144.4
144.4
144.4
144.4
144.4
144.4
144.4
144.4
144.4
144.4
144.4
144.4
144.4
144.4
144.4
144.4
144.4
144.4
144.4
144.4
144.4
144.4
144.4
144.4
144.4
144.4
144.4
144.4
144.4
144.4
144.4
144.4
144.4
144.4
144.4
144.4
144.4
144.4
144.4
144.4
144.4
144.4
144.4
144.4
144.4
144.4
144.4
144.4
144.4
144.4
144.4
144.4
144.4
144.4
144.4
144.4
144.4
144.4
144.4
144.4
144.4
144.4
144.4
144.4
144.4
144.4
144.4
144.4
144.4
144.4
144.4
144.4
144.4
144.4
144.4
144.4
144.4
144.4
144.4
144.4
144.4
144.4
144.4
144.4
144.4
144.4
144.4
144.4
144.4
144.4
144.4
144.4
144.4
144.4
144.4
144.4
144.4
144.4
144.4
144.4
144.4
144.4
144.4
144.4
144.4
144.4
144.4
144.4
144.4
144.4
144.4
144.4
144.4
144.4
144.4
144.4
144.4
144.4
144.4
144.4
144.4
144.4
144.4
144.4
144.4
144.4
144.4
144.4
144.4
144.4
144.4
144.4
144.4
144.4
144.4
144.4
144.4
144.4
144.4
144.4
144.4
144.4
144.4
144.4
144.4
144.4
144.4
144.4
144.4
144.4
144.4
144.4
144.4
144.4
144.4
144.4
144.4
144.4
144.4
144.4
144.4
144.4
144.4
144.4
144.4
144.4
144.4
144.4
144.4
144.4
144.4
144.4
144.4
144.4
144.4
144.4
144.4
144.4
144.4
144.4
144.4
144.4
144.4
144.4
144.4
144.4
144.4
144.4
144.4
144.4
144.4
144.4
144.4
144.4
144.4
144.4
144.4
144.4
144.4
144.4
144.4
144.4
144.4
144.4
144.4
144.4
144.4
144.4
144.4
144.4
144.4
144.401
144.401
144.4
144.4
144.4
144.4
144.4
144.4
144.4
144.4
144.4
144.4
144.4
144.4
144.4
144.4
144.4
144.4
144.4
144.4
144.4
144.4
144.4
144.4
144.4
144.4
144.4
144.4
144.4
144.4
144.4
144.4
144.4
144.4
144.4
144.4
144.4
144.4
144.4
144.4
144.4
144.4
144.4
144.4
144.4
144.4
144.4
144.4
144.4
144.4
144.4
144.4
144.4
144.4
144.4
144.4
144.4
144.4
144.4
144.4
144.4
144.4
144.4
144.4
144.4
144.4
144.4
144.4
144.4
144.4
144.4
144.4
144.4
144.4
144.4
144.4
144.4
144.4
144.4
144.4
144.4
144.4
144.4
144.4
144.4
144.4
144.4
144.4
144.4
144.4
144.4
144.4
144.4
144.4
144.4
144.4
144.4
144.4
144.4
144.4
144.4
144.4
144.4
144.4
144.4
144.4
144.4
144.4
144.4
144.4
144.4
144.4
144.4
144.4
144.4
144.4
144.4
144.4
144.4
144.4
144.4
144.4
144.4
144.4
144.4
144.4
144.4
144.4
144.4
144.4
144.4
144.4
144.4
144.4
144.4
144.4
144.4
144.4
144.4
144.4
144.4
144.4
144.4
144.4
144.4
144.4
144.4
144.4
144.4
144.4
144.4
144.4
144.4
144.4
144.4
144.4
144.4
144.4
144.4
144.4
144.4
144.4
144.4
144.4
144.4
144.4
144.4
144.4
144.4
144.4
144.4
144.4
144.4
144.4
144.4
144.4
144.4
144.4
144.4
144.4
144.4
144.401
144.401
144.401
144.401
144.401
144.401
144.401
144.401
144.401
144.401
144.401
144.401
144.401
144.401
144.402
144.402
144.402
144.402
144.402
144.402
144.402
144.403
144.403
144.403
144.403
144.404
144.404
144.404
144.405
144.405
144.4
144.4
144.4
144.4
144.4
144.4
144.4
144.4
144.4
144.4
144.4
144.4
144.4
144.4
144.4
144.4
144.4
144.4
144.4
144.4
144.4
144.4
144.4
144.4
144.4
144.4
144.4
144.4
144.4
144.4
144.4
144.4
144.4
144.4
144.4
144.4
144.4
144.4
144.4
144.4
144.4
144.4
144.4
144.4
144.4
144.4
144.4
144.4
144.4
144.4
144.4
144.4
144.4
144.4
144.4
144.4
144.4
144.4
144.4
144.4
144.4
144.4
144.4
144.4
144.4
144.4
144.4
144.4
144.4
144.4
144.4
144.4
144.4
144.4
144.4
144.4
144.4
144.4
144.4
144.4
144.4
144.4
144.4
144.4
144.4
144.4
144.4
144.4
144.4
144.4
144.4
144.4
144.4
144.4
144.4
144.4
144.4
144.4
144.4
144.4
144.4
144.4
144.4
144.4
144.4
144.4
144.4
144.4
144.4
144.4
144.4
144.4
144.4
144.4
144.4
144.4
144.4
144.4
144.4
144.4
144.4
144.4
144.4
144.4
144.4
144.4
144.4
144.4
144.4
144.4
144.4
144.4
144.4
144.4
144.4
144.4
144.4
144.4
144.4
144.4
144.4
144.4
144.4
144.4
144.4
144.4
144.4
144.4
144.4
144.401
144.401
144.401
144.401
144.401
144.401
144.401
144.401
144.401
144.401
144.401
144.401
144.401
144.401
144.402
144.402
144.402
144.402
144.402
144.402
144.402
144.403
144.403
144.403
144.403
144.404
144.404
144.404
144.405
144.405
144.405
144.406
144.406
144.407
144.408
144.408
144.409
144.41
144.411
144.411
144.412
144.413
144.415
144.416
144.417
144.419
144.42
144.422
144.424
144.426
144.428
144.43
144.432
144.435
144.437
144.441
144.441
144.4
144.4
144.4
144.4
144.4
144.4
144.4
144.4
144.4
144.4
144.4
144.4
144.4
144.4
144.4
144.4
144.4
144.4
144.4
144.4
144.4
144.4
144.4
144.4
144.4
144.4
144.4
144.4
144.4
144.4
144.4
144.4
144.4
144.4
144.4
144.4
144.4
144.4
144.4
144.4
144.4
144.4
144.4
144.4
144.4
144.4
144.4
144.4
144.4
144.4
144.4
144.4
144.4
144.4
144.4
144.4
144.4
144.4
144.4
144.4
144.4
144.4
144.4
144.4
144.4
144.4
144.4
144.4
144.4
144.4
144.4
144.4
144.4
144.4
144.4
144.4
144.4
144.4
144.4
144.4
144.4
144.4
144.4
144.4
144.4
144.4
144.4
144.4
144.4
144.4
144.4
144.4
144.4
144.4
144.4
144.4
144.4
144.4
144.4
144.4
144.4
144.4
144.4
144.4
144.4
144.4
144.4
144.4
144.4
144.4
144.4
144.4
144.4
144.4
144.4
144.4
144.4
144.4
144.4
144.4
144.4
144.4
144.4
144.4
144.4
144.401
144.401
144.401
144.401
144.401
144.401
144.401
144.401
144.401
144.401
144.401
144.401
144.401
144.402
144.402
144.402
144.402
144.402
144.402
144.402
144.403
144.403
144.403
144.403
144.404
144.404
144.404
144.405
144.405
144.406
144.406
144.407
144.407
144.408
144.408
144.409
144.41
144.411
144.412
144.413
144.414
144.415
144.417
144.418
144.42
144.421
144.423
144.425
144.428
144.43
144.433
144.435
144.438
144.442
144.445
144.449
144.453
144.458
144.462
144.468
144.473
144.48
144.487
144.494
144.502
144.511
144.521
144.532
144.543
144.556
144.569
144.583
144.599
144.616
144.634
144.653
144.674
144.696
144.72
144.752
144.754
144.4
144.4
144.4
144.4
144.4
144.4
144.4
144.4
144.4
144.4
144.4
144.4
144.4
144.4
144.4
144.4
144.4
144.4
144.4
144.4
144.4
144.4
144.4
144.4
144.4
144.4
144.4
144.4
144.4
144.4
144.4
144.4
144.4
144.4
144.4
144.4
144.4
144.4
144.4
144.4
144.4
144.4
144.4
144.4
144.4
144.4
144.4
144.4
144.4
144.4
144.4
144.4
144.4
144.4
144.4
144.4
144.4
144.4
144.4
144.4
144.4
144.4
144.4
144.4
144.4
144.4
144.4
144.4
144.4
144.4
144.4
144.4
144.4
144.4
144.4
144.4
144.4
144.4
144.4
144.4
144.4
144.4
144.4
144.4
144.4
144.4
144.4
144.4
144.4
144.4
144.4
144.4
144.4
144.4
144.4
144.4
144.4
144.4
144.4
144.4
144.4
144.4
144.4
144.4
144.401
144.401
144.401
144.401
144.401
144.401
144.401
144.401
144.401
144.401
144.401
144.401
144.402
144.402
144.402
144.402
144.402
144.402
144.403
144.403
144.403
144.403
144.404
144.404
144.404
144.405
144.405
144.405
144.406
144.406
144.407
144.408
144.408
144.409
144.41
144.411
144.412
144.413
144.414
144.415
144.416
144.418
144.419
144.421
144.423
144.425
144.428
144.43
144.433
144.436
144.439
144.443
144.446
144.45
144.455
144.46
144.465
144.471
144.477
144.484
144.491
144.499
144.508
144.517
144.528
144.539
144.552
144.566
144.581
144.597
144.615
144.635
144.656
144.679
144.703
144.73
144.758
144.789
144.823
144.859
144.899
144.942
144.989
145.04
145.096
145.158
145.227
145.302
145.385
145.477
145.579
145.69
145.812
145.946
146.093
146.251
146.423
146.609
146.808
147.021
147.245
147.518
147.595
144.4
144.4
144.4
144.4
144.4
144.4
144.4
144.4
144.4
144.4
144.4
144.4
144.4
144.4
144.4
144.4
144.4
144.4
144.4
144.4
144.4
144.4
144.4
144.4
144.4
144.4
144.4
144.4
144.4
144.4
144.4
144.4
144.4
144.4
144.4
144.4
144.4
144.4
144.4
144.4
144.4
144.4
144.4
144.4
144.4
144.4
144.4
144.4
144.4
144.4
144.4
144.4
144.4
144.4
144.4
144.4
144.4
144.4
144.4
144.4
144.4
144.4
144.4
144.4
144.4
144.4
144.4
144.4
144.4
144.4
144.4
144.4
144.4
144.4
144.4
144.4
144.4
144.4
144.4
144.4
144.4
144.4
144.401
144.401
144.401
144.401
144.401
144.401
144.401
144.401
144.401
144.401
144.401
144.401
144.401
144.402
144.402
144.402
144.402
144.402
144.402
144.403
144.403
144.403
144.404
144.404
144.404
144.405
144.405
144.405
144.406
144.406
144.407
144.408
144.408
144.409
144.41
144.411
144.412
144.413
144.414
144.416
144.417
144.418
144.42
144.422
144.424
144.426
144.429
144.431
144.434
144.438
144.441
144.445
144.449
144.454
144.459
144.464
144.47
144.476
144.483
144.491
144.499
144.508
144.518
144.529
144.54
144.553
144.567
144.583
144.6
144.618
144.639
144.661
144.685
144.712
144.741
144.772
144.806
144.843
144.884
144.927
144.974
145.026
145.081
145.143
145.209
145.283
145.363
145.453
145.551
145.66
145.78
145.914
146.061
146.223
146.401
146.596
146.809
147.041
147.291
147.561
147.851
148.161
148.492
148.846
149.224
149.628
150.061
150.53
151.038
151.594
152.205
152.88
153.628
154.461
155.386
156.419
157.565
158.839
160.241
161.787
163.466
165.299
167.241
169.445
170.996
144.4
144.4
144.4
144.4
144.4
144.4
144.4
144.4
144.4
144.4
144.4
144.4
144.4
144.4
144.4
144.4
144.4
144.4
144.4
144.4
144.4
144.4
144.4
144.4
144.4
144.4
144.4
144.4
144.4
144.4
144.4
144.4
144.4
144.4
144.4
144.4
144.4
144.4
144.4
144.4
144.4
144.4
144.4
144.4
144.4
144.4
144.4
144.4
144.4
144.4
144.4
144.4
144.4
144.4
144.4
144.4
144.4
144.4
144.4
144.4
144.4
144.4
144.401
144.401
144.401
144.401
144.401
144.401
144.401
144.401
144.401
144.401
144.401
144.401
144.402
144.402
144.402
144.402
144.402
144.402
144.403
144.403
144.403
144.403
144.404
144.404
144.405
144.405
144.405
144.406
144.406
144.407
144.408
144.408
144.409
144.41
144.411
144.412
144.413
144.414
144.416
144.417
144.419
144.421
144.422
144.425
144.427
144.429
144.432
144.435
144.438
144.442
144.446
144.451
144.455
144.461
144.467
144.473
144.48
144.487
144.496
144.505
144.515
144.525
144.537
144.55
144.564
144.579
144.596
144.614
144.635
144.657
144.681
144.708
144.738
144.77
144.805
144.844
144.886
144.932
144.982
145.037
145.096
145.161
145.231
145.308
145.392
145.484
145.585
145.696
145.819
145.956
146.106
146.273
146.457
146.661
146.885
147.132
147.402
147.697
148.017
148.364
148.739
149.142
149.575
150.04
150.539
151.076
151.656
152.285
152.972
153.724
154.555
155.474
156.495
157.633
158.899
160.307
161.868
163.591
165.484
167.549
169.785
172.186
174.741
177.44
180.267
183.211
186.258
189.412
192.67
196.06
199.594
203.334
207.309
211.619
216.3
221.498
227.239
233.73
240.947
249.176
258.26
268.575
279.808
291.909
308.193
144.4
144.4
144.4
144.4
144.4
144.4
144.4
144.4
144.4
144.4
144.4
144.4
144.4
144.4
144.4
144.4
144.4
144.4
144.4
144.4
144.4
144.4
144.4
144.4
144.4
144.4
144.4
144.4
144.4
144.4
144.4
144.4
144.4
144.4
144.4
144.4
144.4
144.4
144.4
144.4
144.4
144.401
144.401
144.401
144.401
144.401
144.401
144.401
144.401
144.401
144.401
144.401
144.401
144.402
144.402
144.402
144.402
144.402
144.402
144.403
144.403
144.403
144.403
144.404
144.404
144.404
144.405
144.405
144.406
144.406
144.407
144.408
144.408
144.409
144.41
144.411
144.412
144.413
144.414
144.416
144.417
144.419
144.421
144.423
144.425
144.427
144.43
144.433
144.436
144.439
144.443
144.447
144.452
144.457
144.462
144.468
144.475
144.482
144.49
144.499
144.509
144.519
144.531
144.543
144.557
144.572
144.589
144.607
144.626
144.648
144.672
144.698
144.727
144.759
144.794
144.832
144.874
144.921
144.972
145.027
145.088
145.155
145.228
145.307
145.394
145.488
145.592
145.705
145.83
145.967
146.118
146.285
146.47
146.675
146.902
147.153
147.43
147.735
148.071
148.439
148.84
149.277
149.75
150.261
150.813
151.408
152.049
152.741
153.49
154.305
155.195
156.173
157.252
158.446
159.771
161.243
162.879
164.691
166.692
168.891
171.292
173.897
176.701
179.694
182.864
186.197
189.682
193.309
197.079
201.002
205.101
209.415
213.997
218.918
224.262
230.126
236.617
243.844
251.919
260.942
270.998
282.123
294.331
307.547
321.678
336.515
351.882
367.462
383.064
398.335
413.157
427.205
440.502
452.804
464.299
474.801
484.562
493.44
501.708
509.283
516.388
523
529.23
535.089
540.719
545.541
144.4
144.4
144.4
144.4
144.4
144.4
144.4
144.4
144.4
144.4
144.4
144.4
144.4
144.4
144.4
144.4
144.4
144.4
144.4
144.4
144.401
144.401
144.401
144.401
144.401
144.401
144.401
144.401
144.401
144.401
144.401
144.401
144.401
144.402
144.402
144.402
144.402
144.402
144.403
144.403
144.403
144.403
144.404
144.404
144.404
144.405
144.405
144.406
144.406
144.407
144.408
144.408
144.409
144.41
144.411
144.412
144.413
144.415
144.416
144.418
144.419
144.421
144.423
144.425
144.428
144.431
144.434
144.437
144.44
144.444
144.449
144.453
144.458
144.464
144.47
144.477
144.485
144.493
144.502
144.513
144.524
144.536
144.549
144.564
144.58
144.598
144.617
144.639
144.662
144.688
144.716
144.747
144.781
144.818
144.86
144.905
144.955
145.01
145.071
145.138
145.211
145.292
145.38
145.477
145.583
145.698
145.825
145.964
146.116
146.284
146.469
146.673
146.899
147.149
147.425
147.732
148.071
148.446
148.858
149.312
149.808
150.35
150.939
151.578
152.27
153.019
153.829
154.706
155.658
156.696
157.832
159.079
160.456
161.979
163.666
165.537
167.608
169.894
172.407
175.153
178.135
181.349
184.786
188.436
192.285
196.32
200.535
204.932
209.524
214.341
219.426
224.844
230.672
237.006
243.95
251.614
260.107
269.53
279.961
291.446
303.983
317.517
331.931
347.05
362.65
378.471
394.242
409.696
424.599
438.761
452.05
464.39
475.777
486.259
495.897
504.761
512.929
520.477
527.478
533.99
540.05
545.683
550.898
555.706
560.106
564.126
567.784
571.142
574.247
577.189
580.04
583.222
586.433
589.579
592.622
595.62
598.582
601.607
604.631
607.722
610.813
613.957
617.089
620.489
144.4
144.4
144.4
144.4
144.4
144.4
144.4
144.4
144.4
144.4
144.4
144.4
144.401
144.401
144.402
144.402
144.402
144.402
144.402
144.403
144.403
144.403
144.403
144.404
144.404
144.405
144.405
144.405
144.406
144.407
144.407
144.408
144.409
144.41
144.41
144.411
144.413
144.414
144.415
144.417
144.418
144.42
144.422
144.424
144.426
144.429
144.432
144.435
144.438
144.442
144.446
144.451
144.456
144.461
144.467
144.474
144.481
144.489
144.498
144.508
144.518
144.53
144.543
144.558
144.573
144.591
144.61
144.631
144.654
144.679
144.707
144.738
144.771
144.808
144.849
144.894
144.943
144.997
145.057
145.124
145.197
145.277
145.366
145.464
145.571
145.689
145.818
145.96
146.116
146.286
146.474
146.68
146.907
147.158
147.436
147.743
148.083
148.459
148.876
149.337
149.846
150.405
151.019
151.69
152.423
153.219
154.084
155.022
156.039
157.144
158.346
159.659
161.097
162.678
164.421
166.347
168.476
170.829
173.423
176.272
179.385
182.767
186.415
190.323
194.48
198.872
203.49
208.329
213.392
218.698
224.281
230.19
236.496
243.284
250.652
258.707
267.554
277.29
287.992
299.703
312.421
326.094
340.609
355.794
371.432
387.269
403.041
418.487
433.376
447.523
460.796
473.124
484.49
494.929
504.522
513.347
521.477
528.973
535.892
542.278
548.158
553.55
558.465
562.915
566.922
570.52
573.759
576.709
579.451
582.068
584.643
587.512
590.465
593.377
596.229
599.032
601.848
604.685
607.537
610.404
613.281
616.162
619.044
621.92
624.794
627.663
630.542
633.412
636.302
639.173
641.667
643.91
646.162
648.543
651.059
653.697
656.455
659.312
662.271
665.304
668.42
671.563
675.104
144.4
144.4
144.4
144.4
144.4
144.4
144.4
144.4
144.4
144.4
144.407
144.407
144.408
144.409
144.41
144.411
144.412
144.413
144.414
144.416
144.417
144.419
144.421
144.423
144.426
144.428
144.431
144.434
144.437
144.441
144.445
144.45
144.454
144.46
144.466
144.472
144.48
144.487
144.496
144.506
144.516
144.528
144.541
144.555
144.571
144.588
144.607
144.628
144.651
144.676
144.704
144.735
144.769
144.806
144.847
144.892
144.941
144.996
145.056
145.123
145.196
145.277
145.367
145.466
145.575
145.695
145.828
145.973
146.134
146.31
146.504
146.717
146.951
147.208
147.492
147.806
148.153
148.536
148.961
149.431
149.952
150.527
151.163
151.862
152.629
153.47
154.387
155.387
156.474
157.656
158.94
160.337
161.862
163.528
165.356
167.365
169.579
172.019
174.709
177.667
180.911
184.45
188.29
192.43
196.863
201.579
206.568
211.819
217.333
223.116
229.193
235.602
242.4
249.663
257.479
265.945
275.16
285.217
296.187
308.11
320.986
334.76
349.323
364.511
380.114
395.89
411.584
426.948
441.758
455.834
469.049
481.331
492.661
503.064
512.597
521.347
529.387
536.77
543.536
549.718
555.339
560.416
564.968
569.022
572.613
575.797
578.642
581.232
583.659
586.007
588.349
590.921
593.629
596.331
598.985
601.602
604.228
606.863
609.502
612.142
614.784
617.423
620.06
622.695
625.333
627.976
630.621
633.267
635.908
638.24
640.358
642.475
644.711
647.071
649.545
652.12
654.787
657.537
660.361
663.247
666.188
669.172
672.19
675.227
678.275
681.316
684.346
687.368
690.435
693.689
697.128
700.675
704.333
708.083
711.941
715.875
719.909
724.003
728.19
732.434
736.816
144.4
144.4
144.4
144.4
144.4
144.4
144.4
144.4
144.4
144.436
144.439
144.443
144.448
144.453
144.459
144.465
144.472
144.479
144.487
144.496
144.506
144.517
144.529
144.542
144.557
144.573
144.591
144.61
144.632
144.655
144.681
144.71
144.742
144.777
144.815
144.857
144.904
144.955
145.012
145.074
145.143
145.219
145.303
145.395
145.497
145.61
145.735
145.873
146.025
146.193
146.378
146.582
146.806
147.053
147.325
147.624
147.954
148.318
148.719
149.163
149.655
150.199
150.801
151.467
152.203
153.014
153.907
154.886
155.957
157.127
158.403
159.79
161.3
162.944
164.737
166.695
168.838
171.19
173.773
176.613
179.733
183.154
186.892
190.957
195.356
200.086
205.139
210.507
216.18
222.152
228.427
235.02
241.963
249.302
257.103
265.442
274.409
284.091
294.57
305.909
318.14
331.251
345.184
359.823
375.006
390.527
406.155
421.648
436.775
451.332
465.153
478.123
490.178
501.302
511.517
520.869
529.419
537.242
544.385
550.883
556.758
562.032
566.727
570.875
574.517
577.707
580.514
583.02
585.32
587.505
589.653
591.826
594.183
596.682
599.185
601.646
604.072
606.497
608.917
611.331
613.741
616.148
618.552
620.958
623.37
625.787
628.205
630.615
633.019
635.225
637.227
639.204
641.278
643.47
645.767
648.16
650.638
653.194
655.82
658.504
661.236
664.004
666.795
669.597
672.395
675.191
677.984
680.809
683.799
686.963
690.238
693.615
697.089
700.656
704.309
708.041
711.847
715.722
719.663
723.668
727.738
731.88
736.102
740.42
744.853
749.421
754.144
759.001
763.971
769.027
774.183
779.414
784.751
790.15
795.667
801.235
806.92
812.807
817.922
144.4
144.4
144.573
144.592
144.612
144.635
144.66
144.688
144.719
144.753
144.791
144.833
144.879
144.93
144.986
145.047
145.115
145.19
145.272
145.362
145.462
145.572
145.693
145.828
145.976
146.139
146.32
146.52
146.741
146.984
147.252
147.547
147.872
148.231
148.626
149.061
149.542
150.073
150.661
151.311
152.03
152.825
153.703
154.671
155.737
156.907
158.188
159.588
161.115
162.778
164.589
166.56
168.71
171.056
173.621
176.431
179.509
182.882
186.573
190.602
194.983
199.725
204.83
210.293
216.105
222.259
228.747
235.57
242.741
250.286
258.248
266.682
275.659
285.255
295.547
306.601
318.464
331.147
344.621
358.806
373.577
388.76
404.151
419.526
434.664
449.356
463.427
476.739
489.202
500.768
511.431
521.213
530.155
538.302
545.708
552.419
558.463
563.864
568.647
572.846
576.507
579.686
582.453
584.891
587.09
589.144
591.136
593.132
595.176
597.383
599.688
601.993
604.26
606.497
608.725
610.945
613.16
615.371
617.583
619.801
622.027
624.257
626.483
628.691
630.888
632.951
634.844
636.705
638.64
640.684
642.826
645.055
647.365
649.745
652.186
654.677
657.204
659.757
662.319
664.882
667.452
670.026
672.618
675.34
678.233
681.241
684.348
687.55
690.841
694.215
697.665
701.186
704.774
708.425
712.141
715.926
719.789
723.744
727.809
732.004
736.345
740.825
745.415
750.1
754.878
759.746
764.703
769.747
774.878
780.096
785.404
790.807
796.307
801.912
807.627
813.457
819.402
825.463
831.631
837.897
844.246
850.683
857.195
863.799
870.47
877.247
884.074
891.043
898.027
905.151
912.771
917.303
145.233
145.323
145.423
145.534
145.657
145.794
145.945
146.113
146.3
146.506
146.734
146.986
147.264
147.57
147.908
148.279
148.687
149.136
149.631
150.175
150.775
151.438
152.169
152.978
153.871
154.857
155.944
157.142
158.459
159.902
161.482
163.206
165.086
167.132
169.36
171.785
174.427
177.309
180.455
183.892
187.647
191.743
196.202
201.039
206.264
211.878
217.878
224.257
231.005
238.117
245.594
253.449
261.708
270.411
279.612
289.372
299.757
310.828
322.627
335.174
348.448
362.389
376.886
391.789
406.912
422.049
436.99
451.539
465.525
478.812
491.303
502.94
513.702
523.595
532.646
540.888
548.357
555.089
561.122
566.488
571.214
575.34
578.916
582.002
584.672
587.007
589.094
591.024
592.882
594.731
596.617
598.555
600.65
602.765
604.869
606.945
608.998
611.043
613.084
615.125
617.171
619.227
621.292
623.357
625.405
627.43
629.441
631.34
633.128
634.898
636.732
638.666
640.693
642.8
644.98
647.22
649.51
651.836
654.185
656.542
658.904
661.281
663.665
666.065
668.57
671.231
674.012
676.886
679.848
682.894
686.016
689.208
692.464
695.782
699.16
702.602
706.117
709.719
713.422
717.245
721.205
725.303
729.515
733.824
738.224
742.716
747.297
751.967
756.726
761.577
766.523
771.571
776.724
781.991
787.375
792.88
798.503
804.239
810.077
816.006
822.021
828.124
834.313
840.587
846.947
853.395
859.93
866.553
873.266
880.067
886.955
893.929
900.985
908.12
915.326
922.6
929.933
937.326
944.771
952.275
959.825
967.434
975.076
982.787
990.509
998.333
1006.1
1013.9
1022.78
1023.99
148.307
148.732
149.205
149.729
150.311
150.955
151.668
152.457
153.33
154.296
155.362
156.538
157.833
159.257
160.818
162.526
164.391
166.422
168.631
171.03
173.637
176.467
179.544
182.89
186.532
190.497
194.811
199.498
204.577
210.061
215.957
222.265
228.98
236.092
243.593
251.481
259.76
268.448
277.573
287.178
297.313
308.031
319.379
331.391
344.076
357.409
371.325
385.716
400.435
415.304
430.13
444.718
458.888
472.487
485.395
497.528
508.837
519.301
528.923
537.721
545.72
552.949
559.434
565.207
570.305
574.766
578.636
581.972
584.841
587.316
589.479
591.415
593.209
594.939
596.662
598.417
600.216
602.1
604.033
605.959
607.874
609.773
611.665
613.555
615.451
617.358
619.276
621.197
623.104
624.979
626.835
628.681
630.404
632.098
633.797
635.568
637.431
639.376
641.392
643.465
645.585
647.736
649.905
652.082
654.274
656.486
658.71
660.957
663.304
665.792
668.395
671.086
673.86
676.709
679.625
682.604
685.64
688.733
691.885
695.106
698.408
701.804
705.308
708.939
712.703
716.579
720.55
724.609
728.755
732.987
737.306
741.713
746.212
750.81
755.511
760.323
765.251
770.3
775.469
780.755
786.149
791.64
797.223
802.898
808.665
814.523
820.475
826.522
832.664
838.902
845.239
851.673
858.203
864.826
871.538
878.332
885.202
892.144
899.152
906.226
913.365
920.569
927.837
935.167
942.556
950.003
957.504
965.054
972.648
980.281
987.945
995.637
1003.35
1011.08
1018.81
1026.55
1034.3
1042.03
1049.76
1057.48
1065.17
1072.84
1080.47
1088.08
1095.62
1103.17
1110.53
1117.72
1124.87
1122.92
165.726
167.97
170.429
173.118
176.05
179.242
182.712
186.482
190.573
195.011
199.817
205.012
210.615
216.635
223.077
229.941
237.219
244.902
252.983
261.457
270.328
279.612
289.334
299.528
310.236
321.498
333.346
345.795
358.832
372.411
386.447
400.818
415.368
429.922
444.295
458.314
471.825
484.703
496.862
508.242
518.816
528.574
537.522
545.678
553.063
559.7
565.613
570.833
575.4
579.362
582.776
585.706
588.223
590.404
592.326
594.07
595.713
597.32
598.935
600.583
602.262
604
605.767
607.532
609.3
611.062
612.822
614.588
616.367
618.158
619.95
621.724
623.462
625.178
626.882
628.538
630.155
631.781
633.445
635.19
637.014
638.902
640.84
642.817
644.816
646.826
648.852
650.903
652.975
655.066
657.203
659.444
661.813
664.282
666.832
669.452
672.138
674.882
677.681
680.534
683.445
686.424
689.482
692.63
695.88
699.249
702.742
706.345
710.038
713.814
717.673
721.614
725.639
729.751
733.956
738.259
742.667
747.188
751.824
756.577
761.445
766.422
771.498
776.667
781.929
787.284
792.735
798.282
803.929
809.678
815.53
821.486
827.546
833.708
839.969
846.322
852.762
859.284
865.883
872.557
879.306
886.129
893.027
899.998
907.04
914.151
921.329
928.571
935.871
943.226
950.631
958.08
965.569
973.093
980.649
988.234
995.846
1003.48
1011.14
1018.8
1026.48
1034.17
1041.85
1049.52
1057.17
1064.79
1072.39
1079.94
1087.44
1094.89
1102.28
1109.61
1116.86
1124.05
1131.15
1138.16
1145.08
1151.9
1158.62
1165.23
1171.73
1178.13
1184.41
1190.56
1196.43
1201.77
1205.23
1200.85
224.369
231.516
239.157
247.281
255.872
264.909
274.378
284.272
294.592
305.354
316.577
328.285
340.494
353.21
366.411
380.05
394.044
408.278
422.607
436.869
450.898
464.534
477.641
490.11
501.865
512.861
523.075
532.502
541.147
549.024
556.152
562.552
568.247
573.266
577.647
581.439
584.7
587.497
589.899
591.979
593.809
595.462
597.01
598.516
600.022
601.553
603.108
604.68
606.301
607.927
609.569
611.215
612.863
614.52
616.192
617.873
619.543
621.183
622.789
624.375
625.956
627.513
629.063
630.632
632.233
633.905
635.644
637.436
639.265