/*--------------------------------*- C++ -*----------------------------------*\
| =========                 |                                                 |
| \\      /  F ield         | OpenFOAM: The Open Source CFD Toolbox           |
|  \\    /   O peration     | Version:  v1706                                 |
|   \\  /    A nd           | Web:      www.OpenFOAM.com                      |
|    \\/     M anipulation  |                                                 |
\*---------------------------------------------------------------------------*/
FoamFile
{
    version     2.0;
    format      ascii;
    class       volScalarField;
    location    "6e-06";
    object      Tv;
}
// * * * * * * * * * * * * * * * * * * * * * * * * * * * * * * * * * * * * * //

dimensions      [0 0 0 1 0 0 0];


internalField   nonuniform List<scalar> 
30104
(
144.4
144.4
144.4
144.4
144.4
144.4
144.4
144.4
144.4
144.4
144.4
144.4
144.4
144.4
144.4
144.4
144.4
144.4
144.4
144.4
144.4
144.4
144.4
144.4
144.4
144.4
144.4
144.4
144.4
144.4
144.4
144.4
144.4
144.4
144.4
144.4
144.4
144.4
144.4
144.4
144.4
144.4
144.4
144.4
144.4
144.4
144.4
144.4
144.4
144.4
144.4
144.4
144.4
144.4
144.4
144.4
144.4
144.4
144.4
144.4
144.4
144.4
144.4
144.4
144.4
144.4
144.4
144.4
144.4
144.4
144.4
144.4
144.4
144.4
144.4
144.4
144.4
144.4
144.4
144.4
144.4
144.4
144.4
144.4
144.4
144.4
144.4
144.4
144.4
144.4
144.4
144.4
144.4
144.4
144.4
144.4
144.4
144.4
144.4
144.4
144.4
144.4
144.4
144.4
144.4
144.4
144.4
144.4
144.4
144.4
144.4
144.4
144.4
144.4
144.4
144.4
144.4
144.4
144.4
144.4
144.4
144.4
144.4
144.4
144.4
144.4
144.4
144.4
144.4
144.4
144.4
144.4
144.4
144.4
144.4
144.4
144.4
144.4
144.4
144.4
144.4
144.4
144.4
144.4
144.4
144.4
144.4
144.4
144.4
144.4
144.4
144.4
144.4
144.4
144.4
144.4
144.4
144.4
144.4
144.4
144.4
144.4
144.4
144.4
144.4
144.4
144.4
144.4
144.4
144.4
144.4
144.4
144.4
144.4
144.4
144.4
144.4
144.4
144.4
144.4
144.4
144.4
144.4
144.4
144.4
144.4
144.4
144.4
144.4
144.4
144.4
144.4
144.4
144.4
144.4
144.4
144.4
144.4
144.4
144.4
144.4
144.4
144.4
144.4
144.4
144.4
144.4
144.4
144.4
144.4
144.4
144.4
144.4
144.4
144.4
144.4
144.4
144.4
144.4
144.4
144.4
144.4
144.4
144.4
144.4
144.4
144.4
144.4
144.4
144.4
144.4
144.4
144.4
144.4
144.4
144.4
144.4
144.4
144.4
144.4
144.4
144.4
144.4
144.4
144.4
144.4
144.4
144.4
144.4
144.4
144.4
144.4
144.4
144.4
144.4
144.4
144.4
144.4
144.4
144.4
144.4
144.4
144.4
144.4
144.4
144.4
144.4
144.4
144.4
144.4
144.4
144.4
144.4
144.4
144.4
144.4
144.4
144.4
144.4
144.4
144.4
144.4
144.4
144.4
144.4
144.4
144.4
144.4
144.4
144.4
144.4
144.4
144.4
144.4
144.4
144.4
144.4
144.4
144.4
144.4
144.4
144.4
144.4
144.4
144.4
144.4
144.4
144.4
144.4
144.4
144.4
144.4
144.4
144.4
144.4
144.4
144.4
144.4
144.4
144.4
144.4
144.4
144.4
144.4
144.4
144.4
144.4
144.4
144.4
144.4
144.4
144.4
144.4
144.4
144.4
144.4
144.4
144.4
144.4
144.4
144.4
144.4
144.4
144.4
144.4
144.4
144.4
144.4
144.4
144.4
144.4
144.4
144.4
144.4
144.4
144.4
144.4
144.4
144.4
144.4
144.4
144.4
144.4
144.4
144.4
144.4
144.4
144.4
144.4
144.4
144.4
144.4
144.4
144.4
144.4
144.4
144.4
144.4
144.4
144.4
144.4
144.4
144.4
144.4
144.4
144.4
144.4
144.4
144.4
144.4
144.4
144.4
144.4
144.4
144.4
144.4
144.4
144.4
144.4
144.4
144.4
144.4
144.4
144.4
144.4
144.4
144.4
144.4
144.4
144.4
144.4
144.4
144.4
144.4
144.4
144.4
144.4
144.4
144.4
144.4
144.4
144.4
144.4
144.4
144.4
144.4
144.4
144.4
144.4
144.4
144.4
144.4
144.4
144.4
144.4
144.4
144.4
144.4
144.4
144.4
144.4
144.4
144.4
144.4
144.4
144.4
144.4
144.4
144.4
144.4
144.4
144.4
144.4
144.4
144.4
144.4
144.4
144.4
144.4
144.4
144.4
144.4
144.4
144.4
144.4
144.4
144.4
144.4
144.4
144.4
144.4
144.4
144.4
144.4
144.4
144.4
144.4
144.4
144.4
144.4
144.4
144.4
144.4
144.4
144.4
144.4
144.4
144.4
144.4
144.4
144.4
144.4
144.4
144.4
144.4
144.4
144.4
144.4
144.4
144.4
144.4
144.4
144.4
144.4
144.4
144.4
144.4
144.4
144.4
144.4
144.4
144.4
144.4
144.4
144.4
144.4
144.4
144.4
144.4
144.4
144.4
144.4
144.4
144.4
144.4
144.4
144.4
144.4
144.4
144.4
144.4
144.4
144.4
144.4
144.4
144.4
144.4
144.4
144.4
144.4
144.4
144.4
144.4
144.4
144.4
144.4
144.4
144.4
144.4
144.4
144.4
144.4
144.4
144.4
144.4
144.4
144.4
144.4
144.4
144.4
144.4
144.4
144.4
144.4
144.4
144.4
144.4
144.4
144.4
144.4
144.4
144.4
144.4
144.4
144.4
144.4
144.4
144.4
144.4
144.4
144.4
144.4
144.4
144.4
144.4
144.4
144.4
144.4
144.4
144.4
144.4
144.4
144.4
144.4
144.4
144.4
144.4
144.4
144.4
144.4
144.4
144.4
144.4
144.4
144.4
144.4
144.4
144.4
144.4
144.4
144.4
144.4
144.4
144.4
144.4
144.4
144.4
144.4
144.4
144.4
144.4
144.4
144.4
144.4
144.4
144.4
144.4
144.4
144.4
144.4
144.4
144.4
144.4
144.4
144.4
144.4
144.4
144.4
144.4
144.4
144.4
144.4
144.4
144.4
144.4
144.4
144.4
144.4
144.4
144.4
144.4
144.4
144.4
144.4
144.4
144.4
144.4
144.4
144.4
144.4
144.4
144.4
144.4
144.4
144.4
144.4
144.4
144.4
144.4
144.4
144.4
144.4
144.4
144.4
144.4
144.4
144.4
144.4
144.4
144.4
144.4
144.4
144.4
144.4
144.4
144.4
144.4
144.4
144.4
144.4
144.4
144.4
144.4
144.4
144.4
144.4
144.4
144.4
144.4
144.4
144.4
144.4
144.4
144.4
144.4
144.4
144.4
144.4
144.4
144.4
144.4
144.4
144.4
144.4
144.4
144.4
144.4
144.4
144.4
144.4
144.4
144.4
144.4
144.4
144.4
144.4
144.4
144.4
144.4
144.4
144.4
144.4
144.4
144.4
144.4
144.4
144.4
144.4
144.4
144.4
144.4
144.4
144.4
144.4
144.4
144.4
144.4
144.4
144.4
144.4
144.4
144.4
144.4
144.4
144.4
144.4
144.4
144.4
144.4
144.4
144.4
144.4
144.4
144.4
144.4
144.4
144.4
144.4
144.4
144.4
144.4
144.4
144.4
144.4
144.4
144.4
144.4
144.4
144.4
144.4
144.4
144.4
144.4
144.4
144.4
144.4
144.4
144.4
144.4
144.4
144.4
144.4
144.4
144.4
144.4
144.4
144.4
144.4
144.4
144.4
144.4
144.4
144.4
144.4
144.4
144.4
144.4
144.4
144.4
144.4
144.4
144.4
144.4
144.4
144.4
144.4
144.4
144.4
144.4
144.4
144.4
144.4
144.4
144.4
144.4
144.4
144.4
144.4
144.4
144.4
144.4
144.4
144.4
144.4
144.4
144.4
144.4
144.4
144.4
144.4
144.4
144.4
144.4
144.4
144.4
144.4
144.4
144.4
144.4
144.4
144.4
144.4
144.4
144.4
144.4
144.4
144.4
144.4
144.4
144.4
144.4
144.4
144.4
144.4
144.4
144.4
144.4
144.4
144.4
144.4
144.4
144.4
144.4
144.4
144.4
144.4
144.4
144.4
144.4
144.4
144.4
144.4
144.4
144.4
144.4
144.4
144.4
144.4
144.4
144.4
144.4
144.4
144.4
144.4
144.4
144.4
144.4
144.4
144.4
144.4
144.4
144.4
144.4
144.4
144.4
144.4
144.4
144.4
144.4
144.4
144.4
144.4
144.4
144.4
144.4
144.4
144.4
144.4
144.4
144.4
144.4
144.4
144.4
144.4
144.4
144.4
144.4
144.4
144.4
144.4
144.4
144.4
144.4
144.4
144.4
144.4
144.4
144.4
144.4
144.4
144.4
144.4
144.4
144.4
144.4
144.4
144.4
144.4
144.4
144.4
144.4
144.4
144.4
144.4
144.4
144.4
144.4
144.4
144.4
144.4
144.4
144.4
144.4
144.4
144.4
144.4
144.4
144.4
144.4
144.4
144.4
144.4
144.4
144.4
144.4
144.4
144.4
144.4
144.4
144.4
144.4
144.4
144.4
144.4
144.4
144.4
144.4
144.4
144.4
144.4
144.4
144.4
144.4
144.4
144.4
144.4
144.4
144.4
144.4
144.4
144.4
144.4
144.4
144.4
144.4
144.4
144.4
144.4
144.4
144.4
144.4
144.4
144.4
144.4
144.4
144.4
144.4
144.4
144.4
144.4
144.4
144.4
144.4
144.4
144.4
144.4
144.4
144.4
144.4
144.4
144.4
144.4
144.4
144.4
144.4
144.4
144.4
144.4
144.4
144.4
144.4
144.4
144.4
144.4
144.4
144.4
144.4
144.4
144.4
144.4
144.4
144.4
144.4
144.4
144.4
144.4
144.4
144.4
144.4
144.4
144.4
144.4
144.4
144.4
144.4
144.4
144.4
144.4
144.4
144.4
144.4
144.4
144.4
144.4
144.4
144.4
144.4
144.4
144.4
144.4
144.4
144.4
144.4
144.4
144.4
144.4
144.4
144.4
144.4
144.4
144.4
144.4
144.4
144.4
144.4
144.4
144.4
144.4
144.4
144.4
144.4
144.4
144.4
144.4
144.4
144.4
144.4
144.4
144.4
144.4
144.4
144.4
144.4
144.4
144.4
144.4
144.4
144.4
144.4
144.4
144.4
144.4
144.4
144.4
144.4
144.4
144.4
144.4
144.4
144.4
144.4
144.4
144.4
144.4
144.4
144.4
144.4
144.4
144.4
144.4
144.4
144.4
144.4
144.4
144.4
144.4
144.4
144.4
144.4
144.4
144.4
144.4
144.4
144.4
144.4
144.4
144.4
144.4
144.4
144.4
144.4
144.4
144.4
144.4
144.4
144.4
144.4
144.4
144.4
144.4
144.4
144.4
144.4
144.4
144.4
144.4
144.4
144.4
144.4
144.4
144.4
144.4
144.4
144.4
144.4
144.4
144.4
144.4
144.4
144.4
144.4
144.4
144.4
144.4
144.4
144.4
144.4
144.4
144.4
144.4
144.4
144.4
144.4
144.4
144.4
144.4
144.4
144.4
144.4
144.4
144.4
144.4
144.4
144.4
144.4
144.4
144.4
144.4
144.4
144.4
144.4
144.4
144.4
144.4
144.4
144.4
144.4
144.4
144.4
144.4
144.4
144.4
144.4
144.4
144.4
144.4
144.4
144.4
144.4
144.4
144.4
144.4
144.4
144.4
144.4
144.4
144.4
144.4
144.4
144.4
144.4
144.4
144.4
144.4
144.4
144.4
144.4
144.4
144.4
144.4
144.4
144.4
144.4
144.4
144.4
144.4
144.4
144.4
144.4
144.4
144.4
144.4
144.4
144.4
144.4
144.4
144.4
144.4
144.4
144.4
144.4
144.4
144.4
144.4
144.4
144.4
144.4
144.4
144.4
144.4
144.4
144.4
144.4
144.4
144.4
144.4
144.4
144.4
144.4
144.4
144.4
144.4
144.4
144.4
144.4
144.4
144.4
144.4
144.4
144.4
144.4
144.4
144.4
144.4
144.4
144.4
144.4
144.4
144.4
144.4
144.4
144.4
144.4
144.4
144.4
144.4
144.4
144.4
144.4
144.4
144.4
144.4
144.4
144.4
144.4
144.4
144.4
144.4
144.4
144.4
144.4
144.4
144.4
144.4
144.4
144.4
144.4
144.4
144.4
144.4
144.4
144.4
144.4
144.4
144.4
144.4
144.4
144.4
144.4
144.4
144.4
144.4
144.4
144.4
144.4
144.4
144.4
144.4
144.4
144.4
144.4
144.4
144.4
144.4
144.4
144.4
144.4
144.4
144.4
144.4
144.4
144.4
144.4
144.4
144.4
144.4
144.4
144.4
144.4
144.4
144.4
144.4
144.4
144.4
144.4
144.4
144.4
144.4
144.4
144.4
144.4
144.4
144.4
144.4
144.4
144.4
144.4
144.4
144.4
144.4
144.4
144.4
144.4
144.4
144.4
144.4
144.4
144.4
144.4
144.4
144.4
144.4
144.4
144.4
144.4
144.4
144.4
144.4
144.4
144.4
144.4
144.4
144.4
144.4
144.4
144.4
144.4
144.4
144.4
144.4
144.4
144.4
144.4
144.4
144.4
144.4
144.4
144.4
144.4
144.4
144.4
144.4
144.4
144.4
144.4
144.4
144.4
144.4
144.4
144.4
144.4
144.4
144.4
144.4
144.4
144.4
144.4
144.4
144.4
144.4
144.4
144.4
144.4
144.4
144.4
144.4
144.4
144.4
144.4
144.4
144.4
144.4
144.4
144.4
144.4
144.4
144.4
144.4
144.4
144.4
144.4
144.4
144.4
144.4
144.4
144.4
144.4
144.4
144.4
144.4
144.4
144.4
144.4
144.4
144.4
144.4
144.4
144.4
144.4
144.4
144.4
144.4
144.4
144.4
144.4
144.4
144.4
144.4
144.4
144.4
144.4
144.4
144.4
144.4
144.4
144.4
144.4
144.4
144.4
144.4
144.4
144.4
144.4
144.4
144.4
144.4
144.4
144.4
144.4
144.4
144.4
144.4
144.4
144.4
144.4
144.4
144.4
144.4
144.4
144.4
144.4
144.4
144.4
144.4
144.4
144.4
144.4
144.4
144.4
144.4
144.4
144.4
144.4
144.4
144.4
144.4
144.4
144.4
144.4
144.4
144.4
144.4
144.4
144.4
144.4
144.4
144.4
144.4
144.4
144.4
144.4
144.4
144.4
144.4
144.4
144.4
144.4
144.4
144.4
144.4
144.4
144.4
144.4
144.4
144.4
144.4
144.4
144.4
144.4
144.4
144.4
144.4
144.4
144.4
144.4
144.4
144.4
144.4
144.4
144.4
144.4
144.4
144.4
144.4
144.4
144.4
144.4
144.4
144.4
144.4
144.4
144.4
144.4
144.4
144.4
144.4
144.4
144.4
144.4
144.4
144.4
144.4
144.4
144.4
144.4
144.4
144.4
144.4
144.4
144.4
144.4
144.4
144.4
144.4
144.4
144.4
144.4
144.4
144.401
144.401
144.401
144.401
144.401
144.401
144.401
144.401
144.401
144.402
144.402
144.402
144.402
144.402
144.403
144.403
144.403
144.404
144.404
144.4
144.4
144.4
144.4
144.4
144.4
144.4
144.4
144.4
144.4
144.4
144.4
144.4
144.4
144.4
144.4
144.4
144.4
144.4
144.4
144.4
144.4
144.4
144.4
144.4
144.4
144.4
144.4
144.4
144.4
144.4
144.4
144.4
144.4
144.4
144.4
144.4
144.4
144.4
144.4
144.4
144.4
144.4
144.4
144.4
144.4
144.4
144.4
144.4
144.4
144.4
144.4
144.4
144.4
144.4
144.4
144.4
144.4
144.4
144.4
144.4
144.4
144.4
144.4
144.4
144.4
144.4
144.4
144.4
144.4
144.4
144.4
144.4
144.4
144.4
144.4
144.4
144.4
144.4
144.4
144.4
144.4
144.4
144.4
144.4
144.4
144.4
144.4
144.4
144.4
144.4
144.4
144.4
144.4
144.4
144.4
144.4
144.4
144.4
144.4
144.4
144.4
144.4
144.4
144.4
144.4
144.4
144.4
144.4
144.4
144.4
144.4
144.4
144.4
144.4
144.4
144.4
144.4
144.4
144.4
144.4
144.4
144.4
144.4
144.4
144.4
144.4
144.4
144.4
144.4
144.4
144.4
144.4
144.4
144.4
144.4
144.4
144.4
144.4
144.4
144.4
144.4
144.4
144.4
144.4
144.4
144.4
144.4
144.4
144.4
144.4
144.4
144.4
144.4
144.4
144.4
144.4
144.4
144.4
144.4
144.4
144.4
144.4
144.4
144.4
144.4
144.401
144.401
144.401
144.401
144.401
144.401
144.401
144.401
144.401
144.401
144.402
144.402
144.402
144.402
144.403
144.403
144.403
144.404
144.404
144.405
144.405
144.406
144.407
144.407
144.408
144.409
144.411
144.412
144.413
144.415
144.417
144.419
144.421
144.424
144.427
144.43
144.434
144.438
144.443
144.448
144.452
144.4
144.4
144.4
144.4
144.4
144.4
144.4
144.4
144.4
144.4
144.4
144.4
144.4
144.4
144.4
144.4
144.4
144.4
144.4
144.4
144.4
144.4
144.4
144.4
144.4
144.4
144.4
144.4
144.4
144.4
144.4
144.4
144.4
144.4
144.4
144.4
144.4
144.4
144.4
144.4
144.4
144.4
144.4
144.4
144.4
144.4
144.4
144.4
144.4
144.4
144.4
144.4
144.4
144.4
144.4
144.4
144.4
144.4
144.4
144.4
144.4
144.4
144.4
144.4
144.4
144.4
144.4
144.4
144.4
144.4
144.4
144.4
144.4
144.4
144.4
144.4
144.4
144.4
144.4
144.4
144.4
144.4
144.4
144.4
144.4
144.4
144.4
144.4
144.4
144.4
144.4
144.4
144.4
144.4
144.4
144.4
144.4
144.4
144.4
144.4
144.4
144.4
144.4
144.4
144.4
144.4
144.4
144.4
144.4
144.4
144.4
144.4
144.4
144.4
144.4
144.4
144.4
144.4
144.4
144.4
144.4
144.4
144.4
144.4
144.4
144.4
144.4
144.4
144.4
144.4
144.4
144.4
144.4
144.4
144.4
144.4
144.4
144.4
144.4
144.4
144.4
144.4
144.4
144.4
144.4
144.4
144.401
144.401
144.401
144.401
144.401
144.401
144.401
144.401
144.401
144.402
144.402
144.402
144.402
144.403
144.403
144.403
144.404
144.404
144.405
144.405
144.406
144.407
144.407
144.408
144.409
144.41
144.412
144.413
144.415
144.417
144.419
144.422
144.424
144.427
144.431
144.435
144.439
144.444
144.45
144.456
144.463
144.47
144.479
144.488
144.498
144.51
144.523
144.537
144.553
144.572
144.592
144.615
144.642
144.671
144.705
144.743
144.785
144.832
144.884
144.943
145.004
144.4
144.4
144.4
144.4
144.4
144.4
144.4
144.4
144.4
144.4
144.4
144.4
144.4
144.4
144.4
144.4
144.4
144.4
144.4
144.4
144.4
144.4
144.4
144.4
144.4
144.4
144.4
144.4
144.4
144.4
144.4
144.4
144.4
144.4
144.4
144.4
144.4
144.4
144.4
144.4
144.4
144.4
144.4
144.4
144.4
144.4
144.4
144.4
144.4
144.4
144.4
144.4
144.4
144.4
144.4
144.4
144.4
144.4
144.4
144.4
144.4
144.4
144.4
144.4
144.4
144.4
144.4
144.4
144.4
144.4
144.4
144.4
144.4
144.4
144.4
144.4
144.4
144.4
144.4
144.4
144.4
144.4
144.4
144.4
144.4
144.4
144.4
144.4
144.4
144.4
144.4
144.4
144.4
144.4
144.4
144.4
144.4
144.4
144.4
144.4
144.4
144.4
144.4
144.4
144.4
144.4
144.4
144.4
144.4
144.4
144.4
144.4
144.4
144.4
144.4
144.4
144.4
144.4
144.4
144.4
144.4
144.4
144.4
144.4
144.4
144.4
144.4
144.401
144.401
144.401
144.401
144.401
144.401
144.401
144.401
144.401
144.402
144.402
144.402
144.402
144.403
144.403
144.403
144.404
144.404
144.405
144.406
144.406
144.407
144.408
144.409
144.41
144.411
144.413
144.415
144.417
144.419
144.421
144.424
144.427
144.431
144.435
144.439
144.445
144.45
144.457
144.464
144.472
144.481
144.49
144.502
144.514
144.528
144.543
144.561
144.581
144.604
144.629
144.658
144.691
144.727
144.769
144.815
144.867
144.925
144.988
145.058
145.134
145.216
145.305
145.401
145.503
145.613
145.731
145.857
145.993
146.138
146.295
146.465
146.65
146.849
147.067
147.304
147.561
147.839
148.131
148.515
144.4
144.4
144.4
144.4
144.4
144.4
144.4
144.4
144.4
144.4
144.4
144.4
144.4
144.4
144.4
144.4
144.4
144.4
144.4
144.4
144.4
144.4
144.4
144.4
144.4
144.4
144.4
144.4
144.4
144.4
144.4
144.4
144.4
144.4
144.4
144.4
144.4
144.4
144.4
144.4
144.4
144.4
144.4
144.4
144.4
144.4
144.4
144.4
144.4
144.4
144.4
144.4
144.4
144.4
144.4
144.4
144.4
144.4
144.4
144.4
144.4
144.4
144.4
144.4
144.4
144.4
144.4
144.4
144.4
144.4
144.4
144.4
144.4
144.4
144.4
144.4
144.4
144.4
144.4
144.4
144.4
144.4
144.4
144.4
144.4
144.4
144.4
144.4
144.4
144.4
144.4
144.4
144.4
144.4
144.4
144.4
144.4
144.4
144.4
144.4
144.4
144.4
144.4
144.4
144.4
144.4
144.4
144.4
144.401
144.401
144.401
144.401
144.401
144.401
144.401
144.401
144.402
144.402
144.402
144.402
144.403
144.403
144.403
144.404
144.404
144.405
144.405
144.406
144.407
144.408
144.409
144.41
144.411
144.413
144.414
144.416
144.419
144.421
144.424
144.427
144.431
144.435
144.439
144.445
144.451
144.457
144.465
144.473
144.482
144.493
144.504
144.517
144.532
144.548
144.567
144.588
144.612
144.639
144.67
144.704
144.743
144.787
144.836
144.891
144.951
145.018
145.091
145.171
145.257
145.351
145.451
145.56
145.677
145.802
145.937
146.084
146.242
146.413
146.599
146.802
147.023
147.262
147.522
147.802
148.102
148.422
148.762
149.118
149.491
149.876
150.272
150.677
151.088
151.503
151.921
152.34
152.76
153.178
153.597
154.013
154.43
154.845
155.261
155.68
156.083
156.622
144.4
144.4
144.4
144.4
144.4
144.4
144.4
144.4
144.4
144.4
144.4
144.4
144.4
144.4
144.4
144.4
144.4
144.4
144.4
144.4
144.4
144.4
144.4
144.4
144.4
144.4
144.4
144.4
144.4
144.4
144.4
144.4
144.4
144.4
144.4
144.4
144.4
144.4
144.4
144.4
144.4
144.4
144.4
144.4
144.4
144.4
144.4
144.4
144.4
144.4
144.4
144.4
144.4
144.4
144.4
144.4
144.4
144.4
144.4
144.4
144.4
144.4
144.4
144.4
144.4
144.4
144.4
144.4
144.4
144.4
144.4
144.4
144.4
144.4
144.4
144.4
144.4
144.4
144.4
144.4
144.4
144.4
144.4
144.4
144.4
144.4
144.4
144.4
144.401
144.401
144.401
144.401
144.401
144.401
144.401
144.401
144.401
144.402
144.402
144.402
144.402
144.403
144.403
144.404
144.404
144.405
144.405
144.406
144.407
144.408
144.409
144.41
144.411
144.413
144.414
144.416
144.419
144.421
144.424
144.427
144.431
144.435
144.44
144.445
144.452
144.459
144.466
144.475
144.485
144.496
144.508
144.522
144.537
144.555
144.575
144.597
144.623
144.652
144.684
144.721
144.762
144.808
144.86
144.918
144.981
145.051
145.127
145.211
145.301
145.399
145.504
145.618
145.74
145.873
146.016
146.171
146.339
146.522
146.721
146.937
147.172
147.426
147.699
147.992
148.305
148.635
148.982
149.343
149.717
150.101
150.494
150.892
151.294
151.699
152.106
152.514
152.922
153.33
153.739
154.148
154.558
154.969
155.383
155.8
156.22
156.643
157.071
157.503
157.939
158.379
158.823
159.274
159.728
160.181
160.635
161.088
161.541
161.991
162.442
162.89
163.338
163.788
164.216
164.797
144.4
144.4
144.4
144.4
144.4
144.4
144.4
144.4
144.4
144.4
144.4
144.4
144.4
144.4
144.4
144.4
144.4
144.4
144.4
144.4
144.4
144.4
144.4
144.4
144.4
144.4
144.4
144.4
144.4
144.4
144.4
144.4
144.4
144.4
144.4
144.4
144.4
144.4
144.4
144.4
144.4
144.4
144.4
144.4
144.4
144.4
144.4
144.4
144.4
144.4
144.4
144.4
144.4
144.4
144.4
144.4
144.4
144.4
144.4
144.4
144.4
144.4
144.4
144.4
144.4
144.4
144.4
144.4
144.4
144.4
144.401
144.401
144.401
144.401
144.401
144.401
144.401
144.401
144.401
144.402
144.402
144.402
144.402
144.403
144.403
144.404
144.404
144.405
144.405
144.406
144.407
144.408
144.409
144.41
144.411
144.413
144.415
144.417
144.419
144.422
144.425
144.428
144.432
144.437
144.442
144.448
144.454
144.461
144.47
144.479
144.489
144.501
144.515
144.529
144.546
144.565
144.587
144.611
144.639
144.67
144.705
144.744
144.788
144.838
144.893
144.954
145.021
145.095
145.176
145.264
145.359
145.462
145.574
145.694
145.825
145.966
146.119
146.284
146.465
146.66
146.872
147.102
147.35
147.617
147.902
148.204
148.524
148.859
149.207
149.567
149.936
150.313
150.695
151.081
151.471
151.862
152.256
152.65
153.047
153.444
153.844
154.246
154.652
155.061
155.475
155.893
156.316
156.743
157.176
157.613
158.054
158.501
158.952
159.402
159.853
160.304
160.754
161.203
161.651
162.099
162.546
162.993
163.44
163.887
164.335
164.784
165.234
165.685
166.137
166.592
167.051
167.511
167.969
168.425
168.879
169.332
169.783
170.234
170.683
171.131
171.582
172.012
172.589
144.4
144.4
144.4
144.4
144.4
144.4
144.4
144.4
144.4
144.4
144.4
144.4
144.4
144.4
144.4
144.4
144.4
144.4
144.4
144.4
144.4
144.4
144.4
144.4
144.4
144.4
144.4
144.4
144.4
144.4
144.4
144.4
144.4
144.4
144.4
144.4
144.4
144.4
144.4
144.4
144.4
144.4
144.4
144.4
144.4
144.4
144.4
144.4
144.4
144.4
144.4
144.4
144.401
144.401
144.401
144.401
144.401
144.401
144.401
144.401
144.401
144.402
144.402
144.402
144.403
144.403
144.403
144.404
144.404
144.405
144.406
144.406
144.407
144.408
144.409
144.411
144.412
144.414
144.416
144.418
144.421
144.424
144.427
144.431
144.435
144.44
144.445
144.452
144.459
144.467
144.476
144.486
144.498
144.511
144.526
144.542
144.561
144.582
144.606
144.633
144.664
144.698
144.737
144.78
144.828
144.882
144.942
145.008
145.081
145.161
145.247
145.342
145.444
145.555
145.674
145.804
145.945
146.097
146.262
146.441
146.635
146.845
147.071
147.315
147.577
147.856
148.151
148.462
148.787
149.125
149.473
149.83
150.194
150.563
150.936
151.313
151.692
152.074
152.458
152.844
153.232
153.624
154.019
154.419
154.823
155.231
155.645
156.064
156.488
156.917
157.349
157.787
158.229
158.671
159.113
159.556
159.999
160.442
160.885
161.328
161.772
162.216
162.662
163.109
163.557
164.007
164.459
164.912
165.368
165.827
166.288
166.747
167.204
167.66
168.115
168.568
169.021
169.473
169.925
170.376
170.826
171.277
171.728
172.179
172.63
173.081
173.533
173.985
174.436
174.886
175.334
175.78
176.225
176.669
177.112
177.554
177.996
178.437
178.881
179.306
179.858
144.4
144.4
144.4
144.4
144.4
144.4
144.4
144.4
144.4
144.4
144.4
144.4
144.4
144.4
144.4
144.4
144.4
144.4
144.4
144.4
144.4
144.4
144.4
144.4
144.4
144.4
144.4
144.4
144.4
144.4
144.4
144.4
144.4
144.4
144.4
144.401
144.401
144.401
144.401
144.401
144.401
144.401
144.401
144.402
144.402
144.402
144.402
144.403
144.403
144.404
144.404
144.405
144.405
144.406
144.407
144.408
144.409
144.411
144.412
144.414
144.416
144.418
144.421
144.423
144.427
144.431
144.435
144.44
144.445
144.452
144.459
144.467
144.477
144.487
144.499
144.512
144.527
144.544
144.564
144.585
144.61
144.637
144.668
144.703
144.742
144.786
144.835
144.89
144.95
145.017
145.09
145.171
145.258
145.354
145.457
145.569
145.691
145.823
145.965
146.119
146.286
146.467
146.662
146.873
147.1
147.343
147.603
147.879
148.17
148.475
148.794
149.123
149.462
149.809
150.163
150.521
150.883
151.249
151.618
151.99
152.365
152.743
153.125
153.511
153.901
154.297
154.697
155.103
155.514
155.93
156.351
156.776
157.206
157.639
158.073
158.508
158.943
159.379
159.815
160.252
160.69
161.128
161.568
162.009
162.452
162.897
163.344
163.793
164.243
164.697
165.153
165.607
166.06
166.513
166.964
167.416
167.867
168.318
168.769
169.22
169.672
170.125
170.578
171.032
171.486
171.941
172.396
172.851
173.304
173.756
174.206
174.655
175.104
175.552
175.999
176.446
176.893
177.338
177.783
178.228
178.672
179.114
179.556
179.997
180.436
180.874
181.311
181.745
182.179
182.612
183.044
183.475
183.905
184.334
184.762
185.189
185.617
186.03
186.534
144.4
144.4
144.4
144.4
144.4
144.4
144.4
144.4
144.4
144.4
144.4
144.4
144.401
144.401
144.401
144.401
144.401
144.401
144.401
144.401
144.401
144.402
144.402
144.402
144.403
144.403
144.403
144.404
144.404
144.405
144.406
144.407
144.407
144.409
144.41
144.411
144.413
144.415
144.417
144.419
144.422
144.425
144.428
144.432
144.437
144.442
144.448
144.455
144.463
144.472
144.482
144.493
144.505
144.52
144.536
144.554
144.575
144.598
144.624
144.654
144.687
144.724
144.765
144.812
144.863
144.921
144.984
145.054
145.13
145.214
145.305
145.404
145.512
145.629
145.755
145.892
146.04
146.2
146.373
146.559
146.76
146.976
147.207
147.453
147.715
147.992
148.283
148.586
148.901
149.225
149.558
149.898
150.243
150.593
150.947
151.305
151.666
152.031
152.399
152.772
153.149
153.531
153.919
154.312
154.71
155.114
155.523
155.937
156.355
156.777
157.202
157.629
158.056
158.484
158.914
159.344
159.775
160.208
160.642
161.078
161.516
161.956
162.398
162.842
163.288
163.737
164.187
164.637
165.086
165.534
165.982
166.429
166.877
167.325
167.773
168.222
168.672
169.122
169.573
170.025
170.476
170.929
171.381
171.832
172.283
172.732
173.181
173.629
174.077
174.526
174.974
175.422
175.87
176.318
176.765
177.213
177.659
178.105
178.55
178.993
179.436
179.877
180.317
180.756
181.194
181.632
182.068
182.503
182.938
183.371
183.802
184.232
184.661
185.087
185.512
185.936
186.357
186.777
187.196
187.613
188.029
188.443
188.856
189.267
189.677
190.085
190.491
190.896
191.297
191.699
192.092
192.524
144.401
144.401
144.401
144.401
144.402
144.402
144.402
144.402
144.403
144.403
144.404
144.404
144.405
144.406
144.406
144.407
144.408
144.41
144.411
144.413
144.414
144.417
144.419
144.422
144.425
144.428
144.432
144.437
144.442
144.448
144.455
144.463
144.471
144.481
144.493
144.505
144.52
144.536
144.554
144.575
144.598
144.624
144.654
144.687
144.724
144.765
144.811
144.862
144.919
144.982
145.051
145.126
145.209
145.3
145.398
145.505
145.621
145.746
145.882
146.028
146.186
146.356
146.539
146.736
146.946
147.172
147.412
147.666
147.935
148.216
148.51
148.815
149.129
149.451
149.78
150.115
150.454
150.799
151.147
151.499
151.856
152.216
152.581
152.952
153.327
153.709
154.096
154.488
154.886
155.289
155.697
156.109
156.524
156.942
157.361
157.782
158.203
158.627
159.051
159.478
159.906
160.336
160.768
161.203
161.64
162.08
162.521
162.964
163.409
163.854
164.298
164.742
165.186
165.63
166.075
166.52
166.965
167.412
167.859
168.307
168.756
169.205
169.655
170.104
170.553
171.001
171.449
171.896
172.342
172.789
173.236
173.682
174.129
174.575
175.022
175.468
175.914
176.359
176.803
177.247
177.689
178.131
178.572
179.012
179.452
179.891
180.33
180.768
181.206
181.642
182.078
182.513
182.946
183.378
183.809
184.238
184.666
185.093
185.518
185.942
186.364
186.786
187.205
187.623
188.04
188.454
188.867
189.277
189.685
190.091
190.495
190.897
191.296
191.694
192.089
192.483
192.874
193.263
193.65
194.035
194.417
194.797
195.174
195.549
195.92
196.289
196.654
197.019
197.379
197.719
144.406
144.407
144.409
144.41
144.411
144.413
144.415
144.417
144.42
144.423
144.426
144.43
144.434
144.439
144.445
144.451
144.459
144.467
144.477
144.487
144.499
144.513
144.528
144.546
144.565
144.587
144.612
144.64
144.671
144.706
144.745
144.788
144.836
144.89
144.949
145.014
145.085
145.163
145.249
145.342
145.444
145.554
145.673
145.801
145.94
146.089
146.25
146.423
146.608
146.807
147.019
147.245
147.484
147.738
148.004
148.282
148.572
148.871
149.179
149.494
149.816
150.144
150.477
150.814
151.155
151.501
151.851
152.207
152.567
152.933
153.304
153.682
154.065
154.453
154.847
155.246
155.649
156.056
156.465
156.876
157.289
157.703
158.12
158.538
158.958
159.38
159.805
160.232
160.662
161.094
161.528
161.964
162.403
162.842
163.281
163.72
164.16
164.599
165.04
165.481
165.923
166.366
166.809
167.254
167.699
168.145
168.591
169.038
169.483
169.929
170.374
170.819
171.263
171.708
172.153
172.598
173.043
173.488
173.933
174.378
174.822
175.266
175.708
176.15
176.591
177.032
177.472
177.911
178.35
178.789
179.226
179.664
180.1
180.535
180.97
181.403
181.836
182.267
182.697
183.126
183.554
183.981
184.407
184.832
185.255
185.678
186.099
186.519
186.937
187.354
187.769
188.182
188.594
189.004
189.412
189.818
190.223
190.625
191.026
191.424
191.821
192.215
192.607
192.996
193.383
193.767
194.148
194.527
194.903
195.276
195.646
196.014
196.378
196.74
197.099
197.455
197.807
198.157
198.502
198.845
199.184
199.519
199.85
200.178
200.502
200.823
201.137
201.45
201.76
201.991
144.457
144.465
144.475
144.485
144.498
144.512
144.527
144.545
144.565
144.588
144.613
144.641
144.673
144.708
144.747
144.791
144.839
144.893
144.951
145.016
145.087
145.165
145.25
145.342
145.443
145.551
145.669
145.796
145.933
146.08
146.237
146.407
146.588
146.781
146.988
147.207
147.439
147.684
147.942
148.211
148.491
148.781
149.079
149.385
149.698
150.016
150.34
150.668
151.001
151.339
151.681
152.029
152.382
152.74
153.105
153.475
153.851
154.233
154.62
155.012
155.408
155.807
156.209
156.612
157.018
157.426
157.836
158.248
158.663
159.08
159.5
159.923
160.348
160.776
161.206
161.637
162.07
162.504
162.937
163.371
163.806
164.242
164.678
165.116
165.554
165.994
166.435
166.876
167.318
167.76
168.203
168.645
169.087
169.529
169.971
170.413
170.855
171.298
171.741
172.184
172.626
173.069
173.511
173.953
174.394
174.835
175.274
175.714
176.153
176.592
177.03
177.468
177.905
178.342
178.778
179.213
179.647
180.08
180.512
180.943
181.373
181.802
182.23
182.657
183.083
183.508
183.932
184.355
184.776
185.196
185.614
186.031
186.447
186.861
187.274
187.685
188.095
188.503
188.909
189.314
189.717
190.119
190.518
190.916
191.311
191.705
192.096
192.485
192.872
193.257
193.639
194.019
194.396
194.771
195.143
195.513
195.879
196.243
196.603
196.961
197.315
197.666
198.013
198.357
198.698
199.034
199.367
199.696
200.022
200.343
200.66
200.973
201.282
201.587
201.887
202.183
202.474
202.76
203.042
203.318
203.589
203.856
204.117
204.374
204.622
204.865
205.107
205.22
144.721
144.763
144.809
144.86
144.917
144.979
145.048
145.124
145.206
145.296
145.393
145.498
145.612
145.734
145.865
146.007
146.158
146.319
146.492
146.676
146.871
147.079
147.299
147.532
147.776
148.032
148.298
148.575
148.86
149.154
149.454
149.761
150.073
150.391
150.713
151.041
151.373
151.71
152.053
152.402
152.756
153.116
153.483
153.855
154.232
154.615
155.001
155.391
155.784
156.18
156.578
156.978
157.381
157.786
158.194
158.605
159.018
159.435
159.854
160.275
160.699
161.124
161.551
161.978
162.406
162.835
163.264
163.695
164.127
164.561
164.995
165.43
165.867
166.304
166.741
167.179
167.617
168.055
168.494
168.932
169.371
169.81
170.249
170.689
171.129
171.569
172.008
172.448
172.887
173.325
173.764
174.201
174.639
175.076
175.513
175.95
176.386
176.822
177.257
177.692
178.125
178.558
178.99
179.421
179.851
180.28
180.708
181.136
181.563
181.988
182.413
182.836
183.259
183.68
184.099
184.518
184.934
185.35
185.764
186.177
186.588
186.998
187.406
187.813
188.218
188.621
189.023
189.422
189.82
190.216
190.61
191.002
191.392
191.78
192.166
192.551
192.932
193.312
193.69
194.065
194.437
194.807
195.175
195.54
195.902
196.262
196.618
196.972
197.322
197.669
198.013
198.354
198.691
199.025
199.355
199.681
200.003
200.322
200.636
200.946
201.251
201.552
201.849
202.141
202.428
202.71
202.987
203.259
203.526
203.788
204.045
204.296
204.541
204.781
205.015
205.243
205.464
205.679
205.887
206.089
206.284
206.472
206.653
206.827
206.992
207.143
207.291
207.294
145.716
145.847
145.988
146.14
146.302
146.476
146.66
146.856
147.064
147.283
147.514
147.756
148.009
148.271
148.543
148.823
149.11
149.404
149.703
150.009
150.319
150.635
150.955