/*--------------------------------*- C++ -*----------------------------------*\
| =========                 |                                                 |
| \\      /  F ield         | OpenFOAM: The Open Source CFD Toolbox           |
|  \\    /   O peration     | Version:  v1706                                 |
|   \\  /    A nd           | Web:      www.OpenFOAM.com                      |
|    \\/     M anipulation  |                                                 |
\*---------------------------------------------------------------------------*/
FoamFile
{
    version     2.0;
    format      ascii;
    class       volVectorField;
    location    "6e-06";
    object      U;
}
// * * * * * * * * * * * * * * * * * * * * * * * * * * * * * * * * * * * * * //

dimensions      [0 1 -1 0 0 0 0];


internalField   nonuniform List<vector> 
30104
(
(2764.5 -4.71784e-11 1.97924e-15)
(2764.5 -4.6323e-11 6.28806e-15)
(2764.5 -4.46914e-11 4.82995e-15)
(2764.5 -4.40691e-11 2.94659e-15)
(2764.5 -4.17235e-11 3.27527e-15)
(2764.5 -4.06211e-11 3.4514e-15)
(2764.5 -3.97323e-11 1.1527e-15)
(2764.5 -3.98508e-11 1.85948e-15)
(2764.5 -3.91386e-11 4.47414e-15)
(2764.5 -4.05487e-11 4.3899e-15)
(2764.5 -4.24809e-11 3.88409e-15)
(2764.5 -4.35097e-11 4.09753e-15)
(2764.5 -4.57875e-11 1.66492e-15)
(2764.5 -4.73495e-11 2.72773e-15)
(2764.5 -4.68168e-11 4.51009e-15)
(2764.5 -4.54429e-11 5.15375e-15)
(2764.5 -4.37181e-11 4.5345e-15)
(2764.5 -2.18484e-10 1.44546e-15)
(2764.5 -2.15591e-10 3.38987e-15)
(2764.5 -2.12836e-10 3.50299e-15)
(2764.5 -2.06883e-10 3.24207e-15)
(2764.5 -1.99151e-10 3.03266e-15)
(2764.5 -1.90236e-10 3.19573e-15)
(2764.5 -1.82846e-10 2.07577e-15)
(2764.5 -1.71346e-10 4.42635e-15)
(2764.5 -1.56837e-10 4.08821e-15)
(2764.5 -1.43807e-10 1.9976e-15)
(2764.5 -1.28878e-10 3.34538e-15)
(2764.5 -1.15552e-10 2.34508e-15)
(2764.5 -9.82641e-11 4.61564e-15)
(2764.5 -7.9233e-11 5.12216e-15)
(2764.5 -5.53212e-11 1.31511e-15)
(2764.5 -3.09299e-11 2.49897e-15)
(2764.5 -6.55357e-12 3.17622e-15)
(2764.5 1.70138e-11 2.22736e-15)
(2764.5 4.14602e-11 5.62677e-15)
(2764.5 6.1164e-11 2.40405e-15)
(2764.5 9.02936e-11 4.20512e-15)
(2764.5 1.18948e-10 5.26541e-15)
(2764.5 1.41869e-10 2.60181e-15)
(2764.5 1.65353e-10 2.20749e-15)
(2764.5 1.9787e-10 2.39525e-15)
(2764.5 2.22463e-10 2.14765e-15)
(2764.5 2.40608e-10 2.13101e-15)
(2764.5 2.66964e-10 2.39713e-15)
(2764.5 2.89877e-10 2.40168e-15)
(2764.5 3.02339e-10 3.31942e-15)
(2764.5 3.1212e-10 4.87656e-16)
(2764.5 3.21746e-10 3.69941e-15)
(2764.5 3.27392e-10 4.66804e-15)
(2764.5 3.31595e-10 2.57293e-15)
(2764.5 3.30747e-10 1.77051e-15)
(2764.5 3.27566e-10 1.75326e-15)
(2764.5 3.2456e-10 4.17328e-15)
(2764.5 3.15489e-10 1.95055e-15)
(2764.5 3.07414e-10 2.52151e-15)
(2764.5 2.93828e-10 3.31577e-15)
(2764.5 2.78213e-10 1.64009e-15)
(2764.5 2.68368e-10 2.05357e-15)
(2764.5 2.52907e-10 2.05714e-15)
(2764.5 2.2945e-10 2.91992e-15)
(2764.5 2.05423e-10 4.02315e-15)
(2764.5 1.69363e-10 2.05195e-15)
(2764.5 1.48509e-10 2.17727e-15)
(2764.5 1.14912e-10 1.76394e-15)
(2764.5 8.4756e-11 3.44904e-15)
(2764.5 4.92572e-11 -1.40434e-16)
(2764.5 1.54999e-11 3.47741e-15)
(2764.5 -2.5984e-11 2.35654e-15)
(2764.5 -5.88237e-11 -2.35766e-17)
(2764.5 -1.02107e-10 3.17034e-16)
(2764.5 -1.45791e-10 2.31835e-15)
(2764.5 -1.89221e-10 1.74322e-16)
(2764.5 -2.28953e-10 1.54545e-15)
(2764.5 -2.73486e-10 1.96571e-15)
(2764.5 -3.10572e-10 8.41602e-16)
(2764.5 -3.49605e-10 6.99387e-16)
(2764.5 -3.87363e-10 -4.62468e-16)
(2764.5 -4.21904e-10 1.43135e-15)
(2764.5 -4.4531e-10 2.39717e-15)
(2764.5 -4.6781e-10 -8.29988e-17)
(2764.5 -4.95991e-10 2.92155e-15)
(2764.5 -5.12607e-10 2.53721e-15)
(2764.5 -5.32343e-10 1.15969e-15)
(2764.5 -5.55285e-10 2.31536e-15)
(2764.5 -5.82761e-10 1.42181e-15)
(2764.5 -6.02184e-10 1.93053e-15)
(2764.5 -6.18933e-10 1.20149e-15)
(2764.5 -6.33893e-10 5.78729e-16)
(2764.5 -6.4722e-10 1.18747e-15)
(2764.5 -6.56958e-10 -7.82674e-16)
(2764.5 -6.6954e-10 1.21644e-15)
(2764.5 -6.79109e-10 1.57785e-15)
(2764.5 -6.80143e-10 2.06781e-15)
(2764.5 -6.82649e-10 -2.12105e-16)
(2764.5 -6.83948e-10 -2.02025e-15)
(2764.5 -6.76102e-10 1.54746e-15)
(2764.5 -6.69822e-10 7.48592e-17)
(2764.5 -6.52453e-10 1.49832e-15)
(2764.5 -6.25726e-10 8.71376e-16)
(2764.5 -5.87134e-10 -1.20757e-15)
(2764.5 -5.40878e-10 3.07448e-15)
(2764.5 -4.97422e-10 3.48342e-15)
(2764.5 -4.40963e-10 2.87223e-15)
(2764.5 -3.74744e-10 1.60745e-15)
(2764.5 -2.94716e-10 1.88243e-15)
(2764.5 -2.07169e-10 3.34425e-15)
(2764.5 -8.81827e-11 3.21159e-15)
(2764.5 3.71873e-11 3.97835e-15)
(2764.5 1.68663e-10 4.94694e-15)
(2764.5 2.65685e-10 4.03564e-15)
(2764.5 2.92056e-10 1.85532e-15)
(2764.5 3.11306e-10 3.93992e-15)
(2764.5 3.39223e-10 2.20344e-15)
(2764.5 3.63964e-10 9.61965e-16)
(2764.5 3.88566e-10 3.79623e-15)
(2764.5 4.18925e-10 3.59585e-15)
(2764.5 4.52552e-10 3.65657e-15)
(2764.5 4.92853e-10 3.49685e-15)
(2764.5 5.30774e-10 2.92559e-15)
(2764.5 5.57586e-10 2.95886e-15)
(2764.5 6.0014e-10 2.96259e-15)
(2764.5 6.40068e-10 3.68115e-15)
(2764.5 6.86045e-10 2.14153e-15)
(2764.5 7.28933e-10 1.68417e-15)
(2764.5 7.65114e-10 3.93138e-15)
(2764.5 8.0837e-10 4.26472e-15)
(2764.5 8.46636e-10 3.82348e-15)
(2764.5 8.84215e-10 4.22625e-15)
(2764.5 9.29869e-10 3.50824e-15)
(2764.5 9.63495e-10 3.36747e-15)
(2764.5 9.96603e-10 2.24687e-15)
(2764.5 1.03212e-09 2.6783e-15)
(2764.5 1.06801e-09 3.252e-15)
(2764.5 1.11102e-09 3.78462e-15)
(2764.5 1.16347e-09 3.59164e-15)
(2764.5 1.21817e-09 3.22041e-15)
(2764.5 1.26649e-09 3.7522e-15)
(2764.5 1.33133e-09 1.97939e-15)
(2764.5 1.4118e-09 4.02954e-15)
(2764.5 1.49502e-09 4.55956e-15)
(2764.5 1.57872e-09 1.74726e-15)
(2764.5 1.6718e-09 1.18234e-15)
(2764.5 1.79097e-09 2.11297e-15)
(2764.5 1.93991e-09 2.23305e-15)
(2764.5 2.09352e-09 2.85062e-15)
(2764.5 2.26616e-09 2.06518e-15)
(2764.5 2.45584e-09 2.68299e-15)
(2764.5 2.63345e-09 3.11123e-15)
(2764.5 2.81875e-09 2.48946e-15)
(2764.5 2.99979e-09 3.15602e-15)
(2764.5 3.17994e-09 2.0678e-15)
(2764.5 3.36541e-09 3.36701e-15)
(2764.5 3.54655e-09 2.0461e-15)
(2764.5 3.73779e-09 2.92654e-15)
(2764.5 3.94626e-09 2.85834e-15)
(2764.5 4.15885e-09 2.07393e-15)
(2764.5 4.37598e-09 3.52866e-15)
(2764.5 4.59292e-09 4.38796e-15)
(2764.5 4.80191e-09 3.64575e-15)
(2764.5 5.00076e-09 3.89343e-15)
(2764.5 5.17952e-09 2.20814e-15)
(2764.5 5.32977e-09 2.54386e-15)
(2764.5 5.43595e-09 4.61751e-15)
(2764.5 5.46606e-09 3.73353e-15)
(2764.5 5.39123e-09 2.306e-15)
(2764.5 5.18742e-09 2.14897e-15)
(2764.5 4.82767e-09 3.58816e-15)
(2764.5 4.29425e-09 1.99495e-15)
(2764.5 3.54352e-09 2.73584e-15)
(2764.5 2.56855e-09 2.51989e-15)
(2764.5 1.37888e-09 2.66874e-15)
(2764.5 3.75944e-11 3.45843e-15)
(2764.5 -1.38577e-09 2.85376e-15)
(2764.5 -2.81459e-09 3.29451e-15)
(2764.5 -4.15266e-09 3.03689e-15)
(2764.5 -5.29083e-09 2.35651e-15)
(2764.5 -6.14019e-09 1.85862e-15)
(2764.5 -6.60223e-09 3.11246e-15)
(2764.5 -6.57428e-09 1.35864e-15)
(2764.5 -5.97216e-09 2.6376e-15)
(2764.5 -4.73383e-09 2.46255e-15)
(2764.5 -2.81519e-09 2.10804e-15)
(2764.5 -2.21726e-10 3.44664e-15)
(2764.5 3.08229e-09 2.54839e-15)
(2764.5 7.13967e-09 2.43866e-15)
(2764.5 1.19239e-08 1.00862e-15)
(2764.5 1.7359e-08 2.99744e-15)
(2764.5 2.3314e-08 2.7897e-15)
(2764.5 2.96101e-08 2.24922e-15)
(2764.5 3.59615e-08 2.28107e-15)
(2764.5 4.20456e-08 1.85285e-15)
(2764.5 4.76345e-08 1.57537e-15)
(2764.5 5.26452e-08 2.81896e-15)
(2764.5 5.71262e-08 2.69017e-15)
(2764.5 6.11924e-08 1.80631e-15)
(2764.5 6.49385e-08 2.16233e-15)
(2764.5 6.85011e-08 1.76153e-15)
(2764.5 7.19775e-08 2.27447e-15)
(2764.5 7.54282e-08 3.21169e-15)
(2764.5 7.89079e-08 2.37848e-15)
(2764.5 8.24578e-08 2.93175e-15)
(2764.5 8.6037e-08 2.49889e-15)
(2764.5 8.97767e-08 1.81921e-15)
(2764.5 9.34506e-08 2.84368e-15)
(2764.5 9.73881e-08 3.1514e-15)
(2764.5 1.0159e-07 3.11191e-15)
(2764.5 1.0354e-07 2.94131e-15)
(2764.5 1.10572e-07 2.87679e-15)
(2764.5 1.0283e-07 2.60427e-15)
(2764.5 -1.21617e-10 1.21907e-14)
(2764.5 -1.22173e-10 1.45055e-14)
(2764.5 -1.24781e-10 1.13725e-14)
(2764.5 -1.26063e-10 1.11498e-14)
(2764.5 -1.27201e-10 1.11429e-14)
(2764.5 -1.29764e-10 1.09552e-14)
(2764.5 -1.32741e-10 1.27312e-14)
(2764.5 -1.35835e-10 1.3078e-14)
(2764.5 -1.39351e-10 1.37082e-14)
(2764.5 -1.37964e-10 1.18557e-14)
(2764.5 -1.34719e-10 1.20318e-14)
(2764.5 -1.2836e-10 1.40022e-14)
(2764.5 -1.1865e-10 1.56131e-14)
(2764.5 -1.08548e-10 1.37447e-14)
(2764.5 -9.87506e-11 1.39935e-14)
(2764.5 -9.19463e-11 1.3606e-14)
(2764.5 -9.16164e-11 1.12996e-14)
(2764.5 2.2511e-10 5.76668e-15)
(2764.5 2.61062e-10 7.97345e-15)
(2764.5 3.00614e-10 1.04283e-14)
(2764.5 3.45401e-10 1.01719e-14)
(2764.5 3.78283e-10 9.46848e-15)
(2764.5 4.08918e-10 1.03602e-14)
(2764.5 4.39325e-10 8.43335e-15)
(2764.5 4.66132e-10 9.0299e-15)
(2764.5 4.705e-10 1.21528e-14)
(2764.5 4.81534e-10 8.92214e-15)
(2764.5 4.8795e-10 5.23575e-15)
(2764.5 4.85322e-10 7.50492e-15)
(2764.5 4.62435e-10 7.70384e-15)
(2764.5 4.44654e-10 7.07289e-15)
(2764.5 4.22207e-10 4.05844e-15)
(2764.5 3.9389e-10 4.9145e-15)
(2764.5 3.62313e-10 5.79346e-15)
(2764.5 3.18069e-10 5.39018e-15)
(2764.5 2.67855e-10 9.01103e-15)
(2764.5 2.31981e-10 8.16211e-15)
(2764.5 1.58555e-10 8.74948e-15)
(2764.5 7.42034e-11 9.4081e-15)
(2764.5 7.27268e-12 9.03812e-15)
(2764.5 -5.24212e-11 8.56402e-15)
(2764.5 -1.50282e-10 7.42292e-15)
(2764.5 -2.38964e-10 7.04739e-15)
(2764.5 -3.08819e-10 6.31148e-15)
(2764.5 -3.90458e-10 6.44741e-15)
(2764.5 -4.78815e-10 5.45266e-15)
(2764.5 -5.43112e-10 7.08382e-15)
(2764.5 -6.10861e-10 3.76104e-15)
(2764.5 -6.66851e-10 7.3916e-15)
(2764.5 -7.21904e-10 6.52365e-15)
(2764.5 -7.74558e-10 5.83573e-15)
(2764.5 -8.1052e-10 3.65942e-15)
(2764.5 -8.40054e-10 3.80896e-15)
(2764.5 -8.77894e-10 7.65674e-15)
(2764.5 -9.17011e-10 4.83812e-15)
(2764.5 -9.32136e-10 4.25445e-15)
(2764.5 -9.55865e-10 6.61512e-15)
(2764.5 -9.80767e-10 7.16405e-15)
(2764.5 -1.00235e-09 8.75789e-15)
(2764.5 -1.01009e-09 6.60413e-15)
(2764.5 -1.01345e-09 5.82317e-15)
(2764.5 -1.01867e-09 8.65416e-15)
(2764.5 -1.01979e-09 7.39709e-15)
(2764.5 -1.01028e-09 4.94341e-15)
(2764.5 -9.892e-10 2.9738e-15)
(2764.5 -9.69984e-10 6.14112e-15)
(2764.5 -9.47295e-10 3.77847e-15)
(2764.5 -9.20151e-10 5.91232e-15)
(2764.5 -8.7695e-10 6.94688e-15)
(2764.5 -8.33863e-10 6.82278e-15)
(2764.5 -7.82521e-10 7.93794e-15)
(2764.5 -7.13984e-10 4.59175e-15)
(2764.5 -6.36718e-10 3.57979e-15)
(2764.5 -5.59551e-10 6.74027e-15)
(2764.5 -4.74421e-10 6.51292e-15)
(2764.5 -3.44448e-10 1.01615e-14)
(2764.5 -2.14338e-10 9.03808e-15)
(2764.5 -7.40621e-11 7.06545e-15)
(2764.5 7.40879e-11 8.0916e-15)
(2764.5 2.18553e-10 8.71441e-15)
(2764.5 3.48792e-10 8.43691e-15)
(2764.5 4.44932e-10 1.09412e-14)
(2764.5 4.85629e-10 1.06771e-14)
(2764.5 5.2478e-10 9.01057e-15)
(2764.5 5.76008e-10 7.79766e-15)
(2764.5 6.32243e-10 1.06592e-14)
(2764.5 6.82002e-10 9.72912e-15)
(2764.5 7.37765e-10 9.65963e-15)
(2764.5 7.96123e-10 8.82556e-15)
(2764.5 8.52688e-10 8.77524e-15)
(2764.5 9.22471e-10 8.37759e-15)
(2764.5 9.86672e-10 1.20699e-14)
(2764.5 1.0599e-09 1.0445e-14)
(2764.5 1.13169e-09 8.47693e-15)
(2764.5 1.20501e-09 7.55431e-15)
(2764.5 1.28123e-09 8.23094e-15)
(2764.5 1.3632e-09 8.08395e-15)
(2764.5 1.44592e-09 5.43329e-15)
(2764.5 1.52727e-09 6.457e-15)
(2764.5 1.59842e-09 7.974e-15)
(2764.5 1.67574e-09 9.866e-15)
(2764.5 1.76565e-09 9.84904e-15)
(2764.5 1.84267e-09 9.43325e-15)
(2764.5 1.91217e-09 8.05346e-15)
(2764.5 1.96645e-09 7.43887e-15)
(2764.5 2.00775e-09 9.27245e-15)
(2764.5 2.00831e-09 8.6929e-15)
(2764.5 1.97735e-09 9.55217e-15)
(2764.5 1.92691e-09 9.14653e-15)
(2764.5 1.84133e-09 7.94261e-15)
(2764.5 1.76123e-09 7.42864e-15)
(2764.5 1.75248e-09 4.06001e-15)
(2764.5 1.76294e-09 6.47515e-15)
(2764.5 1.76726e-09 4.55078e-15)
(2764.5 1.78101e-09 5.17409e-15)
(2764.5 1.79466e-09 8.34559e-15)
(2764.5 1.8323e-09 5.65303e-15)
(2764.5 1.9219e-09 6.77109e-15)
(2764.5 2.04105e-09 5.50622e-15)
(2764.5 2.2074e-09 5.71036e-15)
(2764.5 2.42562e-09 6.6903e-15)
(2764.5 2.69951e-09 7.25866e-15)
(2764.5 3.06077e-09 6.59089e-15)
(2764.5 3.48618e-09 5.1386e-15)
(2764.5 3.96515e-09 6.74545e-15)
(2764.5 4.51645e-09 6.24173e-15)
(2764.5 5.12979e-09 5.99992e-15)
(2764.5 5.82341e-09 8.81335e-15)
(2764.5 6.55979e-09 9.80899e-15)
(2764.5 7.31802e-09 6.13718e-15)
(2764.5 8.07863e-09 6.75337e-15)
(2764.5 8.82259e-09 6.62214e-15)
(2764.5 9.52766e-09 5.15083e-15)
(2764.5 1.02025e-08 7.81161e-15)
(2764.5 1.08567e-08 9.11806e-15)
(2764.5 1.1481e-08 7.02915e-15)
(2764.5 1.2075e-08 7.28808e-15)
(2764.5 1.26436e-08 5.52799e-15)
(2764.5 1.31788e-08 5.16085e-15)
(2764.5 1.36789e-08 8.44227e-15)
(2764.5 1.41427e-08 7.56052e-15)
(2764.5 1.45418e-08 5.80711e-15)
(2764.5 1.48595e-08 5.385e-15)
(2764.5 1.50418e-08 5.24741e-15)
(2764.5 1.50515e-08 5.26252e-15)
(2764.5 1.48803e-08 5.15131e-15)
(2764.5 1.44704e-08 5.04397e-15)
(2764.5 1.37986e-08 6.71352e-15)
(2764.5 1.2901e-08 4.53955e-15)
(2764.5 1.17841e-08 4.92232e-15)
(2764.5 1.0533e-08 5.68093e-15)
(2764.5 9.22091e-09 5.78518e-15)
(2764.5 7.94918e-09 7.34621e-15)
(2764.5 6.81113e-09 5.5423e-15)
(2764.5 5.88455e-09 4.98089e-15)
(2764.5 5.28049e-09 5.4981e-15)
(2764.5 5.08552e-09 6.60625e-15)
(2764.5 5.40743e-09 6.83944e-15)
(2764.5 6.38136e-09 7.07557e-15)
(2764.5 8.12826e-09 6.9111e-15)
(2764.5 1.0777e-08 6.56744e-15)
(2764.5 1.44857e-08 6.95073e-15)
(2764.5 1.94174e-08 6.34182e-15)
(2764.5 2.57114e-08 5.43425e-15)
(2764.5 3.3487e-08 6.61236e-15)
(2764.5 4.28673e-08 5.68761e-15)
(2764.5 5.39393e-08 4.67299e-15)
(2764.5 6.67522e-08 5.98844e-15)
(2764.5 8.12515e-08 5.41065e-15)
(2764.5 9.7118e-08 6.91518e-15)
(2764.5 1.13897e-07 6.88141e-15)
(2764.5 1.30977e-07 5.98811e-15)
(2764.5 1.47757e-07 6.51126e-15)
(2764.5 1.63768e-07 5.6486e-15)
(2764.5 1.78748e-07 7.13171e-15)
(2764.5 1.92649e-07 6.81263e-15)
(2764.5 2.05547e-07 5.26024e-15)
(2764.5 2.17609e-07 6.18204e-15)
(2764.5 2.28942e-07 5.4398e-15)
(2764.5 2.39617e-07 4.91774e-15)
(2764.5 2.49656e-07 5.572e-15)
(2764.5 2.59011e-07 4.41033e-15)
(2764.5 2.67534e-07 5.21585e-15)
(2764.5 2.74989e-07 6.53634e-15)
(2764.5 2.80976e-07 6.19635e-15)
(2764.5 2.84712e-07 6.20588e-15)
(2764.5 2.8624e-07 6.29891e-15)
(2764.5 2.84733e-07 5.83257e-15)
(2764.5 2.79323e-07 4.48112e-15)
(2764.5 2.69103e-07 5.79156e-15)
(2764.5 2.53033e-07 6.44086e-15)
(2764.5 2.31635e-07 5.09172e-15)
(2764.5 2.05247e-07 5.41784e-15)
(2764.5 1.7419e-07 5.15291e-15)
(2764.5 1.39773e-07 5.20298e-15)
(2764.5 1.02912e-07 4.63742e-15)
(2764.5 6.59731e-08 4.95463e-15)
(2764.5 2.93884e-08 4.86443e-15)
(2764.5 -4.5733e-09 4.62876e-15)
(2764.5 -3.4839e-08 4.91261e-15)
(2764.5 -6.17226e-08 5.0705e-15)
(2764.5 -7.76537e-08 4.06493e-15)
(2764.5 -9.24021e-08 3.70143e-15)
(2764.5 -8.27069e-08 5.65464e-15)
(2764.5 -7.60961e-08 5.79308e-15)
(2764.5 -3.14718e-08 6.29092e-15)
(2764.5 1.45833e-08 6.624e-15)
(2764.5 9.96705e-08 6.011e-15)
(2764.5 1.98707e-07 5.15895e-15)
(2764.5 3.55334e-07 4.65001e-15)
(2764.5 -1.94494e-10 1.78538e-14)
(2764.5 -1.97074e-10 2.17877e-14)
(2764.5 -2.052e-10 2.09982e-14)
(2764.5 -2.09531e-10 2.05445e-14)
(2764.5 -2.1105e-10 2.12326e-14)
(2764.5 -2.07498e-10 2.0666e-14)
(2764.5 -2.02038e-10 2.1741e-14)
(2764.5 -1.95663e-10 2.19813e-14)
(2764.5 -1.87324e-10 2.15619e-14)
(2764.5 -1.85952e-10 2.1163e-14)
(2764.5 -1.86466e-10 2.07905e-14)
(2764.5 -1.91196e-10 2.19136e-14)
(2764.5 -2.01368e-10 1.73794e-14)
(2764.5 -2.25087e-10 1.73496e-14)
(2764.5 -2.49443e-10 2.19571e-14)
(2764.5 -2.63715e-10 2.01626e-14)
(2764.5 8.70398e-11 1.15375e-14)
(2764.5 -8.12907e-12 1.17092e-14)
(2764.5 -8.57884e-11 1.14555e-14)
(2764.5 -1.94719e-10 1.18716e-14)
(2764.5 -2.86583e-10 1.16068e-14)
(2764.5 -3.93535e-10 1.07484e-14)
(2764.5 -4.93684e-10 8.9536e-15)
(2764.5 -5.7949e-10 1.30814e-14)
(2764.5 -6.64633e-10 1.07234e-14)
(2764.5 -7.44342e-10 9.62861e-15)
(2764.5 -8.10658e-10 1.16377e-14)
(2764.5 -8.71895e-10 1.0634e-14)
(2764.5 -9.19047e-10 1.14193e-14)
(2764.5 -9.79269e-10 1.18423e-14)
(2764.5 -1.01713e-09 8.33899e-15)
(2764.5 -1.06929e-09 8.44948e-15)
(2764.5 -1.10652e-09 7.43313e-15)
(2764.5 -1.14658e-09 9.35644e-15)
(2764.5 -1.16387e-09 1.09381e-14)
(2764.5 -1.17319e-09 7.11691e-15)
(2764.5 -1.17866e-09 9.90576e-15)
(2764.5 -1.17201e-09 1.08266e-14)
(2764.5 -1.15968e-09 9.97304e-15)
(2764.5 -1.13724e-09 1.03416e-14)
(2764.5 -1.11526e-09 1.17889e-14)
(2764.5 -1.07457e-09 1.17632e-14)
(2764.5 -1.02514e-09 1.19047e-14)
(2764.5 -9.54403e-10 1.21042e-14)
(2764.5 -8.85813e-10 1.0528e-14)
(2764.5 -8.03858e-10 1.27617e-14)
(2764.5 -6.7895e-10 1.1768e-14)
(2764.5 -5.3705e-10 1.29782e-14)
(2764.5 -3.95107e-10 1.30799e-14)
(2764.5 -2.44869e-10 1.38351e-14)
(2764.5 -8.12349e-11 1.30814e-14)
(2764.5 5.84177e-11 1.74499e-14)
(2764.5 1.39305e-10 1.31105e-14)
(2764.5 1.92581e-10 1.40597e-14)
(2764.5 2.5136e-10 1.58965e-14)
(2764.5 3.22174e-10 1.51002e-14)
(2764.5 3.94512e-10 1.52884e-14)
(2764.5 4.58058e-10 1.82429e-14)
(2764.5 5.37118e-10 1.3634e-14)
(2764.5 6.26503e-10 1.60123e-14)
(2764.5 7.10686e-10 1.4659e-14)
(2764.5 8.00951e-10 1.46385e-14)
(2764.5 8.9531e-10 1.6929e-14)
(2764.5 9.87705e-10 1.73827e-14)
(2764.5 1.0851e-09 1.61715e-14)
(2764.5 1.1981e-09 1.43838e-14)
(2764.5 1.30201e-09 1.34206e-14)
(2764.5 1.40609e-09 1.43933e-14)
(2764.5 1.51162e-09 1.41453e-14)
(2764.5 1.62157e-09 1.29192e-14)
(2764.5 1.73564e-09 1.43929e-14)
(2764.5 1.84437e-09 1.75067e-14)
(2764.5 1.93876e-09 1.42624e-14)
(2764.5 2.0173e-09 1.37665e-14)
(2764.5 2.09425e-09 1.56134e-14)
(2764.5 2.15861e-09 1.50151e-14)
(2764.5 2.21068e-09 1.52889e-14)
(2764.5 2.24401e-09 1.44364e-14)
(2764.5 2.2727e-09 1.5049e-14)
(2764.5 2.3424e-09 1.46966e-14)
(2764.5 2.44064e-09 1.22433e-14)
(2764.5 2.57733e-09 1.15654e-14)
(2764.5 2.70237e-09 1.51499e-14)
(2764.5 2.85291e-09 1.33416e-14)
(2764.5 3.01076e-09 1.33107e-14)
(2764.5 3.15341e-09 1.51981e-14)
(2764.5 3.28166e-09 1.30015e-14)
(2764.5 3.40463e-09 1.25264e-14)
(2764.5 3.51895e-09 1.4195e-14)
(2764.5 3.61359e-09 1.39116e-14)
(2764.5 3.6908e-09 1.25819e-14)
(2764.5 3.74277e-09 1.17491e-14)
(2764.5 3.76854e-09 1.36191e-14)
(2764.5 3.78107e-09 1.22527e-14)
(2764.5 3.77956e-09 1.18105e-14)
(2764.5 3.76525e-09 1.0511e-14)
(2764.5 3.75628e-09 1.09506e-14)
(2764.5 3.76708e-09 1.21584e-14)
(2764.5 3.80006e-09 1.2927e-14)
(2764.5 3.87917e-09 1.2132e-14)
(2764.5 4.0549e-09 1.15079e-14)
(2764.5 4.33956e-09 1.20936e-14)
(2764.5 4.74042e-09 1.0966e-14)
(2764.5 5.27639e-09 1.03281e-14)
(2764.5 5.97956e-09 9.7385e-15)
(2764.5 6.83993e-09 1.03281e-14)
(2764.5 7.89756e-09 1.28381e-14)
(2764.5 9.18477e-09 1.13559e-14)
(2764.5 1.06832e-08 1.03059e-14)
(2764.5 1.23781e-08 1.12431e-14)
(2764.5 1.42557e-08 8.73372e-15)
(2764.5 1.62851e-08 9.78563e-15)
(2764.5 1.83611e-08 8.75614e-15)
(2764.5 2.04328e-08 1.06596e-14)
(2764.5 2.25003e-08 1.04129e-14)
(2764.5 2.45312e-08 8.98762e-15)
(2764.5 2.6499e-08 9.93723e-15)
(2764.5 2.83608e-08 1.03206e-14)
(2764.5 3.01124e-08 9.59145e-15)
(2764.5 3.17706e-08 1.15194e-14)
(2764.5 3.33073e-08 1.20928e-14)
(2764.5 3.46985e-08 9.13162e-15)
(2764.5 3.5893e-08 9.18738e-15)
(2764.5 3.68542e-08 1.13896e-14)
(2764.5 3.75324e-08 1.04913e-14)
(2764.5 3.78493e-08 1.15983e-14)
(2764.5 3.77406e-08 1.19038e-14)
(2764.5 3.71518e-08 1.19243e-14)
(2764.5 3.60385e-08 9.68022e-15)
(2764.5 3.44072e-08 1.03467e-14)
(2764.5 3.23029e-08 1.02931e-14)
(2764.5 2.98265e-08 9.93174e-15)
(2764.5 2.71273e-08 1.02024e-14)
(2764.5 2.44108e-08 1.11574e-14)
(2764.5 2.19013e-08 1.01328e-14)
(2764.5 1.9834e-08 1.06043e-14)
(2764.5 1.84795e-08 1.05747e-14)
(2764.5 1.80996e-08 9.64791e-15)
(2764.5 1.89991e-08 1.04127e-14)
(2764.5 2.15579e-08 1.02261e-14)
(2764.5 2.61669e-08 9.77408e-15)
(2764.5 3.32477e-08 9.50743e-15)
(2764.5 4.324e-08 8.59938e-15)
(2764.5 5.65551e-08 9.44997e-15)
(2764.5 7.35881e-08 7.66234e-15)
(2764.5 9.45943e-08 7.29315e-15)
(2764.5 1.19716e-07 8.40666e-15)
(2764.5 1.48983e-07 7.59277e-15)
(2764.5 1.82133e-07 1.03018e-14)
(2764.5 2.18573e-07 9.93026e-15)
(2764.5 2.57355e-07 8.57209e-15)
(2764.5 2.97277e-07 9.36372e-15)
(2764.5 3.37136e-07 8.98567e-15)
(2764.5 3.7597e-07 9.27565e-15)
(2764.5 4.13153e-07 1.10337e-14)
(2764.5 4.48384e-07 9.68544e-15)
(2764.5 4.81668e-07 9.07274e-15)
(2764.5 5.13164e-07 8.92346e-15)
(2764.5 5.42997e-07 9.63025e-15)
(2764.5 5.71235e-07 9.33047e-15)
(2764.5 5.97796e-07 8.59803e-15)
(2764.5 6.22412e-07 8.34782e-15)
(2764.5 6.44564e-07 9.66687e-15)
(2764.5 6.63501e-07 1.02488e-14)
(2764.5 6.78275e-07 9.61834e-15)
(2764.5 6.8789e-07 8.98623e-15)
(2764.5 6.91203e-07 9.71447e-15)
(2764.5 6.86174e-07 9.30664e-15)
(2764.5 6.70764e-07 9.84502e-15)
(2764.5 6.43888e-07 8.81634e-15)
(2764.5 6.05076e-07 7.96644e-15)
(2764.5 5.5451e-07 9.44437e-15)
(2764.5 4.9329e-07 9.16485e-15)
(2764.5 4.23421e-07 1.00903e-14)
(2764.5 3.47672e-07 8.82315e-15)
(2764.5 2.69296e-07 8.73681e-15)
(2764.5 1.91791e-07 9.01106e-15)
(2764.5 1.18792e-07 7.08396e-15)
(2764.5 5.43173e-08 6.90275e-15)
(2764.5 3.15507e-09 7.40027e-15)
(2764.5 -2.89087e-08 8.51234e-15)
(2764.5 -3.49983e-08 9.02034e-15)
(2764.5 -7.21152e-09 8.23965e-15)
(2764.5 6.31807e-08 7.32705e-15)
(2764.5 1.85618e-07 1.01762e-14)
(2764.5 3.69858e-07 7.82733e-15)
(2764.5 6.25553e-07 6.55434e-15)
(2764.5 9.61741e-07 8.60115e-15)
(2764.5 1.38631e-06 8.65102e-15)
(2764.5 1.90512e-06 7.86053e-15)
(2764.5 2.52175e-06 7.27597e-15)
(2764.5 3.23701e-06 7.12822e-15)
(2764.5 4.04667e-06 8.00718e-15)
(2764.5 4.93751e-06 8.33862e-15)
(2764.5 5.88646e-06 7.04969e-15)
(2764.5 6.86391e-06 6.28037e-15)
(2764.5 7.83726e-06 7.44329e-15)
(2764.5 8.7816e-06 7.15072e-15)
(2764.5 9.67398e-06 7.39348e-15)
(2764.5 1.0515e-05 7.73941e-15)
(2764.5 1.12955e-05 7.82686e-15)
(2764.5 1.20344e-05 9.17989e-15)
(2764.5 1.27287e-05 7.47137e-15)
(2764.5 1.33933e-05 6.93079e-15)
(2764.5 1.40322e-05 8.7843e-15)
(2764.5 1.46534e-05 7.60761e-15)
(2764.5 1.52364e-05 7.66982e-15)
(2764.5 1.58414e-05 8.38377e-15)
(2764.5 1.61645e-05 7.90869e-15)
(2764.5 -2.78283e-10 2.7314e-14)
(2764.5 -2.65865e-10 2.6367e-14)
(2764.5 -2.61399e-10 2.50988e-14)
(2764.5 -2.58151e-10 2.89606e-14)
(2764.5 -2.61423e-10 3.03143e-14)
(2764.5 -2.74693e-10 2.35698e-14)
(2764.5 -2.84143e-10 2.73842e-14)
(2764.5 -3.01317e-10 2.74763e-14)
(2764.5 -3.21623e-10 2.45691e-14)
(2764.5 -3.31378e-10 2.77206e-14)
(2764.5 -3.297e-10 3.28312e-14)
(2764.5 -3.19154e-10 3.01927e-14)
(2764.5 -2.99738e-10 2.74687e-14)
(2764.5 -2.84691e-10 2.61381e-14)
(2764.5 -2.5491e-10 2.64309e-14)
(2764.5 -2.18763e-10 2.46684e-14)
(2764.5 -1.15688e-09 1.49689e-14)
(2764.5 -1.14964e-09 1.42562e-14)
(2764.5 -1.11067e-09 1.54616e-14)
(2764.5 -1.06143e-09 1.6094e-14)
(2764.5 -1.02287e-09 1.76744e-14)
(2764.5 -9.28097e-10 2.0538e-14)
(2764.5 -8.22717e-10 1.73361e-14)
(2764.5 -7.19499e-10 1.72867e-14)
(2764.5 -5.82787e-10 1.98841e-14)
(2764.5 -4.27772e-10 2.18739e-14)
(2764.5 -2.70066e-10 1.94163e-14)
(2764.5 -1.25927e-10 2.11057e-14)
(2764.5 -4.07311e-11 1.96023e-14)
(2764.5 9.1015e-12 1.9679e-14)
(2764.5 5.57692e-11 2.27105e-14)
(2764.5 1.24325e-10 2.05685e-14)
(2764.5 2.02527e-10 2.12659e-14)
(2764.5 2.66824e-10 2.00118e-14)
(2764.5 3.42999e-10 1.84282e-14)
(2764.5 4.32177e-10 2.02781e-14)
(2764.5 5.24502e-10 2.17811e-14)
(2764.5 6.28642e-10 2.29627e-14)
(2764.5 7.32648e-10 2.26497e-14)
(2764.5 8.38506e-10 2.12587e-14)
(2764.5 9.42117e-10 1.98901e-14)
(2764.5 1.04076e-09 2.03498e-14)
(2764.5 1.14822e-09 2.13925e-14)
(2764.5 1.26309e-09 1.99609e-14)
(2764.5 1.35327e-09 2.39569e-14)
(2764.5 1.41948e-09 2.24791e-14)
(2764.5 1.48214e-09 1.92055e-14)
(2764.5 1.54287e-09 2.20792e-14)
(2764.5 1.58299e-09 1.97051e-14)
(2764.5 1.57065e-09 1.99168e-14)
(2764.5 1.54909e-09 1.99635e-14)
(2764.5 1.57961e-09 2.0558e-14)
(2764.5 1.68589e-09 2.01678e-14)
(2764.5 1.81443e-09 2.14379e-14)
(2764.5 1.95808e-09 2.04351e-14)
(2764.5 2.13278e-09 1.82353e-14)
(2764.5 2.3222e-09 2.06229e-14)
(2764.5 2.51764e-09 1.96191e-14)
(2764.5 2.74423e-09 1.93175e-14)
(2764.5 2.98531e-09 2.1011e-14)
(2764.5 3.23814e-09 2.03338e-14)
(2764.5 3.51358e-09 1.95775e-14)
(2764.5 3.79829e-09 1.95813e-14)
(2764.5 4.08306e-09 1.88047e-14)
(2764.5 4.38045e-09 2.02601e-14)
(2764.5 4.69058e-09 1.71249e-14)
(2764.5 5.00227e-09 1.64546e-14)
(2764.5 5.31014e-09 1.94864e-14)
(2764.5 5.60434e-09 1.90287e-14)
(2764.5 5.89102e-09 1.81175e-14)
(2764.5 6.17506e-09 1.87474e-14)
(2764.5 6.44047e-09 1.97498e-14)
(2764.5 6.67854e-09 1.7661e-14)
(2764.5 6.88773e-09 1.78009e-14)
(2764.5 7.07237e-09 1.80954e-14)
(2764.5 7.2296e-09 1.80152e-14)
(2764.5 7.35683e-09 1.88084e-14)
(2764.5 7.46074e-09 1.79755e-14)
(2764.5 7.56107e-09 1.68857e-14)
(2764.5 7.64717e-09 1.77538e-14)
(2764.5 7.73942e-09 1.51117e-14)
(2764.5 7.87279e-09 1.49235e-14)
(2764.5 8.06727e-09 1.87511e-14)
(2764.5 8.37106e-09 1.77217e-14)
(2764.5 8.81837e-09 1.74244e-14)
(2764.5 9.42889e-09 1.76684e-14)
(2764.5 1.02531e-08 1.71264e-14)
(2764.5 1.13425e-08 1.63124e-14)
(2764.5 1.27554e-08 1.65991e-14)
(2764.5 1.45287e-08 1.60843e-14)
(2764.5 1.66926e-08 1.6866e-14)
(2764.5 1.92667e-08 1.62671e-14)
(2764.5 2.2259e-08 1.69668e-14)
(2764.5 2.568e-08 1.5796e-14)
(2764.5 2.94945e-08 1.63802e-14)
(2764.5 3.36449e-08 1.5686e-14)
(2764.5 3.80364e-08 1.74573e-14)
(2764.5 4.25743e-08 1.58114e-14)
(2764.5 4.71751e-08 1.54609e-14)
(2764.5 5.1786e-08 1.48134e-14)
(2764.5 5.63705e-08 1.61349e-14)
(2764.5 6.08607e-08 1.60777e-14)
(2764.5 6.51837e-08 1.50282e-14)
(2764.5 6.92917e-08 1.44039e-14)
(2764.5 7.31408e-08 1.30203e-14)
(2764.5 7.6661e-08 1.53862e-14)
(2764.5 7.97748e-08 1.67057e-14)
(2764.5 8.23674e-08 1.53e-14)
(2764.5 8.43376e-08 1.52084e-14)
(2764.5 8.55852e-08 1.58421e-14)
(2764.5 8.60088e-08 1.426e-14)
(2764.5 8.55323e-08 1.37753e-14)
(2764.5 8.41495e-08 1.33698e-14)
(2764.5 8.19406e-08 1.39353e-14)
(2764.5 7.90912e-08 1.45704e-14)
(2764.5 7.58718e-08 1.31085e-14)
(2764.5 7.26161e-08 1.43454e-14)
(2764.5 6.97221e-08 1.3907e-14)
(2764.5 6.7665e-08 1.38727e-14)
(2764.5 6.69845e-08 1.48179e-14)
(2764.5 6.82652e-08 1.42292e-14)
(2764.5 7.2166e-08 1.28619e-14)
(2764.5 7.94453e-08 1.45114e-14)
(2764.5 9.09313e-08 1.49022e-14)
(2764.5 1.07504e-07 1.356e-14)
(2764.5 1.30069e-07 1.23985e-14)
(2764.5 1.59474e-07 1.33022e-14)
(2764.5 1.96488e-07 1.61463e-14)
(2764.5 2.41651e-07 1.27836e-14)
(2764.5 2.95216e-07 1.29655e-14)
(2764.5 3.57058e-07 1.31977e-14)
(2764.5 4.26548e-07 1.16875e-14)
(2764.5 5.0247e-07 1.28453e-14)
(2764.5 5.8313e-07 1.31889e-14)
(2764.5 6.66613e-07 1.40821e-14)
(2764.5 7.51058e-07 1.69057e-14)
(2764.5 8.34953e-07 1.44983e-14)
(2764.5 9.17185e-07 1.26975e-14)
(2764.5 9.97077e-07 1.42996e-14)
(2764.5 1.07425e-06 1.43162e-14)
(2764.5 1.14844e-06 1.38624e-14)
(2764.5 1.21928e-06 1.42194e-14)
(2764.5 1.28619e-06 1.23258e-14)
(2764.5 1.34825e-06 1.28936e-14)
(2764.5 1.40409e-06 1.43939e-14)
(2764.5 1.452e-06 1.33827e-14)
(2764.5 1.48995e-06 1.30953e-14)
(2764.5 1.51564e-06 1.25015e-14)
(2764.5 1.52642e-06 1.20284e-14)
(2764.5 1.51947e-06 1.22069e-14)
(2764.5 1.49243e-06 1.21615e-14)
(2764.5 1.4441e-06 1.24215e-14)
(2764.5 1.37471e-06 1.34117e-14)
(2764.5 1.28617e-06 1.37541e-14)
(2764.5 1.18211e-06 1.27656e-14)
(2764.5 1.06781e-06 1.20777e-14)
(2764.5 9.49831e-07 1.08886e-14)
(2764.5 8.35589e-07 1.15774e-14)
(2764.5 7.33133e-07 1.20845e-14)
(2764.5 6.51344e-07 1.2215e-14)
(2764.5 6.0039e-07 1.07717e-14)
(2764.5 5.92216e-07 1.3105e-14)
(2764.5 6.40849e-07 1.26001e-14)
(2764.5 7.62396e-07 1.24492e-14)
(2764.5 9.74853e-07 1.2586e-14)
(2764.5 1.29773e-06 1.16762e-14)
(2764.5 1.75123e-06 1.31303e-14)
(2764.5 2.35514e-06 1.06842e-14)
(2764.5 3.12752e-06 1.1384e-14)
(2764.5 4.08316e-06 1.08974e-14)
(2764.5 5.2321e-06 1.12669e-14)
(2764.5 6.57761e-06 1.11311e-14)
(2764.5 8.11347e-06 1.14886e-14)
(2764.5 9.82026e-06 1.30055e-14)
(2764.5 1.16638e-05 1.22817e-14)
(2764.5 1.35983e-05 1.11782e-14)
(2764.5 1.55738e-05 1.26182e-14)
(2764.5 1.75452e-05 1.16165e-14)
(2764.5 1.94786e-05 1.20713e-14)
(2764.5 2.13542e-05 1.00191e-14)
(2764.5 2.31646e-05 1.14561e-14)
(2764.5 2.49103e-05 1.23588e-14)
(2764.5 2.65956e-05 1.12963e-14)
(2764.5 2.82234e-05 1.06886e-14)
(2764.5 2.97929e-05 1.10082e-14)
(2764.5 3.12964e-05 9.83612e-15)
(2764.5 3.27184e-05 1.22251e-14)
(2764.5 3.40332e-05 1.07388e-14)
(2764.5 3.52044e-05 1.13391e-14)
(2764.5 3.61856e-05 1.19225e-14)
(2764.5 3.69253e-05 1.1247e-14)
(2764.5 3.73739e-05 1.08782e-14)
(2764.5 3.74636e-05 1.18541e-14)
(2764.5 3.70945e-05 1.1142e-14)
(2764.5 3.61877e-05 1.0642e-14)
(2764.5 3.47069e-05 1.0149e-14)
(2764.5 3.26388e-05 1.12366e-14)
(2764.5 2.99715e-05 1.07824e-14)
(2764.5 2.68498e-05 9.9931e-15)
(2764.5 2.31088e-05 1.04246e-14)
(2764.5 1.94084e-05 1.05135e-14)
(2764.5 1.48583e-05 1.04386e-14)
(2764.5 1.12715e-05 9.02085e-15)
(2764.5 6.48427e-06 8.74268e-15)
(2764.5 3.35784e-06 1.0375e-14)
(2764.5 -1.47224e-07 1.04036e-14)
(2764.5 -3.36576e-06 1.07967e-14)
(2764.5 -2.03625e-06 1.07032e-14)
(2764.5 -9.60237e-06 9.96082e-15)
(2764.5 -3.6851e-10 3.46008e-14)
(2764.5 -3.72534e-10 3.47056e-14)
(2764.5 -3.838e-10 3.78462e-14)
(2764.5 -3.93975e-10 4.01261e-14)
(2764.5 -3.96617e-10 3.53549e-14)
(2764.5 -3.94792e-10 3.40519e-14)
(2764.5 -3.82034e-10 3.68663e-14)
(2764.5 -3.56915e-10 3.63113e-14)
(2764.5 -3.21162e-10 3.41034e-14)
(2764.5 -2.85597e-10 3.96393e-14)
(2764.5 -2.75235e-10 3.97955e-14)
(2764.5 -2.77996e-10 3.50275e-14)
(2764.5 -2.91527e-10 3.53014e-14)
(2764.5 -3.19217e-10 3.3163e-14)
(2764.5 -3.66284e-10 3.23522e-14)
(2764.5 6.89583e-10 2.95901e-14)
(2764.5 7.87223e-10 2.8269e-14)
(2764.5 8.90598e-10 2.81034e-14)
(2764.5 9.94394e-10 2.6282e-14)
(2764.5 1.10461e-09 2.90983e-14)
(2764.5 1.20066e-09 2.69765e-14)
(2764.5 1.2734e-09 2.59304e-14)
(2764.5 1.32359e-09 2.8827e-14)
(2764.5 1.37342e-09 2.7744e-14)
(2764.5 1.40812e-09 2.88426e-14)
(2764.5 1.40321e-09 2.68823e-14)
(2764.5 1.40833e-09 2.63767e-14)
(2764.5 1.49078e-09 2.74453e-14)
(2764.5 1.60557e-09 2.7669e-14)
(2764.5 1.7255e-09 2.58116e-14)
(2764.5 1.86161e-09 2.64326e-14)
(2764.5 2.00612e-09 2.86801e-14)
(2764.5 2.14033e-09 2.64741e-14)
(2764.5 2.28623e-09 2.74293e-14)
(2764.5 2.44795e-09 2.51215e-14)
(2764.5 2.61505e-09 2.39049e-14)
(2764.5 2.80864e-09 2.51311e-14)
(2764.5 3.02488e-09 2.49348e-14)
(2764.5 3.24577e-09 2.54768e-14)
(2764.5 3.48031e-09 2.49066e-14)
(2764.5 3.74468e-09 2.49359e-14)
(2764.5 4.07564e-09 2.58804e-14)
(2764.5 4.44911e-09 2.52704e-14)