/*--------------------------------*- C++ -*----------------------------------*\
| =========                 |                                                 |
| \\      /  F ield         | OpenFOAM: The Open Source CFD Toolbox           |
|  \\    /   O peration     | Version:  v1706                                 |
|   \\  /    A nd           | Web:      www.OpenFOAM.com                      |
|    \\/     M anipulation  |                                                 |
\*---------------------------------------------------------------------------*/
FoamFile
{
    version     2.0;
    format      ascii;
    class       volScalarField;
    location    "6e-06";
    object      wallHeatFlux;
}
// * * * * * * * * * * * * * * * * * * * * * * * * * * * * * * * * * * * * * //

dimensions      [1 0 -3 0 0 0 0];


internalField   uniform 0;

boundaryField
{
    cone
    {
        type            calculated;
        value           nonuniform List<scalar> 
119
(
-2960.59
-2960.32
-2960.05
-2959.8
-2959.56
-2959.32
-2959.1
-2958.89
-2958.69
-2958.49
-2958.3
-2958.1
-2957.9
-2957.71
-2957.51
-2957.31
-2957.12
-2956.92
-2956.73
-2956.53
-2956.34
-2956.15
-2955.96
-2955.76
-2955.57
-2955.38
-2955.19
-2955
-2954.81
-2954.62
-2954.43
-2954.25
-2954.06
-2953.87
-2953.68
-2953.5
-2953.31
-2953.12
-2952.94
-2952.75
-2952.57
-2952.38
-2952.2
-2952.01
-2951.83
-2951.65
-2951.47
-2951.28
-2951.1
-2950.92
-2950.74
-2950.56
-2950.38
-2950.2
-2950.02
-2949.84
-2949.66
-2949.48
-2949.3
-2949.12
-2948.95
-2948.77
-2948.59
-2948.42
-2948.24
-2948.06
-2947.89
-2947.71
-2947.54
-2947.37
-2947.19
-2947.02
-2946.84
-2946.67
-2946.5
-2946.33
-2946.15
-2945.98
-2945.81
-2945.64
-2945.47
-2945.3
-2945.13
-2944.96
-2944.79
-2944.62
-2944.45
-2944.29
-2944.12
-2943.95
-2943.78
-2943.62
-2943.45
-2943.28
-2943.12
-2942.95
-2942.79
-2942.62
-2942.46
-2942.29
-2942.13
-2941.97
-2941.81
-2941.67
-2941.55
-2941.49
-2941.52
-2941.69
-2942.07
-2942.69
-2943.58
-2944.85
-2946.93
-2950.98
-2959.58
-2977.75
-3014.24
-3085.89
-3207.71
)
;
    }
    inlet
    {
        type            calculated;
        value           uniform 0;
    }
    rWedge
    {
        type            wedge;
    }
    lWedge
    {
        type            wedge;
    }
    outlet
    {
        type            calculated;
        value           uniform 0;
    }
    procBoundary0to1
    {
        type            processor;
        value           uniform 0;
    }
    procBoundary0to2
    {
        type            processor;
        value           uniform 0;
    }
}


// ************************************************************************* //
