/*--------------------------------*- C++ -*----------------------------------*\
| =========                 |                                                 |
| \\      /  F ield         | OpenFOAM: The Open Source CFD Toolbox           |
|  \\    /   O peration     | Version:  v1706                                 |
|   \\  /    A nd           | Web:      www.OpenFOAM.com                      |
|    \\/     M anipulation  |                                                 |
\*---------------------------------------------------------------------------*/
FoamFile
{
    version     2.0;
    format      ascii;
    class       volScalarField;
    location    "8e-06";
    object      alpha;
}
// * * * * * * * * * * * * * * * * * * * * * * * * * * * * * * * * * * * * * //

dimensions      [1 -1 -1 0 0 0 0];


internalField   nonuniform List<scalar> 
30038
(
1.40478e-05
1.40478e-05
1.40478e-05
1.40478e-05
1.40478e-05
1.40478e-05
1.40478e-05
1.40478e-05
1.40478e-05
1.40478e-05
1.40478e-05
1.40478e-05
1.40478e-05
1.40478e-05
1.40478e-05
1.40478e-05
1.40478e-05
1.40478e-05
1.40478e-05
1.40478e-05
1.40478e-05
1.40478e-05
1.40478e-05
1.40478e-05
1.40478e-05
1.40478e-05
1.40478e-05
1.40478e-05
1.40478e-05
1.40478e-05
1.40478e-05
1.40478e-05
1.40478e-05
1.40478e-05
1.40478e-05
1.40478e-05
1.40478e-05
1.40478e-05
1.40478e-05
1.40478e-05
1.40478e-05
1.40478e-05
1.40478e-05
1.40478e-05
1.40478e-05
1.40478e-05
1.40478e-05
1.40478e-05
1.40478e-05
1.40478e-05
1.40478e-05
1.40478e-05
1.40478e-05
1.40478e-05
1.40478e-05
1.40478e-05
1.40478e-05
1.40478e-05
1.40478e-05
1.40478e-05
1.40478e-05
1.40478e-05
1.40478e-05
1.40478e-05
1.40478e-05
1.40478e-05
1.40478e-05
1.40478e-05
1.40478e-05
1.40478e-05
1.40478e-05
1.40478e-05
1.40478e-05
1.40478e-05
1.40478e-05
1.40478e-05
1.40478e-05
1.40478e-05
1.40478e-05
1.40478e-05
1.40478e-05
1.40478e-05
1.40478e-05
1.40478e-05
1.40478e-05
1.40478e-05
1.40478e-05
1.40478e-05
1.40478e-05
1.40478e-05
1.40478e-05
1.40478e-05
1.40478e-05
1.40478e-05
1.40478e-05
1.40478e-05
1.40478e-05
1.40478e-05
1.40478e-05
1.40478e-05
1.40478e-05
1.40478e-05
1.40478e-05
1.40478e-05
1.40478e-05
1.40478e-05
1.40478e-05
1.40478e-05
1.40478e-05
1.40478e-05
1.40478e-05
1.40478e-05
1.40478e-05
1.40478e-05
1.40478e-05
1.40478e-05
1.40478e-05
1.40478e-05
1.40478e-05
1.40478e-05
1.40478e-05
1.40478e-05
1.40478e-05
1.40478e-05
1.40478e-05
1.40478e-05
1.40478e-05
1.40478e-05
1.40478e-05
1.40478e-05
1.40478e-05
1.40478e-05
1.40478e-05
1.40478e-05
1.40478e-05
1.40478e-05
1.40478e-05
1.40478e-05
1.40478e-05
1.40478e-05
1.40478e-05
1.40478e-05
1.40478e-05
1.40478e-05
1.40478e-05
1.40478e-05
1.40478e-05
1.40478e-05
1.40478e-05
1.40478e-05
1.40478e-05
1.40478e-05
1.40478e-05
1.40478e-05
1.40478e-05
1.40478e-05
1.40478e-05
1.40478e-05
1.40478e-05
1.40478e-05
1.40478e-05
1.40478e-05
1.40478e-05
1.40478e-05
1.40478e-05
1.40478e-05
1.40478e-05
1.40478e-05
1.40478e-05
1.40478e-05
1.40478e-05
1.40478e-05
1.40478e-05
1.40478e-05
1.40478e-05
1.40478e-05
1.40478e-05
1.40478e-05
1.40478e-05
1.40478e-05
1.40478e-05
1.40478e-05
1.40478e-05
1.40478e-05
1.40478e-05
1.40478e-05
1.40478e-05
1.40478e-05
1.40478e-05
1.40478e-05
1.40478e-05
1.40478e-05
1.40478e-05
1.40478e-05
1.40478e-05
1.40478e-05
1.40478e-05
1.40478e-05
1.40478e-05
1.40478e-05
1.40478e-05
1.40478e-05
1.40478e-05
1.40478e-05
1.40478e-05
1.40478e-05
1.40478e-05
1.40478e-05
1.40478e-05
1.40478e-05
1.40478e-05
1.40478e-05
1.40478e-05
1.40478e-05
1.40478e-05
1.40478e-05
1.40478e-05
1.40478e-05
1.40478e-05
1.40478e-05
1.40478e-05
1.40478e-05
1.40478e-05
1.40478e-05
1.40478e-05
1.40478e-05
1.40478e-05
1.40478e-05
1.40478e-05
1.40478e-05
1.40478e-05
1.40478e-05
1.40478e-05
1.40478e-05
1.40478e-05
1.40478e-05
1.40478e-05
1.40478e-05
1.40478e-05
1.40478e-05
1.40478e-05
1.40478e-05
1.40478e-05
1.40478e-05
1.40478e-05
1.40478e-05
1.40478e-05
1.40478e-05
1.40478e-05
1.40478e-05
1.40478e-05
1.40478e-05
1.40478e-05
1.40478e-05
1.40478e-05
1.40478e-05
1.40478e-05
1.40478e-05
1.40478e-05
1.40478e-05
1.40478e-05
1.40478e-05
1.40478e-05
1.40478e-05
1.40478e-05
1.40478e-05
1.40478e-05
1.40478e-05
1.40478e-05
1.40478e-05
1.40478e-05
1.40478e-05
1.40478e-05
1.40478e-05
1.40478e-05
1.40478e-05
1.40478e-05
1.40478e-05
1.40478e-05
1.40478e-05
1.40478e-05
1.40478e-05
1.40478e-05
1.40478e-05
1.40478e-05
1.40478e-05
1.40478e-05
1.40478e-05
1.40478e-05
1.40478e-05
1.40478e-05
1.40478e-05
1.40478e-05
1.40478e-05
1.40478e-05
1.40478e-05
1.40478e-05
1.40478e-05
1.40478e-05
1.40478e-05
1.40478e-05
1.40478e-05
1.40478e-05
1.40478e-05
1.40478e-05
1.40478e-05
1.40478e-05
1.40478e-05
1.40478e-05
1.40478e-05
1.40478e-05
1.40478e-05
1.40478e-05
1.40478e-05
1.40478e-05
1.40478e-05
1.40478e-05
1.40478e-05
1.40478e-05
1.40478e-05
1.40478e-05
1.40478e-05
1.40478e-05
1.40478e-05
1.40478e-05
1.40478e-05
1.40478e-05
1.40478e-05
1.40478e-05
1.40478e-05
1.40478e-05
1.40478e-05
1.40478e-05
1.40478e-05
1.40478e-05
1.40478e-05
1.40478e-05
1.40478e-05
1.40478e-05
1.40478e-05
1.40478e-05
1.40478e-05
1.40478e-05
1.40478e-05
1.40478e-05
1.40478e-05
1.40478e-05
1.40478e-05
1.40478e-05
1.40478e-05
1.40478e-05
1.40478e-05
1.40478e-05
1.40478e-05
1.40478e-05
1.40478e-05
1.40478e-05
1.40478e-05
1.40478e-05
1.40478e-05
1.40478e-05
1.40478e-05
1.40478e-05
1.40478e-05
1.40478e-05
1.40478e-05
1.40478e-05
1.40478e-05
1.40478e-05
1.40478e-05
1.40478e-05
1.40478e-05
1.40478e-05
1.40478e-05
1.40478e-05
1.40478e-05
1.40478e-05
1.40478e-05
1.40478e-05
1.40478e-05
1.40478e-05
1.40478e-05
1.40478e-05
1.40478e-05
1.40478e-05
1.40478e-05
1.40478e-05
1.40478e-05
1.40478e-05
1.40478e-05
1.40478e-05
1.40478e-05
1.40478e-05
1.40478e-05
1.40478e-05
1.40478e-05
1.40478e-05
1.40478e-05
1.40478e-05
1.40478e-05
1.40478e-05
1.40478e-05
1.40478e-05
1.40478e-05
1.40478e-05
1.40478e-05
1.40478e-05
1.40478e-05
1.40478e-05
1.40478e-05
1.40478e-05
1.40478e-05
1.40478e-05
1.40478e-05
1.40478e-05
1.40478e-05
1.40478e-05
1.40478e-05
1.40478e-05
1.40478e-05
1.40478e-05
1.40478e-05
1.40478e-05
1.40478e-05
1.40478e-05
1.40478e-05
1.40478e-05
1.40478e-05
1.40478e-05
1.40478e-05
1.40478e-05
1.40478e-05
1.40478e-05
1.40478e-05
1.40478e-05
1.40478e-05
1.40478e-05
1.40478e-05
1.40478e-05
1.40478e-05
1.40478e-05
1.40478e-05
1.40478e-05
1.40478e-05
1.40478e-05
1.40478e-05
1.40478e-05
1.40478e-05
1.40478e-05
1.40478e-05
1.40478e-05
1.40478e-05
1.40478e-05
1.40478e-05
1.40478e-05
1.40478e-05
1.40478e-05
1.40478e-05
1.40478e-05
1.40478e-05
1.40478e-05
1.40478e-05
1.40478e-05
1.40478e-05
1.40478e-05
1.40478e-05
1.40478e-05
1.40478e-05
1.40478e-05
1.40478e-05
1.40478e-05
1.40478e-05
1.40478e-05
1.40478e-05
1.40478e-05
1.40478e-05
1.40478e-05
1.40478e-05
1.40478e-05
1.40478e-05
1.40478e-05
1.40478e-05
1.40478e-05
1.40478e-05
1.40478e-05
1.40478e-05
1.40478e-05
1.40478e-05
1.40478e-05
1.40478e-05
1.40478e-05
1.40478e-05
1.40478e-05
1.40478e-05
1.40478e-05
1.40478e-05
1.40478e-05
1.40478e-05
1.40478e-05
1.40478e-05
1.40478e-05
1.40478e-05
1.40478e-05
1.40478e-05
1.40478e-05
1.40478e-05
1.40478e-05
1.40478e-05
1.40478e-05
1.40478e-05
1.40478e-05
1.40478e-05
1.40478e-05
1.40478e-05
1.40478e-05
1.40478e-05
1.40478e-05
1.40478e-05
1.40478e-05
1.40478e-05
1.40478e-05
1.40478e-05
1.40478e-05
1.40478e-05
1.40478e-05
1.40478e-05
1.40478e-05
1.40478e-05
1.40478e-05
1.40478e-05
1.40478e-05
1.40478e-05
1.40478e-05
1.40478e-05
1.40478e-05
1.40478e-05
1.40478e-05
1.40478e-05
1.40478e-05
1.40478e-05
1.40478e-05
1.40478e-05
1.40478e-05
1.40478e-05
1.40478e-05
1.40478e-05
1.40478e-05
1.40478e-05
1.40478e-05
1.40478e-05
1.40478e-05
1.40478e-05
1.40478e-05
1.40478e-05
1.40478e-05
1.40478e-05
1.40478e-05
1.40478e-05
1.40478e-05
1.40478e-05
1.40478e-05
1.40478e-05
1.40478e-05
1.40478e-05
1.40478e-05
1.40478e-05
1.40478e-05
1.40478e-05
1.40478e-05
1.40478e-05
1.40478e-05
1.40478e-05
1.40478e-05
1.40478e-05
1.40478e-05
1.40478e-05
1.40478e-05
1.40478e-05
1.40478e-05
1.40478e-05
1.40478e-05
1.40478e-05
1.40478e-05
1.40478e-05
1.40478e-05
1.40478e-05
1.40478e-05
1.40478e-05
1.40478e-05
1.40478e-05
1.40478e-05
1.40478e-05
1.40478e-05
1.40478e-05
1.40478e-05
1.40478e-05
1.40478e-05
1.40478e-05
1.40478e-05
1.40478e-05
1.40478e-05
1.40478e-05
1.40478e-05
1.40478e-05
1.40478e-05
1.40478e-05
1.40478e-05
1.40478e-05
1.40478e-05
1.40478e-05
1.40478e-05
1.40478e-05
1.40478e-05
1.40478e-05
1.40478e-05
1.40478e-05
1.40478e-05
1.40478e-05
1.40478e-05
1.40478e-05
1.40478e-05
1.40478e-05
1.40478e-05
1.40478e-05
1.40478e-05
1.40478e-05
1.40478e-05
1.40478e-05
1.40478e-05
1.40478e-05
1.40478e-05
1.40478e-05
1.40478e-05
1.40478e-05
1.40478e-05
1.40478e-05
1.40478e-05
1.40478e-05
1.40478e-05
1.40478e-05
1.40478e-05
1.40478e-05
1.40478e-05
1.40478e-05
1.40478e-05
1.40478e-05
1.40478e-05
1.40478e-05
1.40478e-05
1.40478e-05
1.40478e-05
1.40478e-05
1.40478e-05
1.40478e-05
1.40478e-05
1.40478e-05
1.40478e-05
1.40478e-05
1.40478e-05
1.40478e-05
1.40478e-05
1.40478e-05
1.40478e-05
1.40478e-05
1.40478e-05
1.40478e-05
1.40478e-05
1.40478e-05
1.40478e-05
1.40478e-05
1.40478e-05
1.40478e-05
1.40478e-05
1.40478e-05
1.40478e-05
1.40478e-05
1.40478e-05
1.40478e-05
1.40478e-05
1.40478e-05
1.40478e-05
1.40478e-05
1.40478e-05
1.40478e-05
1.40478e-05
1.40478e-05
1.40478e-05
1.40478e-05
1.40478e-05
1.40478e-05
1.40478e-05
1.40478e-05
1.40478e-05
1.40478e-05
1.40478e-05
1.40478e-05
1.40478e-05
1.40478e-05
1.40478e-05
1.40478e-05
1.40478e-05
1.40478e-05
1.40478e-05
1.40478e-05
1.40478e-05
1.40478e-05
1.40478e-05
1.40478e-05
1.40478e-05
1.40478e-05
1.40478e-05
1.40478e-05
1.40478e-05
1.40478e-05
1.40478e-05
1.40478e-05
1.40478e-05
1.40478e-05
1.40478e-05
1.40478e-05
1.40478e-05
1.40478e-05
1.40478e-05
1.40478e-05
1.40478e-05
1.40478e-05
1.40478e-05
1.40478e-05
1.40478e-05
1.40478e-05
1.40478e-05
1.40478e-05
1.40478e-05
1.40478e-05
1.40478e-05
1.40478e-05
1.40478e-05
1.40478e-05
1.40478e-05
1.40478e-05
1.40478e-05
1.40478e-05
1.40478e-05
1.40478e-05
1.40478e-05
1.40478e-05
1.40478e-05
1.40478e-05
1.40478e-05
1.40478e-05
1.40478e-05
1.40478e-05
1.40478e-05
1.40478e-05
1.40478e-05
1.40478e-05
1.40478e-05
1.40478e-05
1.40478e-05
1.40478e-05
1.40478e-05
1.40478e-05
1.40478e-05
1.40478e-05
1.40478e-05
1.40478e-05
1.40478e-05
1.40478e-05
1.40478e-05
1.40478e-05
1.40478e-05
1.40478e-05
1.40478e-05
1.40478e-05
1.40478e-05
1.40478e-05
1.40478e-05
1.40478e-05
1.40478e-05
1.40478e-05
1.40478e-05
1.40478e-05
1.40478e-05
1.40478e-05
1.40478e-05
1.40478e-05
1.40478e-05
1.40478e-05
1.40478e-05
1.40478e-05
1.40478e-05
1.40478e-05
1.40478e-05
1.40478e-05
1.40478e-05
1.40478e-05
1.40478e-05
1.40478e-05
1.40478e-05
1.40478e-05
1.40478e-05
1.40478e-05
1.40478e-05
1.40478e-05
1.40478e-05
1.40478e-05
1.40478e-05
1.40478e-05
1.40478e-05
1.40478e-05
1.40478e-05
1.40478e-05
1.40478e-05
1.40478e-05
1.40478e-05
1.40478e-05
1.40478e-05
1.40478e-05
1.40478e-05
1.40478e-05
1.40478e-05
1.40478e-05
1.40478e-05
1.40478e-05
1.40478e-05
1.40478e-05
1.40478e-05
1.40478e-05
1.40478e-05
1.40478e-05
1.40478e-05
1.40478e-05
1.40478e-05
1.40478e-05
1.40478e-05
1.40478e-05
1.40478e-05
1.40478e-05
1.40478e-05
1.40478e-05
1.40478e-05
1.40478e-05
1.40478e-05
1.40478e-05
1.40478e-05
1.40478e-05
1.40478e-05
1.40478e-05
1.40478e-05
1.40478e-05
1.40478e-05
1.40478e-05
1.40478e-05
1.40478e-05
1.40478e-05
1.40478e-05
1.40478e-05
1.40478e-05
1.40478e-05
1.40478e-05
1.40478e-05
1.40478e-05
1.40478e-05
1.40478e-05
1.40478e-05
1.40478e-05
1.40478e-05
1.40478e-05
1.40478e-05
1.40478e-05
1.40478e-05
1.40478e-05
1.40478e-05
1.40478e-05
1.40478e-05
1.40478e-05
1.40478e-05
1.40478e-05
1.40478e-05
1.40478e-05
1.40478e-05
1.40478e-05
1.40478e-05
1.40478e-05
1.40478e-05
1.40478e-05
1.40478e-05
1.40478e-05
1.40478e-05
1.40478e-05
1.40478e-05
1.40478e-05
1.40478e-05
1.40478e-05
1.40478e-05
1.40478e-05
1.40478e-05
1.40478e-05
1.40478e-05
1.40478e-05
1.40478e-05
1.40478e-05
1.40478e-05
1.40478e-05
1.40478e-05
1.40478e-05
1.40478e-05
1.40478e-05
1.40478e-05
1.40478e-05
1.40478e-05
1.40478e-05
1.40478e-05
1.40478e-05
1.40478e-05
1.40478e-05
1.40478e-05
1.40478e-05
1.40478e-05
1.40478e-05
1.40478e-05
1.40478e-05
1.40478e-05
1.40478e-05
1.40478e-05
1.40478e-05
1.40478e-05
1.40478e-05
1.40478e-05
1.40478e-05
1.40478e-05
1.40478e-05
1.40478e-05
1.40478e-05
1.40478e-05
1.40478e-05
1.40478e-05
1.40478e-05
1.40478e-05
1.40478e-05
1.40478e-05
1.40478e-05
1.40478e-05
1.40478e-05
1.40478e-05
1.40478e-05
1.40478e-05
1.40478e-05
1.40478e-05
1.40478e-05
1.40478e-05
1.40478e-05
1.40478e-05
1.40478e-05
1.40478e-05
1.40478e-05
1.40478e-05
1.40478e-05
1.40478e-05
1.40478e-05
1.40478e-05
1.40478e-05
1.40478e-05
1.40478e-05
1.40478e-05
1.40478e-05
1.40478e-05
1.40478e-05
1.40478e-05
1.40478e-05
1.40478e-05
1.40478e-05
1.40478e-05
1.40478e-05
1.40478e-05
1.40478e-05
1.40478e-05
1.40478e-05
1.40478e-05
1.40478e-05
1.40478e-05
1.40478e-05
1.40478e-05
1.40478e-05
1.40478e-05
1.40478e-05
1.40478e-05
1.40478e-05
1.40478e-05
1.40478e-05
1.40478e-05
1.40478e-05
1.40478e-05
1.40478e-05
1.40478e-05
1.40478e-05
1.40478e-05
1.40478e-05
1.40478e-05
1.40478e-05
1.40478e-05
1.40478e-05
1.40478e-05
1.40478e-05
1.40478e-05
1.40478e-05
1.40478e-05
1.40478e-05
1.40478e-05
1.40478e-05
1.40478e-05
1.40478e-05
1.40478e-05
1.40478e-05
1.40478e-05
1.40478e-05
1.40478e-05
1.40478e-05
1.40478e-05
1.40478e-05
1.40478e-05
1.40478e-05
1.40478e-05
1.40478e-05
1.40478e-05
1.40478e-05
1.40478e-05
1.40478e-05
1.40478e-05
1.40478e-05
1.40478e-05
1.40478e-05
1.40478e-05
1.40478e-05
1.40478e-05
1.40478e-05
1.40478e-05
1.40478e-05
1.40478e-05
1.40478e-05
1.40478e-05
1.40478e-05
1.40478e-05
1.40478e-05
1.40478e-05
1.40478e-05
1.40478e-05
1.40478e-05
1.40478e-05
1.40478e-05
1.40478e-05
1.40478e-05
1.40478e-05
1.40478e-05
1.40478e-05
1.40478e-05
1.40478e-05
1.40478e-05
1.40478e-05
1.40478e-05
1.40478e-05
1.40478e-05
1.40478e-05
1.40478e-05
1.40478e-05
1.40478e-05
1.40478e-05
1.40478e-05
1.40478e-05
1.40478e-05
1.40478e-05
1.40478e-05
1.40478e-05
1.40478e-05
1.40478e-05
1.40478e-05
1.40478e-05
1.40478e-05
1.40478e-05
1.40478e-05
1.40478e-05
1.40478e-05
1.40478e-05
1.40478e-05
1.40478e-05
1.40478e-05
1.40478e-05
1.40478e-05
1.40478e-05
1.40478e-05
1.40478e-05
1.40479e-05
1.40479e-05
1.40481e-05
1.40478e-05
1.40478e-05
1.40478e-05
1.40478e-05
1.40478e-05
1.40478e-05
1.40478e-05
1.40478e-05
1.40478e-05
1.40478e-05
1.40478e-05
1.40478e-05
1.40478e-05
1.40478e-05
1.40478e-05
1.40478e-05
1.40478e-05
1.40478e-05
1.40478e-05
1.40478e-05
1.40478e-05
1.40478e-05
1.40478e-05
1.40478e-05
1.40478e-05
1.40478e-05
1.40478e-05
1.40478e-05
1.40478e-05
1.40478e-05
1.40478e-05
1.40478e-05
1.40478e-05
1.40478e-05
1.40478e-05
1.40478e-05
1.40478e-05
1.40478e-05
1.40478e-05
1.40478e-05
1.40478e-05
1.40478e-05
1.40479e-05
1.40479e-05
1.40481e-05
1.40483e-05
1.40488e-05
1.40498e-05
1.40478e-05
1.40478e-05
1.40478e-05
1.40478e-05
1.40478e-05
1.40478e-05
1.40478e-05
1.40478e-05
1.40478e-05
1.40478e-05
1.40478e-05
1.40478e-05
1.40478e-05
1.40478e-05
1.40478e-05
1.40478e-05
1.40478e-05
1.40478e-05
1.40478e-05
1.40478e-05
1.40478e-05
1.40478e-05
1.40478e-05
1.40478e-05
1.40478e-05
1.40478e-05
1.40478e-05
1.40478e-05
1.40478e-05
1.40478e-05
1.40478e-05
1.40478e-05
1.40478e-05
1.40478e-05
1.40478e-05
1.40478e-05
1.40478e-05
1.40478e-05
1.40478e-05
1.40478e-05
1.40478e-05
1.40479e-05
1.40479e-05
1.40481e-05
1.40483e-05
1.40487e-05
1.40495e-05
1.4051e-05
1.40538e-05
1.40597e-05
1.40478e-05
1.40478e-05
1.40478e-05
1.40478e-05
1.40478e-05
1.40478e-05
1.40478e-05
1.40478e-05
1.40478e-05
1.40478e-05
1.40478e-05
1.40478e-05
1.40478e-05
1.40478e-05
1.40478e-05
1.40478e-05
1.40478e-05
1.40478e-05
1.40478e-05
1.40478e-05
1.40478e-05
1.40478e-05
1.40478e-05
1.40478e-05
1.40478e-05
1.40478e-05
1.40478e-05
1.40478e-05
1.40478e-05
1.40478e-05
1.40478e-05
1.40478e-05
1.40478e-05
1.40478e-05
1.40478e-05
1.40478e-05
1.40478e-05
1.40478e-05
1.40479e-05
1.40479e-05
1.4048e-05
1.40483e-05
1.40487e-05
1.40494e-05
1.40508e-05
1.40533e-05
1.40581e-05
1.40669e-05
1.40838e-05
1.41178e-05
1.40478e-05
1.40478e-05
1.40478e-05
1.40478e-05
1.40478e-05
1.40478e-05
1.40478e-05
1.40478e-05
1.40478e-05
1.40478e-05
1.40478e-05
1.40478e-05
1.40478e-05
1.40478e-05
1.40478e-05
1.40478e-05
1.40478e-05
1.40478e-05
1.40478e-05
1.40478e-05
1.40478e-05
1.40478e-05
1.40478e-05
1.40478e-05
1.40478e-05
1.40478e-05
1.40478e-05
1.40478e-05
1.40478e-05
1.40478e-05
1.40478e-05
1.40478e-05
1.40478e-05
1.40478e-05
1.40478e-05
1.40479e-05
1.40479e-05
1.4048e-05
1.40483e-05
1.40486e-05
1.40493e-05
1.40506e-05
1.4053e-05
1.40573e-05
1.40654e-05
1.40803e-05
1.4108e-05
1.41594e-05
1.42558e-05
1.44434e-05
1.40478e-05
1.40478e-05
1.40478e-05
1.40478e-05
1.40478e-05
1.40478e-05
1.40478e-05
1.40478e-05
1.40478e-05
1.40478e-05
1.40478e-05
1.40478e-05
1.40478e-05
1.40478e-05
1.40478e-05
1.40478e-05
1.40478e-05
1.40478e-05
1.40478e-05
1.40478e-05
1.40478e-05
1.40478e-05
1.40478e-05
1.40478e-05
1.40478e-05
1.40478e-05
1.40478e-05
1.40478e-05
1.40478e-05
1.40478e-05
1.40478e-05
1.40478e-05
1.40479e-05
1.40479e-05
1.4048e-05
1.40482e-05
1.40486e-05
1.40493e-05
1.40505e-05
1.40527e-05
1.40568e-05
1.40642e-05
1.40779e-05
1.4103e-05
1.4149e-05
1.42336e-05
1.43882e-05
1.46687e-05
1.51723e-05
1.60706e-05
1.40478e-05
1.40478e-05
1.40478e-05
1.40478e-05
1.40478e-05
1.40478e-05
1.40478e-05
1.40478e-05
1.40478e-05
1.40478e-05
1.40478e-05
1.40478e-05
1.40478e-05
1.40478e-05
1.40478e-05
1.40478e-05
1.40478e-05
1.40478e-05
1.40478e-05
1.40478e-05
1.40478e-05
1.40478e-05
1.40478e-05
1.40478e-05
1.40478e-05
1.40478e-05
1.40478e-05
1.40478e-05
1.40478e-05
1.40479e-05
1.40479e-05
1.4048e-05
1.40482e-05
1.40486e-05
1.40493e-05
1.40504e-05
1.40525e-05
1.40564e-05
1.40633e-05
1.40759e-05
1.4099e-05
1.41409e-05
1.42172e-05
1.43556e-05
1.46046e-05
1.50458e-05
1.58072e-05
1.70688e-05
1.90483e-05
2.19581e-05
1.40478e-05
1.40478e-05
1.40478e-05
1.40478e-05
1.40478e-05
1.40478e-05
1.40478e-05
1.40478e-05
1.40478e-05
1.40478e-05
1.40478e-05
1.40478e-05
1.40478e-05
1.40478e-05
1.40478e-05
1.40478e-05
1.40478e-05
1.40478e-05
1.40478e-05
1.40478e-05
1.40478e-05
1.40478e-05
1.40478e-05
1.40478e-05
1.40478e-05
1.40478e-05
1.40479e-05
1.40479e-05
1.40481e-05
1.40483e-05
1.40486e-05
1.40493e-05
1.40504e-05
1.40524e-05
1.40561e-05
1.40627e-05
1.40746e-05
1.40959e-05
1.41346e-05
1.42043e-05
1.43297e-05
1.45538e-05
1.4949e-05
1.56293e-05
1.67569e-05
1.85278e-05
2.11261e-05
2.46605e-05
2.9125e-05
3.43882e-05
1.40478e-05
1.40478e-05
1.40478e-05
1.40478e-05
1.40478e-05
1.40478e-05
1.40478e-05
1.40478e-05
1.40478e-05
1.40478e-05
1.40478e-05
1.40478e-05
1.40478e-05
1.40478e-05
1.40478e-05
1.40478e-05
1.40478e-05
1.40478e-05
1.40478e-05
1.40478e-05
1.40478e-05
1.40478e-05
1.40478e-05
1.40479e-05
1.4048e-05
1.40481e-05
1.40483e-05
1.40487e-05
1.40493e-05
1.40504e-05
1.40525e-05
1.4056e-05
1.40624e-05
1.40737e-05
1.40939e-05
1.41301e-05
1.41946e-05
1.43098e-05
1.45141e-05
1.4872e-05
1.54861e-05
1.65044e-05
1.81111e-05
2.04883e-05
2.3756e-05
2.79226e-05
3.28794e-05
3.84391e-05
4.43953e-05
5.05376e-05
1.40478e-05
1.40478e-05
1.40478e-05
1.40478e-05
1.40478e-05
1.40478e-05
1.40478e-05
1.40478e-05
1.40478e-05
1.40478e-05
1.40478e-05
1.40478e-05
1.40478e-05
1.40478e-05
1.40478e-05
1.40478e-05
1.40478e-05
1.40478e-05
1.40478e-05
1.40479e-05
1.40479e-05
1.4048e-05
1.40481e-05
1.40483e-05
1.40487e-05
1.40494e-05
1.40505e-05
1.40526e-05
1.40561e-05
1.40624e-05
1.40734e-05
1.40929e-05
1.41273e-05
1.41882e-05
1.42958e-05
1.44847e-05
1.48134e-05
1.53744e-05
1.63028e-05
1.77708e-05
1.99569e-05
2.29917e-05
2.69068e-05
3.16193e-05
3.69594e-05
4.27196e-05
4.86989e-05
5.47267e-05
6.06526e-05
6.63611e-05
1.40478e-05
1.40478e-05
1.40478e-05
1.40478e-05
1.40478e-05
1.40478e-05
1.40478e-05
1.40478e-05
1.40478e-05
1.40478e-05
1.40478e-05
1.40478e-05
1.40478e-05
1.40478e-05
1.40478e-05
1.40478e-05
1.40479e-05
1.40479e-05
1.4048e-05
1.40481e-05
1.40484e-05
1.40488e-05
1.40495e-05
1.40507e-05
1.40528e-05
1.40565e-05
1.40628e-05
1.40738e-05
1.40929e-05
1.41264e-05
1.4185e-05
1.42874e-05
1.44655e-05
1.47724e-05
1.52925e-05
1.61495e-05
1.75037e-05
1.95272e-05
2.23562e-05
2.60406e-05
3.05225e-05
3.56555e-05
4.1246e-05
4.70973e-05
5.30349e-05
5.89081e-05
6.45842e-05
6.99678e-05
7.49711e-05
7.95167e-05
1.40478e-05
1.40478e-05
1.40478e-05
1.40478e-05
1.40478e-05
1.40478e-05
1.40478e-05
1.40478e-05
1.40478e-05
1.40478e-05
1.40478e-05
1.40478e-05
1.40478e-05
1.40479e-05
1.40479e-05
1.4048e-05
1.40482e-05
1.40485e-05
1.40489e-05
1.40497e-05
1.4051e-05
1.40532e-05
1.4057e-05
1.40636e-05
1.40748e-05
1.40941e-05
1.41275e-05
1.41852e-05
1.42848e-05
1.44561e-05
1.47483e-05
1.52392e-05
1.60426e-05
1.73077e-05
1.91983e-05
2.18514e-05
2.53297e-05
2.95962e-05
3.4526e-05
3.99426e-05
4.56581e-05
5.15009e-05
5.73256e-05
6.30008e-05
6.84179e-05
7.34924e-05
7.81341e-05
8.22341e-05
8.56838e-05
8.84838e-05
1.40478e-05
1.40478e-05
1.40478e-05
1.40478e-05
1.40478e-05
1.40478e-05
1.40478e-05
1.40478e-05
1.40478e-05
1.40479e-05
1.40479e-05
1.4048e-05
1.40481e-05
1.40483e-05
1.40486e-05
1.40491e-05
1.405e-05
1.40514e-05
1.40538e-05
1.4058e-05
1.40649e-05
1.40767e-05
1.40967e-05
1.41308e-05
1.4189e-05
1.42883e-05
1.44569e-05
1.47413e-05
1.5214e-05
1.59809e-05
1.71809e-05
1.89688e-05
2.14787e-05
2.47803e-05
2.88524e-05
3.35891e-05
3.88312e-05
4.44017e-05
5.01345e-05
5.58878e-05
6.15384e-05
6.69742e-05
7.21081e-05
7.68629e-05
8.11432e-05
8.48402e-05
8.78764e-05
9.0257e-05
9.20477e-05
9.33972e-05
1.40478e-05
1.40478e-05
1.40478e-05
1.40478e-05
1.40478e-05
1.40478e-05
1.40479e-05
1.40479e-05
1.4048e-05
1.40482e-05
1.40484e-05
1.40487e-05
1.40494e-05
1.40504e-05
1.4052e-05
1.40547e-05
1.40593e-05
1.40669e-05
1.40796e-05
1.41009e-05
1.41367e-05
1.4197e-05
1.42985e-05
1.44688e-05
1.47522e-05
1.52177e-05
1.59647e-05
1.71232e-05
1.88384e-05
2.12389e-05
2.43964e-05
2.83004e-05
3.28606e-05
3.79336e-05
4.3355e-05
4.89662e-05
5.46292e-05
6.02283e-05
6.56559e-05
7.08201e-05
7.56484e-05
8.00638e-05
8.39673e-05
8.72646e-05
8.99139e-05
9.19501e-05
9.34634e-05
9.45787e-05
9.54007e-05
9.60427e-05
1.40478e-05
1.40478e-05
1.40479e-05
1.40479e-05
1.4048e-05
1.40481e-05
1.40483e-05
1.40485e-05
1.4049e-05
1.40497e-05
1.40509e-05
1.40528e-05
1.4056e-05
1.40612e-05
1.40697e-05
1.40838e-05
1.41071e-05
1.41458e-05
1.42101e-05
1.43167e-05
1.44932e-05
1.47829e-05
1.52523e-05
1.59959e-05
1.71361e-05
1.88086e-05
2.11339e-05
2.41818e-05
2.79476e-05
3.23528e-05
3.72677e-05
4.25412e-05
4.80236e-05
5.35826e-05
5.91073e-05
6.44994e-05
6.96661e-05
7.45338e-05
7.90368e-05
8.30934e-05
8.6608e-05
8.95105e-05
9.1796e-05
9.35249e-05
9.48003e-05
9.57348e-05
9.64294e-05
9.69688e-05
9.74033e-05
9.77706e-05
1.4048e-05
1.4048e-05
1.40482e-05
1.40484e-05
1.40488e-05
1.40493e-05
1.40502e-05
1.40517e-05
1.4054e-05
1.40578e-05
1.40639e-05
1.40738e-05
1.40899e-05
1.41162e-05
1.41592e-05
1.42296e-05
1.43448e-05
1.45327e-05
1.48367e-05
1.53218e-05
1.60792e-05
1.72244e-05
1.88837e-05
2.1168e-05
2.41416e-05
2.78011e-05
3.20759e-05
3.68483e-05
4.19794e-05
4.73301e-05
5.27754e-05
5.82088e-05
6.35405e-05
6.86832e-05
7.35606e-05
7.81113e-05
8.22698e-05
8.59508e-05
8.90718e-05
9.15931e-05
9.35417e-05
9.4996e-05
9.60642e-05
9.68465e-05
9.74358e-05
9.78959e-05
9.82727e-05
9.85892e-05
9.88901e-05
9.91777e-05
1.40486e-05
1.40491e-05
1.40498e-05
1.4051e-05
1.40528e-05
1.40557e-05
1.40603e-05
1.40677e-05
1.40795e-05
1.40985e-05
1.4129e-05
1.41782e-05
1.42576e-05
1.43857e-05
1.45913e-05
1.49188e-05
1.54329e-05
1.62223e-05
1.73965e-05
1.90722e-05
2.13492e-05
2.42832e-05
2.78686e-05
3.20393e-05
3.66873e-05
4.16851e-05
4.69051e-05
5.22301e-05
5.75601e-05
6.28107e-05
6.79042e-05
7.27646e-05
7.73306e-05
8.15468e-05
8.53427e-05
8.86362e-05
9.13661e-05
9.35265e-05
9.51686e-05
9.63821e-05
9.72693e-05
9.79218e-05
9.84214e-05
9.88149e-05
9.91363e-05
9.94209e-05
9.96972e-05
9.99411e-05
0.000100156
0.00010036
1.40506e-05
1.40521e-05
1.40545e-05
1.40582e-05
1.4064e-05
1.40732e-05
1.40877e-05
1.41107e-05
1.41472e-05
1.42052e-05
1.42974e-05
1.44438e-05
1.4675e-05
1.50371e-05
1.55955e-05
1.6437e-05
1.76653e-05
1.93872e-05
2.16898e-05
2.46177e-05
2.81599e-05
3.22526e-05
3.67953e-05
4.16711e-05
4.67635e-05
5.19651e-05
5.71824e-05
6.23366e-05
6.73587e-05
7.21773e-05
7.67306e-05
8.09676e-05
8.48315e-05
8.82492e-05
9.11504e-05
9.35018e-05
9.5327e-05
9.66937e-05
9.76968e-05
9.84281e-05
9.89714e-05
9.93908e-05
9.97247e-05
0.000100002
0.000100259
0.000100507
0.000100715
0.000100907
0.000101084
0.00010125
0.000101417
1.40619e-05
1.40694e-05
1.40812e-05
1.40996e-05
1.41282e-05
1.41731e-05
1.42434e-05
1.43535e-05
1.45255e-05
1.47926e-05
1.52031e-05
1.58239e-05
1.67402e-05
1.80496e-05
1.98476e-05
2.22072e-05
2.51601e-05
2.86877e-05
3.27265e-05
3.7182e-05
4.19476e-05
4.69174e-05
5.19942e-05
5.70922e-05
6.21384e-05
6.707e-05
7.18245e-05
7.63405e-05
8.0568e-05
8.446e-05
8.79551e-05
9.09838e-05
9.34961e-05
9.54892e-05
9.70091e-05
9.81333e-05
9.89534e-05
9.95507e-05
0.0001
0.00010035
0.000100631
0.000100871
0.000101101
0.000101316
0.000101499
0.000101667
0.000101821
0.000101969
0.000102119
0.000102273
0.000102431
1.4093e-05
1.41169e-05
1.41537e-05
1.42105e-05
1.42981e-05
1.44331e-05
1.46405e-05
1.49568e-05
1.54333e-05
1.61383e-05
1.71552e-05
1.85743e-05
2.04783e-05
2.29244e-05
2.59297e-05
2.94674e-05
3.34728e-05
3.78573e-05
4.25233e-05
4.73757e-05
5.23275e-05
5.73013e-05
6.22302e-05
6.70571e-05
7.17276e-05
7.61836e-05
8.0376e-05
8.42627e-05
8.77937e-05
9.09061e-05
9.35426e-05
9.56796e-05
9.7341e-05
9.85869e-05
9.94998e-05
0.000100162
0.000100647
0.000101015
0.000101302
0.000101533
0.000101745
0.000101953
0.000102127
0.000102285
0.000102433
0.000102569
0.000102701
0.000102837
0.000102976
0.000103117
0.00010326
0.000103405
1.4265e-05
1.43771e-05
1.4547e-05
1.48033e-05
1.51863e-05
1.5751e-05
1.65665e-05
1.77131e-05
1.92719e-05
2.13106e-05
2.38691e-05
2.69498e-05
3.05169e-05
3.45048e-05
3.88304e-05
4.34053e-05
4.81447e-05
5.29717e-05
5.78174e-05
6.26216e-05
6.73323e-05
7.19017e-05
7.6278e-05
8.04127e-05
8.42663e-05
8.77977e-05
9.09527e-05
9.36739e-05
9.59247e-05
9.77086e-05
9.90694e-05
0.000100075
0.000100805
0.000101332
0.000101721
0.000102018
0.000102251
0.000102442
0.000102626
0.000102801
0.000102947
0.000103082
0.000103206
0.000103323
0.000103442
0.000103565
0.00010369
0.000103818
0.000103946
0.000104075
0.000104203
0.00010433
1.50349e-05
1.5508e-05
1.61885e-05
1.71456e-05
1.84538e-05
2.01822e-05
2.23815e-05
2.50735e-05
2.82458e-05
3.18551e-05
3.58357e-05
4.01101e-05
4.45992e-05
4.92284e-05
5.39303e-05
5.86445e-05
6.33175e-05
6.79024e-05
7.23568e-05
7.66357e-05
8.06929e-05
8.449e-05
8.7992e-05
9.11535e-05
9.39212e-05
9.62519e-05
9.81338e-05
9.9594e-05
0.000100687
0.000101485
0.000102059
0.000102473
0.00010278
0.000103013
0.000103196
0.000103356
0.000103517
0.000103652
0.000103772
0.000103885
0.000103989
0.000104089
0.000104193
0.000104301
0.000104413
0.000104528
0.000104644
0.000104759
0.000104873
0.000104985
0.000105094
0.0001052
1.79236e-05
1.94262e-05
2.13518e-05
2.37323e-05
2.65715e-05
2.98441e-05
3.3501e-05
3.74778e-05
4.17036e-05
4.61085e-05
5.06279e-05
5.52034e-05
5.97828e-05
6.43187e-05
6.87696e-05
7.30978e-05
7.72642e-05
8.1226e-05
8.49465e-05
8.8394e-05
9.15312e-05
9.43101e-05
9.66864e-05
9.8638e-05
0.000100177
0.000101347
0.000102208
0.000102829
0.00010327
0.000103589
0.000103825
0.000104004
0.000104142
0.000104277
0.000104409
0.000104511
0.000104608
0.000104697
0.000104779
0.000104863
0.000104954
0.000105047
0.000105145
0.000105246
0.000105348
0.000105451
0.000105553
0.000105653
0.000105749
0.000105841
0.000105928
0.00010601
2.5406e-05
2.83968e-05
3.17691e-05
3.54708e-05
3.94408e-05
4.36156e-05
4.79343e-05
5.23417e-05
5.67883e-05
6.12289e-05
6.56224e-05
6.99319e-05
7.41242e-05
7.81654e-05
8.20164e-05
8.56424e-05
8.90145e-05
9.21009e-05
9.48603e-05
9.72496e-05
9.92414e-05
0.000100837
0.000102067
0.000102982
0.000103644
0.000104115
0.000104447
0.000104685
0.000104859
0.000104988
0.000105096
0.000105206
0.000105298
0.000105376
0.000105452
0.000105518
0.000105581
0.00010565
0.000105724
0.000105803
0.000105886
0.000105973
0.000106062
0.000106151
0.000106241
0.000106328
0.000106413
0.000106493
0.000106569
0.000106638
0.000106701
0.000106757
3.77769e-05
4.17308e-05
4.58472e-05
5.00742e-05
5.43654e-05
5.86788e-05
6.29762e-05
6.72218e-05
7.13833e-05
7.54313e-05
7.93362e-05
8.30631e-05
8.65793e-05
8.98579e-05
9.28716e-05
9.55848e-05
9.79577e-05
9.99604e-05
0.000101587
0.000102857
0.000103814
0.000104512
0.000105008
0.000105353
0.000105594
0.000105765
0.000105884
0.00010597
0.000106054
0.000106137
0.000106194
0.000106251
0.000106302
0.000106346
0.000106393
0.000106446
0.000106504
0.000106568
0.000106637
0.000106709
0.000106784
0.000106861
0.000106937
0.000107011
0.000107084
0.000107153
0.000107218
0.000107276
0.000107328
0.000107373
0.00010741
0.000107438
5.25225e-05
5.6691e-05
6.0866e-05
6.50151e-05
6.91074e-05
7.31145e-05
7.70108e-05
8.077e-05
8.43611e-05
8.7754e-05
9.09234e-05
9.38458e-05
9.64903e-05
9.88209e-05
0.000100808
0.00010244
0.00010373
0.000104714
0.000105436
0.000105952
0.00010631
0.000106552
0.000106718
0.000106829
0.000106902
0.000106958
0.000107017
0.000107064
0.000107098
0.000107132
0.000107158
0.000107183
0.000107214
0.000107251
0.000107294
0.000107343
0.000107397
0.000107455
0.000107516
0.000107578
0.000107641
0.000107703
0.000107763
0.00010782
0.000107874
0.000107922
0.000107964
0.000107999
0.000108025
0.000108043
0.000108052
0.000108051
7.12661e-05
7.51129e-05
7.88506e-05
8.24561e-05
8.59014e-05
8.91589e-05
9.2206e-05
9.50213e-05
9.75779e-05
9.98436e-05
0.00010179
0.000103404
0.000104694
0.000105687
0.000106423
0.00010695
0.000107314
0.000107558
0.000107718
0.000107821
0.00010788
0.000107914
0.000107947
0.000107981
0.000107993
0.000108007
0.000108017
0.000108022
0.00010803
0.000108045
0.000108066
0.000108093
0.000108128
0.000108167
0.00010821
0.000108256
0.000108304
0.000108353
0.000108402
0.00010845
0.000108495
0.000108537
0.000108574
0.000108606
0.000108631
0.000108648
0.000108658
0.000108656
0.000108647
0.000108627
0.000108595
8.43805e-05
8.76712e-05
9.07833e-05
9.36963e-05
9.63909e-05
9.88435e-05
0.000101025
0.00010291
0.000104485
0.000105753
0.000106738
0.000107474
0.000108003
0.000108369
0.000108612
0.000108764
0.000108856
0.000108904
0.00010892
0.000108928
0.000108938
0.000108938
0.000108928
0.00010892
0.000108907
0.000108893
0.000108885
0.000108884