/*--------------------------------*- C++ -*----------------------------------*\
| =========                 |                                                 |
| \\      /  F ield         | OpenFOAM: The Open Source CFD Toolbox           |
|  \\    /   O peration     | Version:  v1706                                 |
|   \\  /    A nd           | Web:      www.OpenFOAM.com                      |
|    \\/     M anipulation  |                                                 |
\*---------------------------------------------------------------------------*/
FoamFile
{
    version     2.0;
    format      ascii;
    class       volScalarField;
    location    "8e-06";
    object      kappatr;
}
// * * * * * * * * * * * * * * * * * * * * * * * * * * * * * * * * * * * * * //

dimensions      [1 1 -3 -1 0 0 0];


internalField   nonuniform List<scalar> 
30038
(
0.014593
0.014593
0.014593
0.014593
0.014593
0.014593
0.014593
0.014593
0.014593
0.014593
0.014593
0.014593
0.014593
0.014593
0.014593
0.014593
0.014593
0.014593
0.014593
0.014593
0.014593
0.014593
0.014593
0.014593
0.014593
0.014593
0.014593
0.014593
0.014593
0.014593
0.014593
0.014593
0.014593
0.014593
0.014593
0.014593
0.014593
0.014593
0.014593
0.014593
0.014593
0.014593
0.014593
0.014593
0.014593
0.014593
0.014593
0.014593
0.014593
0.014593
0.014593
0.014593
0.014593
0.014593
0.014593
0.014593
0.014593
0.014593
0.014593
0.014593
0.014593
0.014593
0.014593
0.014593
0.014593
0.014593
0.014593
0.014593
0.014593
0.014593
0.014593
0.014593
0.014593
0.014593
0.014593
0.014593
0.014593
0.014593
0.014593
0.014593
0.014593
0.014593
0.014593
0.014593
0.014593
0.014593
0.014593
0.014593
0.014593
0.014593
0.014593
0.014593
0.014593
0.014593
0.014593
0.014593
0.014593
0.014593
0.014593
0.014593
0.014593
0.014593
0.014593
0.014593
0.014593
0.014593
0.014593
0.014593
0.014593
0.014593
0.014593
0.014593
0.014593
0.014593
0.014593
0.014593
0.014593
0.014593
0.014593
0.014593
0.014593
0.014593
0.014593
0.014593
0.014593
0.014593
0.014593
0.014593
0.014593
0.014593
0.014593
0.014593
0.014593
0.014593
0.014593
0.014593
0.014593
0.014593
0.014593
0.014593
0.014593
0.014593
0.014593
0.014593
0.014593
0.014593
0.014593
0.014593
0.014593
0.014593
0.014593
0.014593
0.014593
0.014593
0.014593
0.014593
0.014593
0.014593
0.014593
0.014593
0.014593
0.014593
0.014593
0.014593
0.014593
0.014593
0.014593
0.014593
0.014593
0.014593
0.014593
0.014593
0.014593
0.014593
0.014593
0.014593
0.014593
0.014593
0.014593
0.014593
0.014593
0.014593
0.014593
0.014593
0.014593
0.014593
0.014593
0.014593
0.014593
0.014593
0.014593
0.014593
0.014593
0.014593
0.014593
0.014593
0.014593
0.014593
0.014593
0.014593
0.014593
0.014593
0.014593
0.014593
0.014593
0.014593
0.014593
0.014593
0.014593
0.014593
0.014593
0.014593
0.014593
0.014593
0.014593
0.014593
0.014593
0.014593
0.014593
0.014593
0.014593
0.014593
0.014593
0.014593
0.014593
0.014593
0.014593
0.014593
0.014593
0.014593
0.014593
0.014593
0.014593
0.014593
0.014593
0.014593
0.014593
0.014593
0.014593
0.014593
0.014593
0.014593
0.014593
0.014593
0.014593
0.014593
0.014593
0.014593
0.014593
0.014593
0.014593
0.014593
0.014593
0.014593
0.014593
0.014593
0.014593
0.014593
0.014593
0.014593
0.014593
0.014593
0.014593
0.014593
0.014593
0.014593
0.014593
0.014593
0.014593
0.014593
0.014593
0.014593
0.014593
0.014593
0.014593
0.014593
0.014593
0.014593
0.014593
0.014593
0.014593
0.014593
0.014593
0.014593
0.014593
0.014593
0.014593
0.014593
0.014593
0.014593
0.014593
0.014593
0.014593
0.014593
0.014593
0.014593
0.014593
0.014593
0.014593
0.014593
0.014593
0.014593
0.014593
0.014593
0.014593
0.014593
0.014593
0.014593
0.014593
0.014593
0.014593
0.014593
0.014593
0.014593
0.014593
0.014593
0.014593
0.014593
0.014593
0.014593
0.014593
0.014593
0.014593
0.014593
0.014593
0.014593
0.014593
0.014593
0.014593
0.014593
0.014593
0.014593
0.014593
0.014593
0.014593
0.014593
0.014593
0.014593
0.014593
0.014593
0.014593
0.014593
0.014593
0.014593
0.014593
0.014593
0.014593
0.014593
0.014593
0.014593
0.014593
0.014593
0.014593
0.014593
0.014593
0.014593
0.014593
0.014593
0.014593
0.014593
0.014593
0.014593
0.014593
0.014593
0.014593
0.014593
0.014593
0.014593
0.014593
0.014593
0.014593
0.014593
0.014593
0.014593
0.014593
0.014593
0.014593
0.014593
0.014593
0.014593
0.014593
0.014593
0.014593
0.014593
0.014593
0.014593
0.014593
0.014593
0.014593
0.014593
0.014593
0.014593
0.014593
0.014593
0.014593
0.014593
0.014593
0.014593
0.014593
0.014593
0.014593
0.014593
0.014593
0.014593
0.014593
0.014593
0.014593
0.014593
0.014593
0.014593
0.014593
0.014593
0.014593
0.014593
0.014593
0.014593
0.014593
0.014593
0.014593
0.014593
0.014593
0.014593
0.014593
0.014593
0.014593
0.014593
0.014593
0.014593
0.014593
0.014593
0.014593
0.014593
0.014593
0.014593
0.014593
0.014593
0.014593
0.014593
0.014593
0.014593
0.014593
0.014593
0.014593
0.014593
0.014593
0.014593
0.014593
0.014593
0.014593
0.014593
0.014593
0.014593
0.014593
0.014593
0.014593
0.014593
0.014593
0.014593
0.014593
0.014593
0.014593
0.014593
0.014593
0.014593
0.014593
0.014593
0.014593
0.014593
0.014593
0.014593
0.014593
0.014593
0.014593
0.014593
0.014593
0.014593
0.014593
0.014593
0.014593
0.014593
0.014593
0.014593
0.014593
0.014593
0.014593
0.014593
0.014593
0.014593
0.014593
0.014593
0.014593
0.014593
0.014593
0.014593
0.014593
0.014593
0.014593
0.014593
0.014593
0.014593
0.014593
0.014593
0.014593
0.014593
0.014593
0.014593
0.014593
0.014593
0.014593
0.014593
0.014593
0.014593
0.014593
0.014593
0.014593
0.014593
0.014593
0.014593
0.014593
0.014593
0.014593
0.014593
0.014593
0.014593
0.014593
0.014593
0.014593
0.014593
0.014593
0.014593
0.014593
0.014593
0.014593
0.014593
0.014593
0.014593
0.014593
0.014593
0.014593
0.014593
0.014593
0.014593
0.014593
0.014593
0.014593
0.014593
0.014593
0.014593
0.014593
0.014593
0.014593
0.014593
0.014593
0.014593
0.014593
0.014593
0.014593
0.014593
0.014593
0.014593
0.014593
0.014593
0.014593
0.014593
0.014593
0.014593
0.014593
0.014593
0.014593
0.014593
0.014593
0.014593
0.014593
0.014593
0.014593
0.014593
0.014593
0.014593
0.014593
0.014593
0.014593
0.014593
0.014593
0.014593
0.014593
0.014593
0.014593
0.014593
0.014593
0.014593
0.014593
0.014593
0.014593
0.014593
0.014593
0.014593
0.014593
0.014593
0.014593
0.014593
0.014593
0.014593
0.014593
0.014593
0.014593
0.014593
0.014593
0.014593
0.014593
0.014593
0.014593
0.014593
0.014593
0.014593
0.014593
0.014593
0.014593
0.014593
0.014593
0.014593
0.014593
0.014593
0.014593
0.014593
0.014593
0.014593
0.014593
0.014593
0.014593
0.014593
0.014593
0.014593
0.014593
0.014593
0.014593
0.014593
0.014593
0.014593
0.014593
0.014593
0.014593
0.014593
0.014593
0.014593
0.014593
0.014593
0.014593
0.014593
0.014593
0.014593
0.014593
0.014593
0.014593
0.014593
0.014593
0.014593
0.014593
0.014593
0.014593
0.014593
0.014593
0.014593
0.014593
0.014593
0.014593
0.014593
0.014593
0.014593
0.014593
0.014593
0.014593
0.014593
0.014593
0.014593
0.014593
0.014593
0.014593
0.014593
0.014593
0.014593
0.014593
0.014593
0.014593
0.014593
0.014593
0.014593
0.014593
0.014593
0.014593
0.014593
0.014593
0.014593
0.014593
0.014593
0.014593
0.014593
0.014593
0.014593
0.014593
0.014593
0.014593
0.014593
0.014593
0.014593
0.014593
0.014593
0.014593
0.014593
0.014593
0.014593
0.014593
0.014593
0.014593
0.014593
0.014593
0.014593
0.014593
0.014593
0.014593
0.014593
0.014593
0.014593
0.014593
0.014593
0.014593
0.014593
0.014593
0.014593
0.014593
0.014593
0.014593
0.014593
0.014593
0.014593
0.014593
0.014593
0.014593
0.014593
0.014593
0.014593
0.014593
0.014593
0.014593
0.014593
0.014593
0.014593
0.014593
0.014593
0.014593
0.014593
0.014593
0.014593
0.014593
0.014593
0.014593
0.014593
0.014593
0.014593
0.014593
0.014593
0.014593
0.014593
0.014593
0.014593
0.014593
0.014593
0.014593
0.014593
0.014593
0.014593
0.014593
0.014593
0.014593
0.014593
0.014593
0.014593
0.014593
0.014593
0.014593
0.014593
0.014593
0.014593
0.014593
0.014593
0.014593
0.014593
0.014593
0.014593
0.014593
0.014593
0.014593
0.014593
0.014593
0.014593
0.014593
0.014593
0.014593
0.014593
0.014593
0.014593
0.014593
0.014593
0.014593
0.014593
0.014593
0.014593
0.014593
0.014593
0.014593
0.014593
0.014593
0.014593
0.014593
0.014593
0.014593
0.014593
0.014593
0.014593
0.014593
0.014593
0.014593
0.014593
0.014593
0.014593
0.014593
0.014593
0.014593
0.014593
0.014593
0.014593
0.014593
0.014593
0.014593
0.014593
0.014593
0.014593
0.014593
0.014593
0.014593
0.014593
0.014593
0.014593
0.014593
0.014593
0.014593
0.014593
0.014593
0.014593
0.014593
0.014593
0.014593
0.014593
0.014593
0.014593
0.014593
0.014593
0.014593
0.014593
0.014593
0.014593
0.014593
0.014593
0.014593
0.014593
0.014593
0.014593
0.014593
0.014593
0.014593
0.014593
0.014593
0.014593
0.014593
0.014593
0.014593
0.014593
0.014593
0.014593
0.014593
0.014593
0.014593
0.014593
0.014593
0.014593
0.014593
0.014593
0.014593
0.014593
0.014593
0.014593
0.014593
0.014593
0.014593
0.014593
0.014593
0.014593
0.014593
0.014593
0.014593
0.014593
0.014593
0.014593
0.014593
0.014593
0.014593
0.014593
0.014593
0.014593
0.014593
0.014593
0.014593
0.014593
0.014593
0.014593
0.014593
0.014593
0.014593
0.014593
0.014593
0.014593
0.014593
0.014593
0.014593
0.014593
0.014593
0.014593
0.014593
0.014593
0.014593
0.014593
0.014593
0.014593
0.014593
0.014593
0.014593
0.014593
0.014593
0.014593
0.014593
0.014593
0.014593
0.014593
0.014593
0.014593
0.014593
0.014593
0.014593
0.014593
0.014593
0.014593
0.014593
0.014593
0.014593
0.014593
0.014593
0.014593
0.014593
0.014593
0.014593
0.014593
0.014593
0.014593
0.014593
0.014593
0.014593
0.014593
0.014593
0.014593
0.014593
0.014593
0.014593
0.014593
0.014593
0.014593
0.014593
0.014593
0.014593
0.014593
0.014593
0.014593
0.014593
0.014593
0.014593
0.014593
0.014593
0.014593
0.014593
0.014593
0.014593
0.014593
0.014593
0.014593
0.014593
0.014593
0.014593
0.014593
0.014593
0.014593
0.014593
0.014593
0.014593
0.014593
0.014593
0.014593
0.014593
0.014593
0.014593
0.014593
0.014593
0.014593
0.014593
0.014593
0.014593
0.014593
0.014593
0.014593
0.014593
0.014593
0.014593
0.014593
0.014593
0.014593
0.014593
0.014593
0.014593
0.014593
0.014593
0.014593
0.014593
0.014593
0.014593
0.014593
0.014593
0.014593
0.014593
0.014593
0.014593
0.014593
0.014593
0.014593
0.014593
0.014593
0.014593
0.014593
0.014593
0.0145931
0.014593
0.014593
0.014593
0.014593
0.014593
0.014593
0.014593
0.014593
0.014593
0.014593
0.014593
0.014593
0.014593
0.014593
0.014593
0.014593
0.014593
0.014593
0.014593
0.014593
0.014593
0.014593
0.014593
0.014593
0.014593
0.014593
0.014593
0.014593
0.014593
0.014593
0.014593
0.014593
0.014593
0.014593
0.014593
0.014593
0.014593
0.014593
0.014593
0.014593
0.014593
0.014593
0.014593
0.014593
0.0145931
0.0145931
0.0145932
0.0145933
0.014593
0.014593
0.014593
0.014593
0.014593
0.014593
0.014593
0.014593
0.014593
0.014593
0.014593
0.014593
0.014593
0.014593
0.014593
0.014593
0.014593
0.014593
0.014593
0.014593
0.014593
0.014593
0.014593
0.014593
0.014593
0.014593
0.014593
0.014593
0.014593
0.014593
0.014593
0.014593
0.014593
0.014593
0.014593
0.014593
0.014593
0.014593
0.014593
0.014593
0.014593
0.0145931
0.0145931
0.0145932
0.0145933
0.0145935
0.014594
0.0145951
0.014593
0.014593
0.014593
0.014593
0.014593
0.014593
0.014593
0.014593
0.014593
0.014593
0.014593
0.014593
0.014593
0.014593
0.014593
0.014593
0.014593
0.014593
0.014593
0.014593
0.014593
0.014593
0.014593
0.014593
0.014593
0.014593
0.014593
0.014593
0.014593
0.014593
0.014593
0.014593
0.014593
0.014593
0.014593
0.014593
0.014593
0.014593
0.014593
0.014593
0.014593
0.0145931
0.0145932
0.0145933
0.0145935
0.014594
0.0145948
0.0145963
0.0145993
0.0146054
0.014593
0.014593
0.014593
0.014593
0.014593
0.014593
0.014593
0.014593
0.014593
0.014593
0.014593
0.014593
0.014593
0.014593
0.014593
0.014593
0.014593
0.014593
0.014593
0.014593
0.014593
0.014593
0.014593
0.014593
0.014593
0.014593
0.014593
0.014593
0.014593
0.014593
0.014593
0.014593
0.014593
0.014593
0.014593
0.014593
0.014593
0.014593
0.0145931
0.0145932
0.0145933
0.0145935
0.0145939
0.0145947
0.0145961
0.0145988
0.0146037
0.0146129
0.0146304
0.0146657
0.014593
0.014593
0.014593
0.014593
0.014593
0.014593
0.014593
0.014593
0.014593
0.014593
0.014593
0.014593
0.014593
0.014593
0.014593
0.014593
0.014593
0.014593
0.014593
0.014593
0.014593
0.014593
0.014593
0.014593
0.014593
0.014593
0.014593
0.014593
0.014593
0.014593
0.014593
0.014593
0.014593
0.014593
0.0145931
0.0145931
0.0145932
0.0145933
0.0145935
0.0145939
0.0145946
0.0145959
0.0145984
0.0146029
0.0146113
0.0146268
0.0146556
0.014709
0.0148091
0.015004
0.014593
0.014593
0.014593
0.014593
0.014593
0.014593
0.014593
0.014593
0.014593
0.014593
0.014593
0.014593
0.014593
0.014593
0.014593
0.014593
0.014593
0.014593
0.014593
0.014593
0.014593
0.014593
0.014593
0.014593
0.014593
0.014593
0.014593
0.014593
0.014593
0.014593
0.014593
0.0145931
0.0145931
0.0145932
0.0145933
0.0145935
0.0145939
0.0145946
0.0145958
0.0145981
0.0146023
0.0146101
0.0146243
0.0146503
0.0146982
0.0147861
0.0149467
0.015238
0.0157611
0.0166943
0.014593
0.014593
0.014593
0.014593
0.014593
0.014593
0.014593
0.014593
0.014593
0.014593
0.014593
0.014593
0.014593
0.014593
0.014593
0.014593
0.014593
0.014593
0.014593
0.014593
0.014593
0.014593
0.014593
0.014593
0.014593
0.014593
0.014593
0.014593
0.0145931
0.0145931
0.0145932
0.0145933
0.0145935
0.0145939
0.0145945
0.0145957
0.0145979
0.0146019
0.0146091
0.0146223
0.0146462
0.0146897
0.014769
0.0149128
0.0151715
0.0156298
0.0164207
0.0177313
0.0197876
0.0228104
0.014593
0.014593
0.014593
0.014593
0.014593
0.014593
0.014593
0.014593
0.014593
0.014593
0.014593
0.014593
0.014593
0.014593
0.014593
0.014593
0.014593
0.014593
0.014593
0.014593
0.014593
0.014593
0.014593
0.014593
0.014593
0.0145931
0.0145931
0.0145932
0.0145933
0.0145935
0.0145939
0.0145945
0.0145957
0.0145978
0.0146017
0.0146085
0.0146208
0.014643
0.0146832
0.0147556
0.0148858
0.0151187
0.0155292
0.0162359
0.0174073
0.0192469
0.021946
0.0256176
0.0302554
0.0357229
0.014593
0.014593
0.014593
0.014593
0.014593
0.014593
0.014593
0.014593
0.014593
0.014593
0.014593
0.014593
0.014593
0.014593
0.014593
0.014593
0.014593
0.014593
0.014593
0.014593
0.014593
0.014593
0.0145931
0.0145931
0.0145932
0.0145933
0.0145935
0.0145939
0.0145946
0.0145958
0.0145979
0.0146016
0.0146082
0.0146199
0.0146409
0.0146785
0.0147455
0.0148652
0.0150774
0.0154492
0.0160872
0.017145
0.018814
0.0212834
0.024678
0.0290063
0.0341556
0.0399311
0.0461185
0.0524993
0.014593
0.014593
0.014593
0.014593
0.014593
0.014593
0.014593
0.014593
0.014593
0.014593
0.014593
0.014593
0.014593
0.014593
0.014593
0.014593
0.014593
0.014593
0.014593
0.0145931
0.0145931
0.0145932
0.0145933
0.0145936
0.014594
0.0145947
0.0145959
0.014598
0.0146017
0.0146082
0.0146196
0.0146399
0.0146756
0.0147389
0.0148506
0.0150469
0.0153884
0.0159711
0.0169355
0.0184605
0.0207314
0.0238841
0.0279512
0.0328465
0.0383939
0.0443778
0.0505892
0.056851
0.063007
0.0689373
0.014593
0.014593
0.014593
0.014593
0.014593
0.014593
0.014593
0.014593
0.014593
0.014593
0.014593
0.014593
0.014593
0.014593
0.014593
0.0145931
0.0145931
0.0145931
0.0145932
0.0145934
0.0145936
0.0145941
0.0145948
0.0145961
0.0145982
0.014602
0.0146086
0.01462
0.0146399
0.0146747
0.0147356
0.0148419
0.0150269
0.0153457
0.015886
0.0167763
0.0181831
0.0202851
0.0232239
0.0270513
0.0317072
0.0370394
0.042847
0.0489254
0.0550936
0.0611947
0.0670913
0.072684
0.0778818
0.082604
0.014593
0.014593
0.014593
0.014593
0.014593
0.014593
0.014593
0.014593
0.014593
0.014593
0.014593
0.014593
0.0145931
0.0145931
0.0145932
0.0145933
0.0145934
0.0145937
0.0145942
0.014595
0.0145963
0.0145987
0.0146026
0.0146094
0.0146211
0.0146412
0.0146758
0.0147358
0.0148392
0.0150172
0.0153207
0.0158306
0.0166652
0.0179794
0.0199434
0.0226995
0.0263128
0.0307449
0.035866
0.041493
0.0474304
0.0535
0.0595509
0.0654465
0.071074
0.0763457
0.0811678
0.0854271
0.089011
0.0919201
0.014593
0.014593
0.014593
0.014593
0.014593
0.014593
0.014593
0.014593
0.014593
0.0145931
0.0145931
0.0145932
0.0145933
0.0145935
0.0145938
0.0145944
0.0145953
0.0145968
0.0145993
0.0146036
0.0146108
0.014623
0.0146438
0.0146792
0.0147397
0.0148428
0.015018
0.0153135
0.0158045
0.0166012
0.0178478
0.0197051
0.0223124
0.0257421
0.0299722
0.0348928
0.0403384
0.0461251
0.0520805
0.0580572
0.0639272
0.0695742
0.0749076
0.0798472
0.0842938
0.0881346
0.091289
0.0937624
0.0956229
0.0970253
0.014593
0.014593
0.014593
0.014593
0.014593
0.0145931
0.0145931
0.0145932
0.0145932
0.0145934
0.0145936
0.014594
0.0145946
0.0145957
0.0145974
0.0146002
0.0146049
0.0146128
0.014626
0.0146481
0.0146854
0.014748
0.0148535
0.0150303
0.0153248
0.0158083
0.0165843
0.0177877
0.0195696
0.0220632
0.0253432
0.0293988
0.0341361
0.039406
0.0450378
0.0508669
0.0567497
0.0625663
0.0682047
0.0735696
0.0785855
0.0831724
0.0872278
0.0906534
0.0934059
0.0955215
0.097094
0.0982529
0.0991074
0.0997748
0.014593
0.0145931
0.0145931
0.0145931
0.0145932
0.0145933
0.0145935
0.0145938
0.0145943
0.014595
0.0145962
0.0145982
0.0146015
0.0146069
0.0146158
0.0146304
0.0146546
0.0146948
0.0147616
0.0148724
0.0150557
0.0153566
0.0158442
0.0166168
0.0178012
0.0195386
0.0219541
0.0251204
0.0290324
0.0336085
0.0387143
0.0441924
0.0498877
0.0556626
0.0614018
0.0670033
0.0723707
0.0774275
0.0821056
0.0863199
0.0899713
0.0929868
0.0953614
0.0971578
0.0984831
0.0994544
0.100176
0.100737
0.101189
0.101571
0.0145932
0.0145933
0.0145934
0.0145937
0.014594
0.0145946
0.0145956
0.0145971
0.0145995
0.0146034
0.0146097
0.01462
0.0146367
0.014664
0.0147087
0.0147819
0.0149016
0.0150967
0.0154125
0.0159165
0.0167033
0.0178929
0.0196166
0.0219896
0.0250786
0.0288801
0.0333209
0.0382786
0.0436088
0.0491673
0.054824
0.0604684
0.0660072
0.0713497
0.0764165
0.0811442
0.0854643
0.0892885
0.092531
0.0951505
0.0971752
0.0986863
0.0997965
0.10061
0.101222
0.101701
0.102093
0.102422
0.102735
0.103035
0.0145939
0.0145944
0.0145951
0.0145963
0.0145982
0.0146013
0.014606
0.0146137
0.014626
0.0146457
0.0146774
0.0147285
0.014811
0.014944
0.0151576
0.0154978
0.0160319
0.0168519
0.0180716
0.0198124
0.0221778
0.0252257
0.0289502
0.0332829
0.0381113
0.0433031
0.0487258
0.0542576
0.0597945
0.065249
0.0705404
0.0755896
0.0803331
0.0847132
0.0886568
0.0920784
0.0949147
0.0971593
0.0988657
0.100127
0.101049
0.101727
0.102247
0.102656
0.102991
0.103287
0.103575
0.103829
0.104053
0.104265
0.0145959
0.0145975
0.0146
0.0146038
0.0146099
0.0146194
0.0146345
0.0146584
0.0146963
0.0147565
0.0148523
0.0150043
0.0152446
0.0156207
0.0162008
0.0170749
0.0183509
0.0201396
0.0225316
0.0255732
0.0292529
0.0335045
0.0382235
0.0432886
0.0485787
0.0539822
0.0594021
0.0647566
0.0699737
0.0749796
0.0797098
0.0841115
0.0881258
0.0916765
0.0946906
0.0971337
0.0990302
0.10045
0.101493
0.102253
0.102818
0.103254
0.103602
0.10389
0.104158
0.104417
0.104633
0.104834
0.105018
0.105191
0.105365
0.0146076
0.0146155
0.0146277
0.0146468
0.0146766
0.0147232
0.0147962
0.0149106
0.0150892
0.0153667
0.0157932
0.016438
0.0173899
0.0187501
0.0206179
0.0230691
0.0261366
0.0298012
0.0339967
0.0386252
0.0435758
0.0487386
0.0540125
0.0593084
0.0645507
0.0696739
0.0746131
0.0793046
0.0836965
0.0877398
0.0913709
0.0945175
0.0971278
0.0991987
0.100778
0.101946
0.102799
0.10342
0.103887
0.104251
0.104544
0.104794
0.105034
0.105258
0.105448
0.105624
0.105784
0.105939
0.106096
0.106257
0.106421
0.01464
0.0146648
0.0147031
0.014762
0.014853
0.0149933
0.0152088
0.0155373
0.0160323
0.0167647
0.017821
0.0192952
0.0212731
0.0238141
0.0269361
0.0306112
0.034772
0.0393267
0.0441738
0.0492147
0.0543588
0.0595257
0.0646461
0.0696605
0.0745124
0.0791416
0.083497
0.0875348
0.0912033
0.0944368
0.0971761
0.0993964
0.101123
0.102418
0.103366
0.104055
0.104559
0.104942
0.105241
0.105482
0.105702
0.105919
0.1061
0.106265
0.10642
0.106562
0.1067
0.106842
0.106987
0.107134
0.107284
0.107436
0.0148187
0.0149351
0.0151116
0.0153778
0.0157757
0.0163623
0.0172095
0.0184006
0.0200198
0.0221377
0.0247956
0.0279958
0.0317014
0.0358441
0.0403376
0.0450901
0.0500136
0.055028
0.0600619
0.0650527
0.0699464
0.0746933
0.0792397
0.0835352
0.0875387
0.0912075
0.0944853
0.0973126
0.0996511
0.101505
0.102919
0.103964
0.104723
0.105271
0.105676
0.105985
0.106228
0.106426
0.106618
0.106801
0.106953
0.107095
0.107224
0.107347
0.107471
0.1076
0.107731
0.107863
0.107998
0.108132
0.108266
0.108399
0.0156185
0.0161099
0.0168168
0.0178111
0.01917
0.0209655
0.0232502
0.0260467
0.0293421
0.0330916
0.0372267
0.041667
0.0463304
0.0511393
0.0560238
0.0609212
0.0657756
0.0705386
0.0751662
0.0796114
0.0838263
0.0877711
0.0914093
0.094694
0.0975694
0.0999911
0.101947
0.103464
0.1046
0.105429
0.106027
0.106457
0.106776
0.10702
0.10721
0.107377
0.107545
0.107685
0.107811
0.10793
0.108038
0.108142
0.108251
0.108365
0.108482
0.108602
0.108723
0.108844
0.108964
0.109081
0.109195
0.109306
0.0186192
0.0201802
0.0221805
0.0246534
0.0276029
0.0310024
0.0348013
0.0389325
0.0433224
0.0478983
0.0525932
0.0573464
0.0621037
0.0668158
0.0714396
0.075936
0.0802644
0.0843802
0.0882454
0.0918271
0.0950864
0.0979736
0.100443
0.10247
0.10407
0.105286
0.106181
0.106826
0.107285
0.107617
0.107863
0.108049
0.108193
0.108334
0.108472
0.108579
0.10868
0.108774
0.10886
0.108948
0.109043
0.109141
0.109243
0.109349
0.109456
0.109564
0.109671
0.109776
0.109876
0.109973
0.110064
0.110151
0.0263921
0.029499
0.0330022
0.0368476
0.0409717
0.0453086
0.049795
0.0543736
0.0589928
0.063606
0.0681701
0.0726471
0.0770023
0.0812006
0.0852013
0.0889685
0.0924717
0.0956784
0.0985452
0.101028
0.103097
0.104755
0.106033
0.106984
0.107673
0.108163
0.108508
0.108756
0.108938
0.109072
0.109185
0.109301
0.109396
0.109479
0.109558
0.109627
0.109694
0.109766
0.109844
0.109927
0.110014
0.110106
0.110199
0.110293
0.110386
0.110478
0.110567
0.110652
0.110731
0.110804
0.11087
0.110929
0.0392432
0.0433507
0.0476269
0.052018
0.0564758
0.0609568
0.0654212
0.0698317
0.074155
0.0783603
0.082417
0.0862888
0.0899419
0.0933481
0.0964791
0.0992981
0.101763
0.103844
0.105534
0.106855
0.10785
0.108575
0.109091
0.10945
0.109701
0.109879
0.110004
0.110094
0.110181
0.110268
0.110329
0.110388
0.110442
0.110488
0.110538
0.110594
0.110656
0.110723
0.110796
0.110872
0.11095
0.11103
0.11111
0.111189
0.111265
0.111338
0.111406
0.111468
0.111523
0.11157
0.111609
0.111639
0.0545614
0.0588918
0.063229
0.0675393
0.0717906
0.0759535
0.0800012
0.0839066
0.0876374
0.0911623
0.0944551
0.0974913
0.100239
0.10266
0.104725
0.106421
0.107762
0.108784
0.109535
0.110071
0.110444
0.110696
0.110869
0.110986
0.111062
0.111121
0.111183
0.111232
0.111268
0.111304
0.111333
0.11136
0.111392
0.111432
0.111478
0.111529
0.111586
0.111647
0.111711
0.111777
0.111843
0.111909
0.111972
0.112032
0.112089
0.112139
0.112184
0.112221
0.112249
0.112269
0.112279
0.112278
0.0740333
0.0780296
0.0819127
0.0856583
0.0892377
0.092622
0.0957877
0.0987127
0.101369
0.103723
0.105746
0.107423
0.108763
0.109795
0.110561
0.111108
0.111488
0.111742
0.111908
0.112016
0.112078
0.112114
0.11215
0.112185
0.112199
0.112214
0.112226
0.112231
0.11224
0.112257
0.11228
0.112309
0.112345
0.112387
0.112433
0.112482
0.112533
0.112585
0.112636
0.112687
0.112735
0.112779
0.112818
0.112852
0.112879
0.112898
0.112909
0.112908
0.112899
0.112879
0.112847
0.0876577
0.0910765
0.0943097
0.0973361
0.100136
0.102684
0.104951
0.10691
0.108546
0.109864
0.110887
0.111653
0.112203
0.112584
0.112837
0.112995
0.113092
0.113142
0.11316
0.113168
0.11318
0.113181
0.113171
0.113163
0.113151
0.113137
0.11313
0.113129
0.113136
0.11315
0.11317
0.113196
0.113227
0.113261
0.113297
0.113335
0.113373
0.11341
0.113445
0.113477
0.113505
0.113527
0.113544
0.113554
0.113554
0.113546
0.113528
0.113499
0.113459
0.113407
0.113342
0.0990871
0.10175
0.104176
0.106339
0.108214
0.109789
0.111065
0.112064
0.112814
0.113356
0.113732
0.113977
0.114127
0.114213
0.114251
0.114248
0.114235
0.114221
0.114206
0.114175
0.114146
0.114116
0.11408
0.11405
0.114026
0.11401
0.114001
0.113999
0.114004
0.114014
0.114029
0.114048
0.11407
0.114093
0.114117
0.114141
0.114163
0.114182
0.114198
0.11421
0.114216
0.114214
0.114206
0.11419
0.114163
0.114127
0.114079
0.11402
0.113948
0.113863
0.113765
0.109653
0.111149
0.112367
0.113323
0.114046
0.114569
0.114931
0.115164
0.115302
0.115374
0.115396
0.11538
0.115348
0.115309
0.11527
0.115225
0.115172
0.115122
0.115068
0.115015
0.114968
0.114929
0.114897
0.114873
0.114856
0.114845
0.11484
0.11484
0.114844
0.11485
0.114859
0.114869
0.114879
0.114888
0.114895
0.114899
0.114898
0.114893
0.114883
0.114865
0.114839
0.114804
0.11476
0.114705
0.114638
0.11456
0.114469
0.114365
0.114247
0.114115
0.114663
0.115345
0.115839
0.116178
0.116394
0.116518
0.116575
0.116578
0.11655
0.116497
0.116435
0.116374
0.116314
0.116239
0.116168
0.116097
0.116022
0.115953
0.115892
0.115837
0.11579
0.115751
0.115718
0.115692
0.115672
0.115657
0.115646
0.115638
0.115633
0.115629
0.115625
0.11562
0.115614
0.115606
0.115595
0.115579
0.115557
0.115529
0.115493
0.11545
0.115397
0.115335
0.115262
0.115177
0.11508
0.114971
0.114847
0.11471
0.114559
0.114393
0.117472
0.117666
0.117771
0.117808
0.117795
0.117752
0.117681
0.117599
0.117516
0.117434
0.117345
0.117251
0.117162
0.117069
0.116978
0.116895
0.116818
0.116749
0.116688
0.116634
0.116587
0.116546
0.116511
0.116481
0.116455
0.116432
0.116413
0.116394
0.116377
0.116359
0.116341
0.11632
0.116296
0.116269
0.116237
0.116199
0.116154
0.116101
0.11604
0.11597
0.11589
0.115799
0.115696
0.115581
0.115453
0.115311
0.115156
0.114985
0.114801
0.1146
0.119072
0.119044
0.118983
0.118894
0.118793
0.11869
0.118589
0.118484
0.11837
0.11826
0.118151
0.11804
0.117936
0.117839
0.117748
0.117664
0.117589
0.117521
0.117459
0.117404
0.117354
0.11731
0.117269
0.117233
0.117198
0.117166
0.117135
0.117104
0.117073
0.11704
0.117004
0.116965
0.116922
0.116873
0.116819
0.116757
0.116688
0.11661
0.116522
0.116424
0.116315
0.116195
0.116062
0.115916
0.115756
0.115582
0.115394
0.115191
0.114972
0.114737
0.120133
0.120014
0.119893
0.119771
0.119648
0.119519
0.11939
0.119265
0.119135
0.11901
0.118893
0.118782
0.118678
0.118582
0.118493
0.11841
0.118335
0.118266
0.118202
0.118143
0.118088
0.118037
0.117989
0.117943
0.117899
0.117854
0.11781
0.117765
0.117717
0.117666
0.117612
0.117553
0.117489
0.117418
0.11734
0.117254
0.117158
0.117054
0.116938
0.116812
0.116674
0.116523
0.116359
0.116182
0.11599
0.115784
0.115563
0.115327
0.115075
0.114806
0.120979
0.120838
0.120695
0.120547
0.120403
0.120259
0.120116
0.11998
0.11985
0.119725
0.119609
0.1195
0.119398
0.119302
0.119213
0.11913
0.119052
0.118979
0.118911
0.118846
0.118784
0.118725
0.118667
0.118609
0.118552
0.118494
0.118434
0.118372
0.118307
0.118237
0.118163
0.118083
0.117995
0.117901
0.117798
0.117686
0.117564
0.117432
0.117288
0.117133
0.116965
0.116784
0.116589
0.11638
0.116157
0.115919
0.115665
0.115395
0.115112
0.114812
0.121729
0.121567
0.121408
0.121248
0.121093
0.120946
0.120803
0.120668
0.12054
0.120418
0.120303
0.120195
0.120092
0.119996
0.119905
0.119818
0.119736
0.119658
0.119582
0.119509
0.119438
0.119368
0.119298
0.119228
0.119156
0.119082
0.119006
0.118926
0.118841
0.118751
0.118655
0.118552
0.118441
0.118321
0.118193
0.118055
0.117905
0.117745
0.117573
0.117388
0.11719
0.116978
0.116752
0.116512
0.116257
0.115986
0.115702
0.115402
0.115088
0.114757
0.122232
0.122067
0.121908
0.121754
0.121608
0.121468
0.121334
0.121207
0.121087
0.120972
0.120862
0.120758
0.120658
0.120563
0.120471
0.120383
0.120297
0.120212
0.120129
0.120047
0.119964
0.119881
0.119796
0.119708
0.119617
0.119522
0.119422
0.119317
0.119205
0.119086
0.118959
0.118824
0.118679
0.118524
0.118359
0.118182
0.117993
0.117791
0.117577
0.117349
0.117107
0.11685
0.116578
0.116293
0.115993
0.115678
0.115348
0.115002
0.114639
0.122865
0.122702
0.122545
0.122393
0.122249
0.12211
0.121977
0.12185
0.121728
0.121611
0.121499
0.121391
0.121286
0.121185
0.121086
0.120989
0.120893
0.120798
0.120704
0.120608
0.120511
0.120413
0.120311
0.120206
0.120096
0.119981
0.119861
0.119733
0.119599
0.119456
0.119305
0.119144
0.118973
0.118792
0.118599
0.118394
0.118176
0.117945
0.117701
0.117443
0.11717
0.116884
0.116584
0.116269
0.115939
0.115594
0.115233
0.114856
0.114463
0.123477
0.123316
0.12316
0.12301
0.122866
0.122727
0.122593
0.122464
0.122339
0.122219
0.122101
0.121987
0.121876
0.121766
0.121658
0.121551
0.121445
0.121338
0.121229
0.121119
0.121007
0.120891
0.120772
0.120648
0.120518
0.120382
0.12024
0.12009
0.119932
0.119765
0.119589
0.119402
0.119205
0.118996
0.118775
0.118542
0.118296
0.118035
0.117761
0.117475
0.117174
0.116859
0.11653
0.116185
0.115825
0.115449
0.115058
0.114652
0.114229
0.123907
0.123752
0.123601
0.123456
0.123315
0.123178
0.123045
0.122916
0.12279
0.122666
0.122544
0.122424
0.122305
0.122187
0.122068
0.121948
0.121827
0.121704
0.121578
0.121449
0.121315
0.121177
0.121033
0.120882
0.120725
0.12056
0.120387
0.120204
0.120013
0.119811
0.119598
0.119374
0.119137
0.118889
0.118627
0.118352
0.118064
0.117763
0.117448
0.117119
0.116775
0.116416
0.116042
0.115652
0.115248
0.114828
0.114394
0.113942
0.124472
0.124316
0.124163
0.124015
0.123871
0.123729
0.123591
0.123456
0.123322
0.12319
0.123059
0.122929
0.122799
0.122668
0.122536
0.122403
0.122266
0.122127
0.121984
0.121836
0.121684
0.121525
0.12136
0.121188
0.121008
0.12082
0.120623
0.120416
0.120199
0.119971
0.119731
0.11948
0.119216
0.11894
0.118652
0.11835
0.118035
0.117707
0.117363
0.117005
0.116632
0.116245
0.115842
0.115425
0.114992
0.114545
0.114082
0.113604
0.124849
0.124693
0.124541
0.124391
0.124244
0.124099
0.123955
0.123813
0.123671
0.12353
0.123388
0.123245
0.123101
0.122954
0.122805
0.122653
0.122496
0.122334
0.122168
0.121995
0.121816
0.121629
0.121435
0.121232
0.12102
0.120799
0.120567
0.120324
0.12007
0.119804
0.119526
0.119237
0.118935
0.11862
0.118291
0.117948
0.117592
0.11722
0.116834
0.116434
0.116018
0.115588
0.115144
0.114684
0.11421
0.113722
0.113218
0.125349
0.125188
0.12503
0.124873
0.124719
0.124565
0.124412
0.12426
0.124107
0.123954
0.123799
0.123642
0.123483
0.123321
0.123155
0.122985
0.12281
0.122629
0.122443
0.122249
0.122049
0.12184
0.121623
0.121397
0.121161
0.120914
0.120657
0.120389
0.12011