/*--------------------------------*- C++ -*----------------------------------*\
| =========                 |                                                 |
| \\      /  F ield         | OpenFOAM: The Open Source CFD Toolbox           |
|  \\    /   O peration     | Version:  v1706                                 |
|   \\  /    A nd           | Web:      www.OpenFOAM.com                      |
|    \\/     M anipulation  |                                                 |
\*---------------------------------------------------------------------------*/
FoamFile
{
    version     2.0;
    format      ascii;
    class       volScalarField;
    location    "8e-06";
    object      kappave;
}
// * * * * * * * * * * * * * * * * * * * * * * * * * * * * * * * * * * * * * //

dimensions      [1 1 -3 -1 0 0 0];


internalField   nonuniform List<scalar> 
30038
(
1.46038e-10
1.46038e-10
1.46038e-10
1.46038e-10
1.46038e-10
1.46038e-10
1.46038e-10
1.46038e-10
1.46038e-10
1.46038e-10
1.46038e-10
1.46038e-10
1.46038e-10
1.46038e-10
1.46038e-10
1.46038e-10
1.46038e-10
1.46038e-10
1.46038e-10
1.46038e-10
1.46038e-10
1.46038e-10
1.46038e-10
1.46038e-10
1.46038e-10
1.46038e-10
1.46038e-10
1.46038e-10
1.46038e-10
1.46038e-10
1.46038e-10
1.46038e-10
1.46038e-10
1.46038e-10
1.46038e-10
1.46038e-10
1.46038e-10
1.46038e-10
1.46038e-10
1.46038e-10
1.46038e-10
1.46038e-10
1.46038e-10
1.46038e-10
1.46038e-10
1.46038e-10
1.46038e-10
1.46038e-10
1.46038e-10
1.46038e-10
1.46038e-10
1.46038e-10
1.46038e-10
1.46038e-10
1.46038e-10
1.46038e-10
1.46038e-10
1.46038e-10
1.46038e-10
1.46038e-10
1.46038e-10
1.46038e-10
1.46038e-10
1.46038e-10
1.46038e-10
1.46038e-10
1.46038e-10
1.46038e-10
1.46038e-10
1.46038e-10
1.46038e-10
1.46038e-10
1.46038e-10
1.46038e-10
1.46038e-10
1.46038e-10
1.46038e-10
1.46038e-10
1.46038e-10
1.46038e-10
1.46038e-10
1.46038e-10
1.46038e-10
1.46038e-10
1.46038e-10
1.46038e-10
1.46038e-10
1.46038e-10
1.46038e-10
1.46038e-10
1.46038e-10
1.46038e-10
1.46038e-10
1.46038e-10
1.46038e-10
1.46038e-10
1.46038e-10
1.46038e-10
1.46038e-10
1.46038e-10
1.46038e-10
1.46038e-10
1.46038e-10
1.46038e-10
1.46038e-10
1.46038e-10
1.46038e-10
1.46038e-10
1.46038e-10
1.46038e-10
1.46038e-10
1.46038e-10
1.46038e-10
1.46038e-10
1.46038e-10
1.46038e-10
1.46038e-10
1.46038e-10
1.46038e-10
1.46038e-10
1.46038e-10
1.46038e-10
1.46038e-10
1.46038e-10
1.46038e-10
1.46038e-10
1.46038e-10
1.46038e-10
1.46038e-10
1.46038e-10
1.46038e-10
1.46038e-10
1.46038e-10
1.46038e-10
1.46038e-10
1.46038e-10
1.46038e-10
1.46038e-10
1.46038e-10
1.46038e-10
1.46038e-10
1.46038e-10
1.46038e-10
1.46038e-10
1.46038e-10
1.46038e-10
1.46038e-10
1.46038e-10
1.46038e-10
1.46038e-10
1.46038e-10
1.46038e-10
1.46038e-10
1.46038e-10
1.46038e-10
1.46038e-10
1.46038e-10
1.46038e-10
1.46038e-10
1.46038e-10
1.46038e-10
1.46038e-10
1.46038e-10
1.46038e-10
1.46038e-10
1.46038e-10
1.46038e-10
1.46038e-10
1.46038e-10
1.46038e-10
1.46038e-10
1.46038e-10
1.46038e-10
1.46038e-10
1.46038e-10
1.46038e-10
1.46038e-10
1.46038e-10
1.46038e-10
1.46038e-10
1.46038e-10
1.46038e-10
1.46038e-10
1.46038e-10
1.46038e-10
1.46038e-10
1.46038e-10
1.46038e-10
1.46038e-10
1.46038e-10
1.46038e-10
1.46038e-10
1.46038e-10
1.46038e-10
1.46038e-10
1.46038e-10
1.46038e-10
1.46038e-10
1.46038e-10
1.46038e-10
1.46038e-10
1.46038e-10
1.46038e-10
1.46038e-10
1.46038e-10
1.46038e-10
1.46038e-10
1.46038e-10
1.46038e-10
1.46038e-10
1.46038e-10
1.46038e-10
1.46038e-10
1.46038e-10
1.46038e-10
1.46038e-10
1.46038e-10
1.46038e-10
1.46038e-10
1.46038e-10
1.46038e-10
1.46038e-10
1.46038e-10
1.46038e-10
1.46038e-10
1.46038e-10
1.46038e-10
1.46038e-10
1.46038e-10
1.46038e-10
1.46038e-10
1.46038e-10
1.46038e-10
1.46038e-10
1.46038e-10
1.46038e-10
1.46038e-10
1.46038e-10
1.46038e-10
1.46038e-10
1.46038e-10
1.46038e-10
1.46038e-10
1.46038e-10
1.46038e-10
1.46038e-10
1.46038e-10
1.46038e-10
1.46038e-10
1.46038e-10
1.46038e-10
1.46038e-10
1.46038e-10
1.46038e-10
1.46038e-10
1.46038e-10
1.46038e-10
1.46038e-10
1.46038e-10
1.46038e-10
1.46038e-10
1.46038e-10
1.46038e-10
1.46038e-10
1.46038e-10
1.46038e-10
1.46038e-10
1.46038e-10
1.46038e-10
1.46038e-10
1.46038e-10
1.46038e-10
1.46038e-10
1.46038e-10
1.46038e-10
1.46038e-10
1.46038e-10
1.46038e-10
1.46038e-10
1.46038e-10
1.46038e-10
1.46038e-10
1.46038e-10
1.46038e-10
1.46038e-10
1.46038e-10
1.46038e-10
1.46038e-10
1.46038e-10
1.46038e-10
1.46038e-10
1.46038e-10
1.46038e-10
1.46038e-10
1.46038e-10
1.46038e-10
1.46038e-10
1.46038e-10
1.46038e-10
1.46038e-10
1.46038e-10
1.46038e-10
1.46038e-10
1.46038e-10
1.46038e-10
1.46038e-10
1.46038e-10
1.46038e-10
1.46038e-10
1.46038e-10
1.46038e-10
1.46038e-10
1.46038e-10
1.46038e-10
1.46038e-10
1.46038e-10
1.46038e-10
1.46038e-10
1.46038e-10
1.46038e-10
1.46038e-10
1.46038e-10
1.46038e-10
1.46038e-10
1.46038e-10
1.46038e-10
1.46038e-10
1.46038e-10
1.46038e-10
1.46038e-10
1.46038e-10
1.46038e-10
1.46038e-10
1.46038e-10
1.46038e-10
1.46038e-10
1.46038e-10
1.46038e-10
1.46038e-10
1.46038e-10
1.46038e-10
1.46038e-10
1.46038e-10
1.46038e-10
1.46038e-10
1.46038e-10
1.46038e-10
1.46038e-10
1.46038e-10
1.46038e-10
1.46038e-10
1.46038e-10
1.46038e-10
1.46038e-10
1.46038e-10
1.46038e-10
1.46038e-10
1.46038e-10
1.46038e-10
1.46038e-10
1.46038e-10
1.46038e-10
1.46038e-10
1.46038e-10
1.46038e-10
1.46038e-10
1.46038e-10
1.46038e-10
1.46038e-10
1.46038e-10
1.46038e-10
1.46038e-10
1.46038e-10
1.46038e-10
1.46038e-10
1.46038e-10
1.46038e-10
1.46038e-10
1.46038e-10
1.46038e-10
1.46038e-10
1.46038e-10
1.46038e-10
1.46038e-10
1.46038e-10
1.46038e-10
1.46038e-10
1.46038e-10
1.46038e-10
1.46038e-10
1.46038e-10
1.46038e-10
1.46038e-10
1.46038e-10
1.46038e-10
1.46038e-10
1.46038e-10
1.46038e-10
1.46038e-10
1.46038e-10
1.46038e-10
1.46038e-10
1.46038e-10
1.46038e-10
1.46038e-10
1.46038e-10
1.46038e-10
1.46038e-10
1.46038e-10
1.46038e-10
1.46038e-10
1.46038e-10
1.46038e-10
1.46038e-10
1.46038e-10
1.46038e-10
1.46038e-10
1.46038e-10
1.46038e-10
1.46038e-10
1.46038e-10
1.46038e-10
1.46038e-10
1.46038e-10
1.46038e-10
1.46038e-10
1.46038e-10
1.46038e-10
1.46038e-10
1.46038e-10
1.46038e-10
1.46038e-10
1.46038e-10
1.46038e-10
1.46038e-10
1.46038e-10
1.46038e-10
1.46038e-10
1.46038e-10
1.46038e-10
1.46038e-10
1.46038e-10
1.46038e-10
1.46038e-10
1.46038e-10
1.46038e-10
1.46038e-10
1.46038e-10
1.46038e-10
1.46038e-10
1.46038e-10
1.46038e-10
1.46038e-10
1.46038e-10
1.46038e-10
1.46038e-10
1.46038e-10
1.46038e-10
1.46038e-10
1.46038e-10
1.46038e-10
1.46038e-10
1.46038e-10
1.46038e-10
1.46038e-10
1.46038e-10
1.46038e-10
1.46038e-10
1.46038e-10
1.46038e-10
1.46038e-10
1.46038e-10
1.46038e-10
1.46038e-10
1.46038e-10
1.46038e-10
1.46038e-10
1.46038e-10
1.46038e-10
1.46038e-10
1.46038e-10
1.46038e-10
1.46038e-10
1.46038e-10
1.46038e-10
1.46038e-10
1.46038e-10
1.46038e-10
1.46038e-10
1.46038e-10
1.46038e-10
1.46038e-10
1.46038e-10
1.46038e-10
1.46038e-10
1.46038e-10
1.46038e-10
1.46038e-10
1.46038e-10
1.46038e-10
1.46038e-10
1.46038e-10
1.46038e-10
1.46038e-10
1.46038e-10
1.46038e-10
1.46038e-10
1.46038e-10
1.46038e-10
1.46038e-10
1.46038e-10
1.46038e-10
1.46038e-10
1.46038e-10
1.46038e-10
1.46038e-10
1.46038e-10
1.46038e-10
1.46038e-10
1.46038e-10
1.46038e-10
1.46038e-10
1.46038e-10
1.46038e-10
1.46038e-10
1.46038e-10
1.46038e-10
1.46038e-10
1.46038e-10
1.46038e-10
1.46038e-10
1.46038e-10
1.46038e-10
1.46038e-10
1.46038e-10
1.46038e-10
1.46038e-10
1.46038e-10
1.46038e-10
1.46038e-10
1.46038e-10
1.46038e-10
1.46038e-10
1.46038e-10
1.46038e-10
1.46038e-10
1.46038e-10
1.46038e-10
1.46038e-10
1.46038e-10
1.46038e-10
1.46038e-10
1.46038e-10
1.46038e-10
1.46038e-10
1.46038e-10
1.46038e-10
1.46038e-10
1.46038e-10
1.46038e-10
1.46038e-10
1.46038e-10
1.46038e-10
1.46038e-10
1.46038e-10
1.46038e-10
1.46038e-10
1.46038e-10
1.46038e-10
1.46038e-10
1.46038e-10
1.46038e-10
1.46038e-10
1.46038e-10
1.46038e-10
1.46038e-10
1.46038e-10
1.46038e-10
1.46038e-10
1.46038e-10
1.46038e-10
1.46038e-10
1.46038e-10
1.46038e-10
1.46038e-10
1.46038e-10
1.46038e-10
1.46038e-10
1.46038e-10
1.46038e-10
1.46038e-10
1.46038e-10
1.46038e-10
1.46038e-10
1.46038e-10
1.46038e-10
1.46038e-10
1.46038e-10
1.46038e-10
1.46038e-10
1.46038e-10
1.46038e-10
1.46038e-10
1.46038e-10
1.46038e-10
1.46038e-10
1.46038e-10
1.46038e-10
1.46038e-10
1.46038e-10
1.46038e-10
1.46038e-10
1.46038e-10
1.46038e-10
1.46038e-10
1.46038e-10
1.46038e-10
1.46038e-10
1.46038e-10
1.46038e-10
1.46038e-10
1.46038e-10
1.46038e-10
1.46038e-10
1.46038e-10
1.46038e-10
1.46038e-10
1.46038e-10
1.46038e-10
1.46038e-10
1.46038e-10
1.46038e-10
1.46038e-10
1.46038e-10
1.46038e-10
1.46038e-10
1.46038e-10
1.46038e-10
1.46038e-10
1.46038e-10
1.46038e-10
1.46038e-10
1.46038e-10
1.46038e-10
1.46038e-10
1.46038e-10
1.46038e-10
1.46038e-10
1.46038e-10
1.46038e-10
1.46038e-10
1.46038e-10
1.46038e-10
1.46038e-10
1.46038e-10
1.46038e-10
1.46038e-10
1.46038e-10
1.46038e-10
1.46038e-10
1.46038e-10
1.46038e-10
1.46038e-10
1.46038e-10
1.46038e-10
1.46038e-10
1.46038e-10
1.46038e-10
1.46038e-10
1.46038e-10
1.46038e-10
1.46038e-10
1.46038e-10
1.46038e-10
1.46038e-10
1.46038e-10
1.46038e-10
1.46038e-10
1.46038e-10
1.46038e-10
1.46038e-10
1.46038e-10
1.46038e-10
1.46038e-10
1.46038e-10
1.46038e-10
1.46038e-10
1.46038e-10
1.46038e-10
1.46038e-10
1.46038e-10
1.46038e-10
1.46038e-10
1.46038e-10
1.46038e-10
1.46038e-10
1.46038e-10
1.46038e-10
1.46038e-10
1.46038e-10
1.46038e-10
1.46038e-10
1.46038e-10
1.46038e-10
1.46038e-10
1.46038e-10
1.46038e-10
1.46038e-10
1.46038e-10
1.46038e-10
1.46038e-10
1.46038e-10
1.46038e-10
1.46038e-10
1.46038e-10
1.46038e-10
1.46038e-10
1.46038e-10
1.46038e-10
1.46038e-10
1.46038e-10
1.46038e-10
1.46038e-10
1.46038e-10
1.46038e-10
1.46038e-10
1.46038e-10
1.46038e-10
1.46038e-10
1.46038e-10
1.46038e-10
1.46038e-10
1.46038e-10
1.46038e-10
1.46038e-10
1.46038e-10
1.46038e-10
1.46038e-10
1.46038e-10
1.46038e-10
1.46038e-10
1.46038e-10
1.46038e-10
1.46038e-10
1.46038e-10
1.46038e-10
1.46038e-10
1.46038e-10
1.46038e-10
1.46038e-10
1.46038e-10
1.46038e-10
1.46038e-10
1.46038e-10
1.46038e-10
1.46038e-10
1.46038e-10
1.46038e-10
1.46038e-10
1.46038e-10
1.46038e-10
1.46038e-10
1.46038e-10
1.46038e-10
1.46038e-10
1.46038e-10
1.46038e-10
1.46038e-10
1.46038e-10
1.46038e-10
1.46038e-10
1.46038e-10
1.46038e-10
1.46038e-10
1.46038e-10
1.46038e-10
1.46038e-10
1.46038e-10
1.46038e-10
1.46038e-10
1.46038e-10
1.46038e-10
1.46038e-10
1.46038e-10
1.46038e-10
1.46038e-10
1.46038e-10
1.46038e-10
1.46038e-10
1.46038e-10
1.46038e-10
1.46038e-10
1.46038e-10
1.46038e-10
1.46038e-10
1.46038e-10
1.46038e-10
1.46038e-10
1.46038e-10
1.46038e-10
1.46038e-10
1.46038e-10
1.46038e-10
1.46038e-10
1.46038e-10
1.46038e-10
1.46038e-10
1.46038e-10
1.46038e-10
1.46038e-10
1.46038e-10
1.46038e-10
1.46038e-10
1.46038e-10
1.46038e-10
1.46038e-10
1.46038e-10
1.46038e-10
1.46038e-10
1.46038e-10
1.46038e-10
1.46038e-10
1.46038e-10
1.46038e-10
1.46038e-10
1.46038e-10
1.46038e-10
1.46038e-10
1.46038e-10
1.46038e-10
1.46038e-10
1.46038e-10
1.46038e-10
1.46038e-10
1.46038e-10
1.46038e-10
1.46038e-10
1.46038e-10
1.46038e-10
1.46038e-10
1.46038e-10
1.46038e-10
1.46038e-10
1.46038e-10
1.46038e-10
1.46038e-10
1.46038e-10
1.46038e-10
1.46038e-10
1.46038e-10
1.46038e-10
1.46038e-10
1.46038e-10
1.46038e-10
1.46038e-10
1.46038e-10
1.46038e-10
1.46038e-10
1.46038e-10
1.46038e-10
1.46038e-10
1.46038e-10
1.46038e-10
1.46038e-10
1.46038e-10
1.46038e-10
1.46038e-10
1.46038e-10
1.46038e-10
1.46038e-10
1.46038e-10
1.46038e-10
1.46038e-10
1.46038e-10
1.46038e-10
1.46038e-10
1.46038e-10
1.46038e-10
1.46038e-10
1.46038e-10
1.46038e-10
1.46038e-10
1.46038e-10
1.46038e-10
1.46038e-10
1.46038e-10
1.46038e-10
1.46038e-10
1.46038e-10
1.46038e-10
1.46038e-10
1.46038e-10
1.46038e-10
1.46038e-10
1.46038e-10
1.46038e-10
1.46038e-10
1.46038e-10
1.46038e-10
1.46038e-10
1.46038e-10
1.46038e-10
1.46038e-10
1.46038e-10
1.46038e-10
1.46038e-10
1.46038e-10
1.46038e-10
1.46038e-10
1.46038e-10
1.46038e-10
1.46038e-10
1.46038e-10
1.46038e-10
1.46038e-10
1.46038e-10
1.46038e-10
1.46038e-10
1.46038e-10
1.46038e-10
1.46038e-10
1.46038e-10
1.46038e-10
1.46038e-10
1.46038e-10
1.46038e-10
1.46038e-10
1.46038e-10
1.46038e-10
1.46038e-10
1.46038e-10
1.46038e-10
1.46038e-10
1.46038e-10
1.46038e-10
1.46038e-10
1.46038e-10
1.46038e-10
1.46038e-10
1.46038e-10
1.46038e-10
1.46038e-10
1.46038e-10
1.46038e-10
1.46038e-10
1.46038e-10
1.46038e-10
1.46038e-10
1.46038e-10
1.46038e-10
1.46038e-10
1.46038e-10
1.46038e-10
1.46038e-10
1.46038e-10
1.46038e-10
1.46038e-10
1.46038e-10
1.46038e-10
1.46038e-10
1.46038e-10
1.46038e-10
1.46038e-10
1.46038e-10
1.46038e-10
1.46038e-10
1.46038e-10
1.46038e-10
1.46038e-10
1.46038e-10
1.46038e-10
1.46038e-10
1.46038e-10
1.46038e-10
1.46038e-10
1.46038e-10
1.46038e-10
1.46038e-10
1.46038e-10
1.46038e-10
1.46038e-10
1.46038e-10
1.46038e-10
1.46038e-10
1.46038e-10
1.46038e-10
1.46038e-10
1.46038e-10
1.46038e-10
1.46038e-10
1.46038e-10
1.46038e-10
1.46038e-10
1.46038e-10
1.46038e-10
1.46038e-10
1.46038e-10
1.46038e-10
1.46038e-10
1.46039e-10
1.46038e-10
1.46038e-10
1.46038e-10
1.46038e-10
1.46038e-10
1.46038e-10
1.46038e-10
1.46038e-10
1.46038e-10
1.46038e-10
1.46038e-10
1.46038e-10
1.46038e-10
1.46038e-10
1.46038e-10
1.46038e-10
1.46038e-10
1.46038e-10
1.46038e-10
1.46038e-10
1.46038e-10
1.46038e-10
1.46038e-10
1.46038e-10
1.46038e-10
1.46038e-10
1.46038e-10
1.46038e-10
1.46038e-10
1.46038e-10
1.46038e-10
1.46038e-10
1.46038e-10
1.46038e-10
1.46038e-10
1.46038e-10
1.46038e-10
1.46038e-10
1.46038e-10
1.46038e-10
1.46038e-10
1.46038e-10
1.46039e-10
1.4604e-10
1.46044e-10
1.46054e-10
1.46038e-10
1.46038e-10
1.46038e-10
1.46038e-10
1.46038e-10
1.46038e-10
1.46038e-10
1.46038e-10
1.46038e-10
1.46038e-10
1.46038e-10
1.46038e-10
1.46038e-10
1.46038e-10
1.46038e-10
1.46038e-10
1.46038e-10
1.46038e-10
1.46038e-10
1.46038e-10
1.46038e-10
1.46038e-10
1.46038e-10
1.46038e-10
1.46038e-10
1.46038e-10
1.46038e-10
1.46038e-10
1.46038e-10
1.46038e-10
1.46038e-10
1.46038e-10
1.46038e-10
1.46038e-10
1.46038e-10
1.46038e-10
1.46038e-10
1.46038e-10
1.46038e-10
1.46038e-10
1.46038e-10
1.46039e-10
1.4604e-10
1.46044e-10
1.46051e-10
1.46066e-10
1.46102e-10
1.46202e-10
1.46038e-10
1.46038e-10
1.46038e-10
1.46038e-10
1.46038e-10
1.46038e-10
1.46038e-10
1.46038e-10
1.46038e-10
1.46038e-10
1.46038e-10
1.46038e-10
1.46038e-10
1.46038e-10
1.46038e-10
1.46038e-10
1.46038e-10
1.46038e-10
1.46038e-10
1.46038e-10
1.46038e-10
1.46038e-10
1.46038e-10
1.46038e-10
1.46038e-10
1.46038e-10
1.46038e-10
1.46038e-10
1.46038e-10
1.46038e-10
1.46038e-10
1.46038e-10
1.46038e-10
1.46038e-10
1.46038e-10
1.46038e-10
1.46038e-10
1.46038e-10
1.46039e-10
1.46041e-10
1.46044e-10
1.46051e-10
1.46066e-10
1.46099e-10
1.46172e-10
1.46332e-10
1.467e-10
1.47696e-10
1.46038e-10
1.46038e-10
1.46038e-10
1.46038e-10
1.46038e-10
1.46038e-10
1.46038e-10
1.46038e-10
1.46038e-10
1.46038e-10
1.46038e-10
1.46038e-10
1.46038e-10
1.46038e-10
1.46038e-10
1.46038e-10
1.46038e-10
1.46038e-10
1.46038e-10
1.46038e-10
1.46038e-10
1.46038e-10
1.46038e-10
1.46038e-10
1.46038e-10
1.46038e-10
1.46038e-10
1.46038e-10
1.46038e-10
1.46038e-10
1.46038e-10
1.46038e-10
1.46038e-10
1.46038e-10
1.46038e-10
1.46038e-10
1.46038e-10
1.46039e-10
1.46041e-10
1.46044e-10
1.46051e-10
1.46066e-10
1.46099e-10
1.46169e-10
1.46323e-10
1.46658e-10
1.47391e-10
1.49003e-10
1.52667e-10
1.62333e-10
1.46038e-10
1.46038e-10
1.46038e-10
1.46038e-10
1.46038e-10
1.46038e-10
1.46038e-10
1.46038e-10
1.46038e-10
1.46038e-10
1.46038e-10
1.46038e-10
1.46038e-10
1.46038e-10
1.46038e-10
1.46038e-10
1.46038e-10
1.46038e-10
1.46038e-10
1.46038e-10
1.46038e-10
1.46038e-10
1.46038e-10
1.46038e-10
1.46038e-10
1.46038e-10
1.46038e-10
1.46038e-10
1.46038e-10
1.46038e-10
1.46038e-10
1.46038e-10
1.46038e-10
1.46038e-10
1.46039e-10
1.46041e-10
1.46044e-10
1.46051e-10
1.46066e-10
1.46099e-10
1.46169e-10
1.46319e-10
1.46642e-10
1.47342e-10
1.4886e-10
1.52161e-10
1.59352e-10
1.75062e-10
2.10045e-10
2.97791e-10
1.46038e-10
1.46038e-10
1.46038e-10
1.46038e-10
1.46038e-10
1.46038e-10
1.46038e-10
1.46038e-10
1.46038e-10
1.46038e-10
1.46038e-10
1.46038e-10
1.46038e-10
1.46038e-10
1.46038e-10
1.46038e-10
1.46038e-10
1.46038e-10
1.46038e-10
1.46038e-10
1.46038e-10
1.46038e-10
1.46038e-10
1.46038e-10
1.46038e-10
1.46038e-10
1.46038e-10
1.46038e-10
1.46038e-10
1.46038e-10
1.46038e-10
1.46039e-10
1.46041e-10
1.46045e-10
1.46052e-10
1.46067e-10
1.461e-10
1.4617e-10
1.46318e-10
1.46634e-10
1.47311e-10
1.48765e-10
1.51894e-10
1.58639e-10
1.73176e-10
2.0441e-10
2.71098e-10
4.12471e-10
7.14067e-10
1.41817e-09
1.46038e-10
1.46038e-10
1.46038e-10
1.46038e-10
1.46038e-10
1.46038e-10
1.46038e-10
1.46038e-10
1.46038e-10
1.46038e-10
1.46038e-10
1.46038e-10
1.46038e-10
1.46038e-10
1.46038e-10
1.46038e-10
1.46038e-10
1.46038e-10
1.46038e-10
1.46038e-10
1.46038e-10
1.46038e-10
1.46038e-10
1.46038e-10
1.46038e-10
1.46038e-10
1.46038e-10
1.46039e-10
1.46039e-10
1.46041e-10
1.46045e-10
1.46053e-10
1.46069e-10
1.46103e-10
1.46174e-10
1.46323e-10
1.46637e-10
1.47302e-10
1.48714e-10
1.51719e-10
1.5813e-10
1.71808e-10
2.00912e-10
2.62463e-10
3.91416e-10
6.58947e-10
1.21033e-09
2.34635e-09
4.71768e-09
1.00038e-08
1.46038e-10
1.46038e-10
1.46038e-10
1.46038e-10
1.46038e-10
1.46038e-10
1.46038e-10
1.46038e-10
1.46038e-10
1.46038e-10
1.46038e-10
1.46038e-10
1.46038e-10
1.46038e-10
1.46038e-10
1.46038e-10
1.46038e-10
1.46038e-10
1.46038e-10
1.46038e-10
1.46038e-10
1.46038e-10
1.46038e-10
1.46038e-10
1.46039e-10
1.4604e-10
1.46042e-10
1.46046e-10
1.46055e-10
1.46072e-10
1.46108e-10
1.46182e-10
1.46335e-10
1.46654e-10
1.4732e-10
1.48717e-10
1.51654e-10
1.57846e-10
1.70907e-10
1.98405e-10
2.55983e-10
3.75508e-10
6.2128e-10
1.12302e-09
2.14416e-09
4.22506e-09
8.48489e-09
1.72498e-08
3.53378e-08
7.29384e-08
1.46038e-10
1.46038e-10
1.46038e-10
1.46038e-10
1.46038e-10
1.46038e-10
1.46038e-10
1.46038e-10
1.46038e-10
1.46038e-10
1.46038e-10
1.46038e-10
1.46038e-10
1.46038e-10
1.46038e-10
1.46038e-10
1.46038e-10
1.46038e-10
1.46038e-10
1.46038e-10
1.46038e-10
1.46039e-10
1.4604e-10
1.46043e-10
1.46047e-10
1.46057e-10
1.46076e-10
1.46115e-10
1.46194e-10
1.46356e-10
1.46688e-10
1.47371e-10
1.48785e-10
1.51719e-10
1.57822e-10
1.70536e-10
1.9698e-10
2.51726e-10
3.64178e-10
5.93115e-10
1.05597e-09
1.98882e-09
3.87044e-09
7.68001e-09
1.5421e-08
3.11119e-08
6.2396e-08
1.22566e-07
2.32481e-07
4.22163e-07
1.46038e-10
1.46038e-10
1.46038e-10
1.46038e-10
1.46038e-10
1.46038e-10
1.46038e-10
1.46038e-10
1.46038e-10
1.46038e-10
1.46038e-10
1.46038e-10
1.46038e-10
1.46038e-10
1.46038e-10
1.46038e-10
1.46038e-10
1.46039e-10
1.46039e-10
1.46041e-10
1.46044e-10
1.46049e-10
1.4606e-10
1.46082e-10
1.46126e-10
1.46213e-10
1.46389e-10
1.46744e-10
1.47465e-10
1.48935e-10
1.5194e-10
1.58106e-10
1.70771e-10
1.96764e-10
2.49893e-10
3.57712e-10
5.74732e-10
1.00871e-09
1.87396e-09
3.60036e-09
7.05783e-09
1.40106e-08
2.79819e-08
5.56865e-08
1.08872e-07
2.0582e-07
3.71494e-07
6.36127e-07
1.03401e-06
1.60233e-06
1.46038e-10
1.46038e-10
1.46038e-10
1.46038e-10
1.46038e-10
1.46038e-10
1.46038e-10
1.46038e-10
1.46038e-10
1.46038e-10
1.46038e-10
1.46038e-10
1.46038e-10
1.46038e-10
1.46039e-10
1.4604e-10
1.46042e-10
1.46045e-10
1.46052e-10
1.46065e-10
1.46091e-10
1.46142e-10
1.46241e-10
1.46439e-10
1.46831e-10
1.47616e-10
1.49189e-10
1.52359e-10
1.58764e-10
1.71726e-10
1.97941e-10
2.50768e-10
3.56537e-10
5.66715e-10
9.81886e-10
1.79977e-09
3.41241e-09
6.60401e-09
1.29492e-08
2.5574e-08
5.04434e-08
9.81012e-08
1.85247e-07
3.35152e-07
5.76334e-07
9.40079e-07
1.458e-06
2.16073e-06
3.07937e-06
4.24646e-06
1.46038e-10
1.46038e-10
1.46038e-10
1.46038e-10
1.46038e-10
1.46038e-10
1.46038e-10
1.46038e-10
1.46038e-10
1.46038e-10
1.46039e-10
1.46039e-10
1.4604e-10
1.46043e-10
1.46047e-10
1.46056e-10
1.46073e-10
1.46104e-10
1.46165e-10
1.46283e-10
1.46512e-10
1.46961e-10
1.47843e-10
1.49585e-10
1.53037e-10
1.599e-10
1.73571e-10
2.00788e-10
2.54794e-10
3.61323e-10
5.7003e-10
9.76753e-10
1.76757e-09
3.3069e-09
6.3147e-09
1.22203e-08
2.38376e-08
4.65226e-08
8.97974e-08
1.68955e-07
3.05735e-07
5.27398e-07
8.64456e-07
1.34814e-06
2.00829e-06
2.87209e-06
3.96285e-06
5.30153e-06
6.90985e-06
8.81684e-06
1.46038e-10
1.46038e-10
1.46038e-10
1.46038e-10
1.46038e-10
1.46038e-10
1.46038e-10
1.46039e-10
1.4604e-10
1.46042e-10
1.46045e-10
1.46051e-10
1.46062e-10
1.46084e-10
1.46124e-10
1.46199e-10
1.46344e-10
1.46621e-10
1.47153e-10
1.48181e-10
1.50177e-10
1.54068e-10
1.61675e-10
1.76574e-10
2.05744e-10
2.62671e-10
3.73165e-10
5.86323e-10
9.95664e-10
1.78042e-09
3.28701e-09
6.191e-09
1.18168e-08
2.27448e-08
4.38567e-08
8.38383e-08
1.56756e-07
2.82905e-07
4.88225e-07
8.02346e-07
1.25614e-06
1.87961e-06
2.70048e-06
3.74316e-06
5.02759e-06
6.56984e-06
8.37964e-06
1.04578e-05
1.28023e-05
1.54454e-05
1.46038e-10
1.46038e-10
1.46038e-10
1.46039e-10
1.46039e-10
1.46041e-10
1.46043e-10
1.46048e-10
1.46057e-10
1.46072e-10
1.461e-10
1.46153e-10
1.46252e-10
1.46436e-10
1.46782e-10
1.47437e-10
1.48681e-10
1.51055e-10
1.55602e-10
1.64338e-10
1.81152e-10
2.13493e-10
2.75507e-10
3.93813e-10
6.18304e-10
1.0427e-09
1.84419e-09
3.36065e-09
6.24197e-09
1.17452e-08
2.22895e-08
4.24101e-08
8.01435e-08
1.48541e-07
2.66602e-07
4.58943e-07
7.5415e-07
1.18247e-06
1.77382e-06
2.55626e-06
3.55508e-06
4.79147e-06
6.28308e-06
8.04214e-06
1.00729e-05
1.23678e-05
1.49106e-05
1.76872e-05
2.06968e-05
2.40124e-05
1.46039e-10
1.46041e-10
1.46043e-10
1.46046e-10
1.46053e-10
1.46065e-10
1.46087e-10
1.46127e-10
1.462e-10
1.46332e-10
1.46576e-10
1.47027e-10
1.47864e-10
1.49428e-10
1.52359e-10
1.57876e-10
1.68287e-10
1.87963e-10
2.25113e-10
2.95038e-10
4.26033e-10
6.70315e-10
1.12457e-09
1.96906e-09
3.54275e-09
6.48843e-09
1.20318e-08
2.24991e-08
4.21989e-08
7.87031e-08
1.44272e-07
2.56805e-07
4.3968e-07
7.2036e-07
1.1283e-06
1.69294e-06
2.44232e-06
3.40214e-06
4.59484e-06
6.03878e-06
7.74871e-06
9.73288e-06
1.19896e-05
1.45059e-05
1.7264e-05
2.02489e-05
2.34507e-05
2.68691e-05
3.05118e-05
3.44779e-05
1.46052e-10
1.46062e-10
1.4608e-10
1.46113e-10
1.4617e-10
1.46273e-10
1.46459e-10
1.46795e-10
1.47405e-10
1.48519e-10
1.50561e-10
1.54323e-10
1.61276e-10
1.7416e-10
1.98052e-10
2.42303e-10
3.23996e-10
4.74167e-10
7.49197e-10
1.25197e-09
2.17161e-09
3.85865e-09
6.96828e-09
1.27312e-08
2.34475e-08
4.33149e-08
7.96187e-08
1.44056e-07
2.53653e-07
4.30687e-07
7.01495e-07
1.09459e-06
1.63873e-06
2.36162e-06
3.28899e-06
4.44383e-06
5.84539e-06
7.50963e-06
9.44765e-06
1.16629e-05
1.41475e-05
1.68848e-05
1.98578e-05
2.30534e-05
2.64652e-05
3.00895e-05
3.39241e-05
3.79713e-05
4.22371e-05
4.68262e-05
1.46155e-10
1.46242e-10
1.46395e-10
1.46665e-10
1.47146e-10
1.48004e-10
1.49543e-10
1.52316e-10
1.57334e-10
1.66439e-10
1.82995e-10
2.13106e-10
2.67772e-10
3.66694e-10
5.45037e-10
8.6569e-10
1.44175e-09
2.47815e-09
4.34926e-09
7.74453e-09
1.39388e-08
2.5275e-08
4.59549e-08
8.31511e-08
1.48224e-07
2.57558e-07
4.32508e-07
6.9834e-07
1.08254e-06
1.61303e-06
2.31689e-06
3.21949e-06
4.34398e-06
5.71038e-06
7.33497e-06
9.23088e-06
1.1405e-05
1.3855e-05
1.65678e-05
1.95253e-05
2.2712e-05
2.61168e-05
2.97368e-05
3.35673e-05
3.76098e-05
4.18584e-05
4.63109e-05
5.096e-05
5.58242e-05
6.10098e-05
1.47008e-10
1.47723e-10
1.48976e-10
1.51187e-10
1.551e-10
1.62052e-10
1.74435e-10
1.96518e-10
2.35881e-10
3.05893e-10
4.30023e-10
6.49457e-10
1.03673e-09
1.72042e-09
2.93015e-09
5.0794e-09
8.91813e-09
1.58104e-08
2.82172e-08
5.0464e-08
8.97834e-08
1.57417e-07
2.6934e-07
4.4617e-07
7.12193e-07
1.09383e-06
1.61804e-06
2.31106e-06
3.1977e-06
4.30082e-06
5.64069e-06
7.23406e-06
9.09483e-06
1.12323e-05
1.36484e-05
1.63348e-05
1.92746e-05
2.24504e-05
2.58489e-05
2.94625e-05
3.3288e-05
3.7322e-05
4.15676e-05
4.60163e-05
5.06657e-05
5.55133e-05
6.05596e-05
6.57776e-05
7.11666e-05
7.68467e-05
1.50602e-10
1.53897e-10
1.59629e-10
1.69626e-10
1.87096e-10
2.17635e-10
2.70956e-10
3.63828e-10
5.25142e-10
8.04782e-10
1.28932e-09
2.13001e-09
3.59319e-09
6.15145e-09
1.06488e-08
1.85936e-08
3.26521e-08
5.74024e-08
1.00312e-07
1.72714e-07
2.90386e-07
4.7339e-07
7.45131e-07
1.13096e-06
1.65678e-06
2.34784e-06
3.22814e-06
4.31995e-06
5.6434e-06
7.21562e-06
9.05047e-06
1.11589e-05
1.35458e-05
1.62073e-05
1.91298e-05
2.22949e-05
2.56872e-05
2.92952e-05
3.3115e-05
3.71426e-05
4.13788e-05
4.58215e-05
5.04655e-05
5.53073e-05
6.035e-05
6.55867e-05
7.09825e-05
7.65358e-05
8.22319e-05
8.80705e-05
9.41728e-05
1.82091e-10
2.07618e-10
2.51331e-10
3.26058e-10
4.535e-10
6.70414e-10
1.03931e-09
1.66712e-09
2.73809e-09
4.57207e-09
7.72838e-09
1.31898e-08
2.26794e-08
3.91737e-08
6.76478e-08
1.15982e-07
1.95797e-07
3.22863e-07
5.16833e-07
8.00317e-07
1.19761e-06
1.73347e-06
2.43207e-06
3.31639e-06
4.40793e-06
5.72634e-06
7.28875e-06
9.10901e-06
1.11986e-05
1.35643e-05
1.62059e-05
1.91136e-05
2.22701e-05
2.56581e-05
2.92643e-05
3.30803e-05
3.71035e-05
4.13298e-05
4.57625e-05
5.03971e-05
5.52319e-05
6.02619e-05
6.54928e-05
7.09075e-05
7.64804e-05
8.2208e-05
8.80715e-05
9.40602e-05
0.000100166
0.000106389
0.000112839
3.06295e-10
4.14447e-10
5.95108e-10
8.96615e-10
1.40001e-09
2.24203e-09
3.65505e-09
6.03688e-09
1.00728e-08
1.6946e-08
2.86872e-08
4.87128e-08
8.25571e-08
1.38694e-07
2.29204e-07
3.69999e-07
5.80428e-07
8.82362e-07
1.29905e-06
1.85403e-06
2.5703e-06
3.46973e-06
4.57284e-06
5.89855e-06
7.46366e-06
9.282e-06
1.13647e-05
1.37201e-05
1.63502e-05
1.9249e-05
2.24014e-05
2.57891e-05
2.93971e-05
3.3214e-05
3.72351e-05
4.14575e-05
4.58804e-05
5.05048e-05
5.53255e-05
6.03403e-05
6.55556e-05
7.09696e-05
7.65488e-05
8.22906e-05
8.81857e-05
9.42126e-05
0.000100364
0.000106628
0.000112988
0.000119425
0.000125939
0.000132634
1.25633e-09
1.96641e-09
3.13473e-09
5.06472e-09
8.26855e-09
1.36145e-08
2.25731e-08
3.7606e-08
6.27286e-08
1.04214e-07
1.71303e-07
2.76675e-07
4.36473e-07
6.69791e-07
9.97774e-07
1.44259e-06
2.02654e-06
2.77135e-06
3.6977e-06
4.82499e-06
6.1712e-06
7.75257e-06
9.58269e-06
1.16724e-05
1.40302e-05
1.66599e-05
1.95582e-05
2.27132e-05
2.61068e-05
2.97222e-05
3.35468e-05
3.75716e-05
4.17943e-05
4.6211e-05
5.08252e-05
5.56348e-05
6.06378e-05
6.58298e-05
7.12216e-05
7.68017e-05
8.25429e-05
8.84464e-05
9.4495e-05
0.000100676
0.000106983
0.000113402
0.000119911
0.000126493
0.000133128
0.000139795
0.000146492
0.000153316
7.27957e-09
1.17402e-08
1.90698e-08
3.11475e-08
5.10282e-08
8.35159e-08
1.35811e-07
2.18065e-07
3.4364e-07
5.28931e-07
7.92755e-07
1.15549e-06
1.6382e-06
2.26187e-06
3.04692e-06
4.01273e-06
5.17751e-06
6.55822e-06
8.17027e-06
1.00268e-05
1.21382e-05
1.45128e-05
1.71553e-05
2.00646e-05
2.32313e-05
2.66389e-05
3.02692e-05
3.41081e-05
3.81444e-05
4.23733e-05
4.67928e-05
5.14011e-05
5.62008e-05
6.11882e-05
6.63624e-05
7.17294e-05
7.72933e-05
8.3025e-05
8.89206e-05
9.49752e-05
0.000101168
0.000107494
0.000113945
0.000120504
0.000127155
0.000133877
0.000140648
0.000147447
0.000154249
0.000161034
0.000167797
0.000174631
4.44557e-08
7.15325e-08
1.14684e-07
1.8221e-07
2.85264e-07
4.3789e-07
6.56668e-07
9.60047e-07
1.36756e-06
1.89909e-06
2.57429e-06
3.41218e-06
4.43084e-06
5.6472e-06
7.0771e-06
8.73499e-06
1.06334e-05
1.27821e-05
1.5189e-05
1.78592e-05
2.07928e-05
2.39825e-05
2.74137e-05
3.10682e-05
3.49297e-05
3.89868e-05
4.32307e-05
4.76593e-05
5.22689e-05
5.70626e-05
6.20414e-05
6.7202e-05
7.25415e-05
7.80757e-05
8.37962e-05
8.9674e-05
9.57166e-05
0.000101909
0.000108238
0.0001147
0.000121283
0.000127971
0.000134749
0.000141597
0.000148494
0.000155417
0.000162343
0.000169246
0.000176101
0.000182886
0.000189595
0.000196316
2.5076e-07
3.82073e-07
5.70448e-07
8.32491e-07
1.18613e-06
1.64994e-06
2.24254e-06
2.98222e-06
3.88658e-06
4.97234e-06
6.25514e-06
7.74962e-06
9.46919e-06
1.14256e-05
1.3628e-05
1.60835e-05
1.87972e-05
2.17698e-05
2.49958e-05
2.84622e-05
3.21513e-05
3.60457e-05
4.01323e-05
4.44008e-05
4.88466e-05
5.34684e-05
5.82641e-05
6.32372e-05
6.83854e-05
7.37078e-05
7.92125e-05
8.4907e-05
9.0766e-05
9.67855e-05
0.000102964
0.000109283
0.000115738
0.000122324
0.000129028
0.000135834
0.000142728
0.000149688
0.000156696
0.00016373
0.000170766
0.00017778
0.000184745
0.000191635
0.000198424
0.00020509
0.000211625
0.000218111
1.07377e-06
1.49021e-06
2.02344e-06
2.69079e-06
3.50912e-06
4.49463e-06
5.66265e-06
7.02752e-06
8.60265e-06
1.04003e-05
1.24314e-05
1.47043e-05
1.72253e-05
1.99993e-05
2.30269e-05
2.63037e-05
2.98182e-05
3.35534e-05
3.74914e-05
4.16176e-05
4.59213e-05
5.03951e-05
5.50367e-05
5.98431e-05
6.48174e-05
6.99622e-05
7.5273e-05
8.07513e-05
8.64128e-05
9.22521e-05
9.82427e-05
0.000104395
0.000110696
0.000117133
0.000123704
0.000130402
0.000137214
0.000144126
0.000151122
0.000158183
0.000165289
0.000172419
0.000179551
0.000186659
0.00019372
0.000200708
0.000207594
0.000214353
0.000220958
0.000227385
0.000233629
0.000239765
3.27205e-06
4.18448e-06
5.26687e-06
6.53321e-06
7.99652e-06
9.66897e-06
1.15617e-05
1.36846e-05
1.60453e-05
1.86491e-05
2.15002e-05
2.45993e-05
2.79426e-05
3.15194e-05
3.53133e-05
3.93065e-05
4.34834e-05
4.7832e-05
5.23436e-05
5.70143e-05
6.1843e-05
6.68281e-05
7.19737e-05
7.7278e-05
8.2741e-05
8.83731e-05
9.41823e-05
0.000100149
0.000106266
0.000112539
0.000118949
0.000125493
0.00013217
0.000138969
0.000145876
0.00015288
0.000159965
0.000167112
0.000174302
0.000181515
0.000188728
0.000195918
0.00020306
0.000210129
0.000217098
0.000223942
0.000230632
0.000237143
0.000243447
0.000249523
0.000255365
0.000261039
9.20119e-06
1.09882e-05
1.29934e-05
1.52257e-05
1.76915e-05
2.03955e-05
2.33411e-05
2.65286e-05
2.99542e-05
3.36077e-05
3.74737e-05
4.15342e-05
4.5773e-05
5.01774e-05
5.47376e-05
5.94479e-05
6.43064e-05
6.93109e-05
7.44652e-05
7.97724e-05
8.52268e-05
9.08357e-05
9.6613e-05
0.000102555
0.000108637
0.000114873
0.000121253
0.000127761
0.000134403
0.000141173
0.000148058
0.000155049
0.000162132
0.000169292
0.000176511
0.000183771
0.000191051
0.000198331
0.000205587
0.000212794
0.00021993
0.000226966
0.000233879
0.000240641
0.000247225
0.000253605
0.000259755
0.000265647
0.000271265
0.000276601
0.000281718
1.71023e-05
1.96909e-05
2.25125e-05
2.55697e-05
2.88624e-05
3.23862e-05
3.61315e-05
4.0083e-05
4.42229e-05
4.85347e-05
5.30052e-05
5.76237e-05
6.23832e-05
6.72813e-05
7.23164e-05
7.74881e-05
8.28018e-05
8.82546e-05
9.38495e-05
9.96e-05
0.000105511
0.000111566
0.00011776
0.0001241
0.000130571
0.00013717
0.000143898
0.000150747