/*--------------------------------*- C++ -*----------------------------------*\
| =========                 |                                                 |
| \\      /  F ield         | OpenFOAM: The Open Source CFD Toolbox           |
|  \\    /   O peration     | Version:  v1706                                 |
|   \\  /    A nd           | Web:      www.OpenFOAM.com                      |
|    \\/     M anipulation  |                                                 |
\*---------------------------------------------------------------------------*/
FoamFile
{
    version     2.0;
    format      ascii;
    class       volScalarField;
    location    "8e-06";
    object      Mach;
}
// * * * * * * * * * * * * * * * * * * * * * * * * * * * * * * * * * * * * * //

dimensions      [0 0 0 0 0 0 0];


internalField   nonuniform List<scalar> 
30038
(
11.2859
11.2859
11.2859
11.2859
11.2859
11.2859
11.2859
11.2859
11.2859
11.2859
11.2859
11.2859
11.2859
11.2859
11.2859
11.2859
11.2859
11.2859
11.2859
11.2859
11.2859
11.2859
11.2859
11.2859
11.2859
11.2859
11.2859
11.2859
11.2859
11.2859
11.2859
11.2859
11.2859
11.2859
11.2859
11.2859
11.2859
11.2859
11.2859
11.2859
11.2859
11.2859
11.2859
11.2859
11.2859
11.2859
11.2859
11.2859
11.2859
11.2859
11.2859
11.2859
11.2859
11.2859
11.2859
11.2859
11.2859
11.2859
11.2859
11.2859
11.2859
11.2859
11.2859
11.2859
11.2859
11.2859
11.2859
11.2859
11.2859
11.2859
11.2859
11.2859
11.2859
11.2859
11.2859
11.2859
11.2859
11.2859
11.2859
11.2859
11.2859
11.2859
11.2859
11.2859
11.2859
11.2859
11.2859
11.2859
11.2859
11.2859
11.2859
11.2859
11.2859
11.2859
11.2859
11.2859
11.2859
11.2859
11.2859
11.2859
11.2859
11.2859
11.2859
11.2859
11.2859
11.2859
11.2859
11.2859
11.2859
11.2859
11.2859
11.2859
11.2859
11.2859
11.2859
11.2859
11.2859
11.2859
11.2859
11.2859
11.2859
11.2859
11.2859
11.2859
11.2859
11.2859
11.2859
11.2859
11.2859
11.2859
11.2859
11.2859
11.2859
11.2859
11.2859
11.2859
11.2859
11.2859
11.2859
11.2859
11.2859
11.2859
11.2859
11.2859
11.2859
11.2859
11.2859
11.2859
11.2859
11.2859
11.2859
11.2859
11.2859
11.2859
11.2859
11.2859
11.2859
11.2859
11.2859
11.2859
11.2859
11.2859
11.2859
11.2859
11.2859
11.2859
11.2859
11.2859
11.2859
11.2859
11.2859
11.2859
11.2859
11.2859
11.2859
11.2859
11.2859
11.2859
11.2859
11.2859
11.2859
11.2859
11.2859
11.2859
11.2859
11.2859
11.2859
11.2859
11.2859
11.2859
11.2859
11.2859
11.2859
11.2859
11.2859
11.2859
11.2859
11.2859
11.2859
11.2859
11.2859
11.2859
11.2859
11.2859
11.2859
11.2859
11.2859
11.2859
11.2859
11.2859
11.2859
11.2859
11.2859
11.2859
11.2859
11.2859
11.2859
11.2859
11.2859
11.2859
11.2859
11.2859
11.2859
11.2859
11.2859
11.2859
11.2859
11.2859
11.2859
11.2859
11.2859
11.2859
11.2859
11.2859
11.2859
11.2859
11.2859
11.2859
11.2859
11.2859
11.2859
11.2859
11.2859
11.2859
11.2859
11.2859
11.2859
11.2859
11.2859
11.2859
11.2859
11.2859
11.2859
11.2859
11.2859
11.2859
11.2859
11.2859
11.2859
11.2859
11.2859
11.2859
11.2859
11.2859
11.2859
11.2859
11.2859
11.2859
11.2859
11.2859
11.2859
11.2859
11.2859
11.2859
11.2859
11.2859
11.2859
11.2859
11.2859
11.2859
11.2859
11.2859
11.2859
11.2859
11.2859
11.2859
11.2859
11.2859
11.2859
11.2859
11.2859
11.2859
11.2859
11.2859
11.2859
11.2859
11.2859
11.2859
11.2859
11.2859
11.2859
11.2859
11.2859
11.2859
11.2859
11.2859
11.2859
11.2859
11.2859
11.2859
11.2859
11.2859
11.2859
11.2859
11.2859
11.2859
11.2859
11.2859
11.2859
11.2859
11.2859
11.2859
11.2859
11.2859
11.2859
11.2859
11.2859
11.2859
11.2859
11.2859
11.2859
11.2859
11.2859
11.2859
11.2859
11.2859
11.2859
11.2859
11.2859
11.2859
11.2859
11.2859
11.2859
11.2859
11.2859
11.2859
11.2859
11.2859
11.2859
11.2859
11.2859
11.2859
11.2859
11.2859
11.2859
11.2859
11.2859
11.2859
11.2859
11.2859
11.2859
11.2859
11.2859
11.2859
11.2859
11.2859
11.2859
11.2859
11.2859
11.2859
11.2859
11.2859
11.2859
11.2859
11.2859
11.2859
11.2859
11.2859
11.2859
11.2859
11.2859
11.2859
11.2859
11.2859
11.2859
11.2859
11.2859
11.2859
11.2859
11.2859
11.2859
11.2859
11.2859
11.2859
11.2859
11.2859
11.2859
11.2859
11.2859
11.2859
11.2859
11.2859
11.2859
11.2859
11.2859
11.2859
11.2859
11.2859
11.2859
11.2859
11.2859
11.2859
11.2859
11.2859
11.2859
11.2859
11.2859
11.2859
11.2859
11.2859
11.2859
11.2859
11.2859
11.2859
11.2859
11.2859
11.2859
11.2859
11.2859
11.2859
11.2859
11.2859
11.2859
11.2859
11.2859
11.2859
11.2859
11.2859
11.2859
11.2859
11.2859
11.2859
11.2859
11.2859
11.2859
11.2859
11.2859
11.2859
11.2859
11.2859
11.2859
11.2859
11.2859
11.2859
11.2859
11.2859
11.2859
11.2859
11.2859
11.2859
11.2859
11.2859
11.2859
11.2859
11.2859
11.2859
11.2859
11.2859
11.2859
11.2859
11.2859
11.2859
11.2859
11.2859
11.2859
11.2859
11.2859
11.2859
11.2859
11.2859
11.2859
11.2859
11.2859
11.2859
11.2859
11.2859
11.2859
11.2859
11.2859
11.2859
11.2859
11.2859
11.2859
11.2859
11.2859
11.2859
11.2859
11.2859
11.2859
11.2859
11.2859
11.2859
11.2859
11.2859
11.2859
11.2859
11.2859
11.2859
11.2859
11.2859
11.2859
11.2859
11.2859
11.2859
11.2859
11.2859
11.2859
11.2859
11.2859
11.2859
11.2859
11.2859
11.2859
11.2859
11.2859
11.2859
11.2859
11.2859
11.2859
11.2859
11.2859
11.2859
11.2859
11.2859
11.2859
11.2859
11.2859
11.2859
11.2859
11.2859
11.2859
11.2859
11.2859
11.2859
11.2859
11.2859
11.2859
11.2859
11.2859
11.2859
11.2859
11.2859
11.2859
11.2859
11.2859
11.2859
11.2859
11.2859
11.2859
11.2859
11.2859
11.2859
11.2859
11.2859
11.2859
11.2859
11.2859
11.2859
11.2859
11.2859
11.2859
11.2859
11.2859
11.2859
11.2859
11.2859
11.2859
11.2859
11.2859
11.2859
11.2859
11.2859
11.2859
11.2859
11.2859
11.2859
11.2859
11.2859
11.2859
11.2859
11.2859
11.2859
11.2859
11.2859
11.2859
11.2859
11.2859
11.2859
11.2859
11.2859
11.2859
11.2859
11.2859
11.2859
11.2859
11.2859
11.2859
11.2859
11.2859
11.2859
11.2859
11.2859
11.2859
11.2859
11.2859
11.2859
11.2859
11.2859
11.2859
11.2859
11.2859
11.2859
11.2859
11.2859
11.2859
11.2859
11.2859
11.2859
11.2859
11.2859
11.2859
11.2859
11.2859
11.2859
11.2859
11.2859
11.2859
11.2859
11.2859
11.2859
11.2859
11.2859
11.2859
11.2859
11.2859
11.2859
11.2859
11.2859
11.2859
11.2859
11.2859
11.2859
11.2859
11.2859
11.2859
11.2859
11.2859
11.2859
11.2859
11.2859
11.2859
11.2859
11.2859
11.2859
11.2859
11.2859
11.2859
11.2859
11.2859
11.2859
11.2859
11.2859
11.2859
11.2859
11.2859
11.2859
11.2859
11.2859
11.2859
11.2859
11.2859
11.2859
11.2859
11.2859
11.2859
11.2859
11.2859
11.2859
11.2859
11.2859
11.2859
11.2859
11.2859
11.2859
11.2859
11.2859
11.2859
11.2859
11.2859
11.2859
11.2859
11.2859
11.2859
11.2859
11.2859
11.2859
11.2859
11.2859
11.2859
11.2859
11.2859
11.2859
11.2859
11.2859
11.2859
11.2859
11.2859
11.2859
11.2859
11.2859
11.2859
11.2859
11.2859
11.2859
11.2859
11.2859
11.2859
11.2859
11.2859
11.2859
11.2859
11.2859
11.2859
11.2859
11.2859
11.2859
11.2859
11.2859
11.2859
11.2859
11.2859
11.2859
11.2859
11.2859
11.2859
11.2859
11.2859
11.2859
11.2859
11.2859
11.2859
11.2859
11.2859
11.2859
11.2859
11.2859
11.2859
11.2859
11.2859
11.2859
11.2859
11.2859
11.2859
11.2859
11.2859
11.2859
11.2859
11.2859
11.2859
11.2859
11.2859
11.2859
11.2859
11.2859
11.2859
11.2859
11.2859
11.2859
11.2859
11.2859
11.2859
11.2859
11.2859
11.2859
11.2859
11.2859
11.2859
11.2859
11.2859
11.2859
11.2859
11.2859
11.2859
11.2859
11.2859
11.2859
11.2859
11.2859
11.2859
11.2859
11.2859
11.2859
11.2859
11.2859
11.2859
11.2859
11.2859
11.2859
11.2859
11.2859
11.2859
11.2859
11.2859
11.2859
11.2859
11.2859
11.2859
11.2859
11.2859
11.2859
11.2859
11.2859
11.2859
11.2859
11.2859
11.2859
11.2859
11.2859
11.2859
11.2859
11.2859
11.2859
11.2859
11.2859
11.2859
11.2859
11.2859
11.2859
11.2859
11.2859
11.2859
11.2859
11.2859
11.2859
11.2859
11.2859
11.2859
11.2859
11.2859
11.2859
11.2859
11.2859
11.2859
11.2859
11.2859
11.2859
11.2859
11.2859
11.2859
11.2859
11.2859
11.2859
11.2859
11.2859
11.2859
11.2859
11.2859
11.2859
11.2859
11.2859
11.2859
11.2859
11.2859
11.2859
11.2859
11.2859
11.2859
11.2859
11.2859
11.2859
11.2859
11.2859
11.2859
11.2859
11.2859
11.2859
11.2859
11.2859
11.2859
11.2859
11.2859
11.2859
11.2859
11.2859
11.2859
11.2859
11.2859
11.2859
11.2859
11.2859
11.2859
11.2859
11.2859
11.2859
11.2859
11.2859
11.2859
11.2859
11.2859
11.2859
11.2859
11.2859
11.2859
11.2859
11.2859
11.2859
11.2859
11.2859
11.2859
11.2859
11.2859
11.2859
11.2859
11.2859
11.2859
11.2859
11.2859
11.2859
11.2859
11.2859
11.2859
11.2859
11.2859
11.2859
11.2859
11.2859
11.2859
11.2859
11.2859
11.2859
11.2859
11.2859
11.2859
11.2859
11.2859
11.2859
11.2859
11.2859
11.2859
11.2859
11.2859
11.2859
11.2859
11.2859
11.2859
11.2859
11.2859
11.2859
11.2859
11.2859
11.2859
11.2859
11.2859
11.2859
11.2859
11.2859
11.2859
11.2859
11.2859
11.2859
11.2859
11.2859
11.2859
11.2859
11.2859
11.2859
11.2859
11.2859
11.2859
11.2859
11.2859
11.2859
11.2859
11.2859
11.2859
11.2859
11.2859
11.2859
11.2859
11.2859
11.2859
11.2859
11.2859
11.2859
11.2859
11.2859
11.2859
11.2859
11.2859
11.2859
11.2859
11.2859
11.2859
11.2859
11.2859
11.2859
11.2859
11.2859
11.2859
11.2859
11.2859
11.2859
11.2859
11.2859
11.2859
11.2859
11.2859
11.2859
11.2859
11.2859
11.2859
11.2859
11.2859
11.2859
11.2859
11.2859
11.2859
11.2859
11.2859
11.2859
11.2859
11.2859
11.2859
11.2859
11.2859
11.2859
11.2859
11.2859
11.2859
11.2859
11.2859
11.2859
11.2859
11.2859
11.2858
11.2858
11.2859
11.2859
11.2859
11.2859
11.2859
11.2859
11.2859
11.2859
11.2859
11.2859
11.2859
11.2859
11.2859
11.2859
11.2859
11.2859
11.2859
11.2859
11.2859
11.2859
11.2859
11.2859
11.2859
11.2859
11.2859
11.2859
11.2859
11.2859
11.2859
11.2859
11.2859
11.2859
11.2859
11.2859
11.2859
11.2859
11.2859
11.2859
11.2859
11.2859
11.2859
11.2859
11.2859
11.2858
11.2858
11.2858
11.2858
11.2857
11.2859
11.2859
11.2859
11.2859
11.2859
11.2859
11.2859
11.2859
11.2859
11.2859
11.2859
11.2859
11.2859
11.2859
11.2859
11.2859
11.2859
11.2859
11.2859
11.2859
11.2859
11.2859
11.2859
11.2859
11.2859
11.2859
11.2859
11.2859
11.2859
11.2859
11.2859
11.2859
11.2859
11.2859
11.2859
11.2859
11.2859
11.2859
11.2859
11.2859
11.2858
11.2858
11.2858
11.2858
11.2857
11.2856
11.2853
11.2847
11.2859
11.2859
11.2859
11.2859
11.2859
11.2859
11.2859
11.2859
11.2859
11.2859
11.2859
11.2859
11.2859
11.2859
11.2859
11.2859
11.2859
11.2859
11.2859
11.2859
11.2859
11.2859
11.2859
11.2859
11.2859
11.2859
11.2859
11.2859
11.2859
11.2859
11.2859
11.2859
11.2859
11.2859
11.2859
11.2859
11.2859
11.2859
11.2859
11.2858
11.2858
11.2858
11.2858
11.2857
11.2856
11.2853
11.2849
11.284
11.2824
11.2791
11.2859
11.2859
11.2859
11.2859
11.2859
11.2859
11.2859
11.2859
11.2859
11.2859
11.2859
11.2859
11.2859
11.2859
11.2859
11.2859
11.2859
11.2859
11.2859
11.2859
11.2859
11.2859
11.2859
11.2859
11.2859
11.2859
11.2859
11.2859
11.2859
11.2859
11.2859
11.2859
11.2859
11.2859
11.2859
11.2859
11.2858
11.2858
11.2858
11.2858
11.2857
11.2856
11.2854
11.2849
11.2841
11.2827
11.28
11.2749
11.2654
11.2462
11.2859
11.2859
11.2859
11.2859
11.2859
11.2859
11.2859
11.2859
11.2859
11.2859
11.2859
11.2859
11.2859
11.2859
11.2859
11.2859
11.2859
11.2859
11.2859
11.2859
11.2859
11.2859
11.2859
11.2859
11.2859
11.2859
11.2859
11.2859
11.2859
11.2859
11.2859
11.2859
11.2859
11.2858
11.2858
11.2858
11.2858
11.2857
11.2856
11.2854
11.285
11.2842
11.2829
11.2804
11.2758
11.2673
11.2517
11.2228
11.169
11.0663
11.2859
11.2859
11.2859
11.2859
11.2859
11.2859
11.2859
11.2859
11.2859
11.2859
11.2859
11.2859
11.2859
11.2859
11.2859
11.2859
11.2859
11.2859
11.2859
11.2859
11.2859
11.2859
11.2859
11.2859
11.2859
11.2859
11.2859
11.2859
11.2859
11.2859
11.2858
11.2858
11.2858
11.2858
11.2857
11.2856
11.2854
11.285
11.2843
11.283
11.2807
11.2765
11.2687
11.2545
11.2286
11.1813
11.0962
10.9457
10.687
10.2599
11.2859
11.2859
11.2859
11.2859
11.2859
11.2859
11.2859
11.2859
11.2859
11.2859
11.2859
11.2859
11.2859
11.2859
11.2859
11.2859
11.2859
11.2859
11.2859
11.2859
11.2859
11.2859
11.2859
11.2859
11.2859
11.2859
11.2858
11.2858
11.2858
11.2858
11.2858
11.2857
11.2856
11.2854
11.285
11.2843
11.2831
11.281
11.277
11.2698
11.2568
11.2332
11.1904
11.114
10.9796
10.7507
10.3807
9.82859
9.08474
8.19733
11.2859
11.2859
11.2859
11.2859
11.2859
11.2859
11.2859
11.2859
11.2859
11.2859
11.2859
11.2859
11.2859
11.2859
11.2859
11.2859
11.2859
11.2859
11.2859
11.2859
11.2859
11.2859
11.2859
11.2858
11.2858
11.2858
11.2858
11.2858
11.2857
11.2856
11.2854
11.285
11.2844
11.2832
11.2811
11.2774
11.2706
11.2585
11.2367
11.1977
11.1282
11.0067
10.7999
10.4644
9.95846
9.26785
8.42996
7.52793
6.64786
5.85566
11.2859
11.2859
11.2859
11.2859
11.2859
11.2859
11.2859
11.2859
11.2859
11.2859
11.2859
11.2859
11.2859
11.2859
11.2859
11.2859
11.2859
11.2859
11.2859
11.2859
11.2858
11.2858
11.2858
11.2858
11.2858
11.2857
11.2856
11.2854
11.285
11.2843
11.2832
11.2812
11.2775
11.2711
11.2596
11.2392
11.203
11.1392
11.028
10.8395
10.533
10.0667
9.42025
8.61933
7.73728
6.86245
6.06081
5.36328
4.77043
4.27735
11.2859
11.2859
11.2859
11.2859
11.2859
11.2859
11.2859
11.2859
11.2859
11.2859
11.2859
11.2859
11.2859
11.2859
11.2859
11.2859
11.2859
11.2858
11.2858
11.2858
11.2858
11.2858
11.2857
11.2856
11.2853
11.2849
11.2843
11.2831
11.2811
11.2775
11.2713
11.2602
11.2408
11.2066
11.1469
11.0438
10.8698
10.5872
10.1552
9.54911
8.78469
7.92503
7.05505
6.24484
5.53147
4.92343
4.41276
3.98643
3.62767
3.32894
11.2859
11.2859
11.2859
11.2859
11.2859
11.2859
11.2859
11.2859
11.2859
11.2859
11.2859
11.2859
11.2859
11.2858
11.2858
11.2858
11.2858
11.2858
11.2857
11.2857
11.2855
11.2853
11.2849
11.2842
11.283
11.2809
11.2773
11.2711
11.2602
11.2413
11.2084
11.1515
11.0542
10.8912
10.6275
10.2238
9.65318
8.92383
8.0892
7.22905
6.41502
5.68937
5.06536
4.53842
4.09646
3.72603
3.41478
3.1532
2.93242
2.75011
11.2859
11.2859
11.2859
11.2859
11.2859
11.2859
11.2859
11.2859
11.2859
11.2859
11.2858
11.2858
11.2858
11.2858
11.2858
11.2857
11.2856
11.2855
11.2852
11.2848
11.284
11.2827
11.2806
11.2769
11.2705
11.2595
11.2407
11.2083
11.153
11.0593
10.9038
10.6538
10.2723
9.73131
9.03387
8.22522
7.37915
6.56682
5.83395
5.19804
4.65751
4.20191
3.81853
3.49544
3.22258
2.9924
2.79972
2.64193
2.51631
2.42049
11.2859
11.2859
11.2859
11.2859
11.2859
11.2859
11.2858
11.2858
11.2858
11.2858
11.2858
11.2858
11.2857
11.2856
11.2854
11.2851
11.2846
11.2838
11.2824
11.2801
11.2761
11.2694
11.2581
11.2388
11.2062
11.1511
11.0589
10.9075
10.6664
10.3005
9.78266
9.11257
8.3291
7.50008
6.69454
5.95991
5.3169
4.76666
4.30045
3.90644
3.57305
3.29039
3.05047
2.84776
2.67876
2.54174
2.435
2.35567
2.29886
2.2589
11.2859
11.2859
11.2859
11.2858
11.2858
11.2858
11.2858
11.2858
11.2857
11.2856
11.2855
11.2853
11.285
11.2844
11.2835
11.2819
11.2793
11.275
11.2678
11.2557
11.2355
11.2017
11.1454
11.0525
10.9019
10.6647
10.3081
9.80638
9.15811
8.39765
7.58736
6.79299
6.062
5.41707
4.86157
4.38841
3.98666
3.64532
3.35468
3.10679
2.89569
2.71742
2.5698
2.45168
2.3612
2.29496
2.24836
2.21643
2.19495
2.18001
11.2858
11.2858
11.2858
11.2858
11.2858
11.2857
11.2856
11.2854
11.2852
11.2848
11.2841
11.283
11.2812
11.2782
11.2734
11.2654
11.2522
11.2304
11.1945
11.1354
11.0394
10.8859
10.6476
10.2939
9.80129
9.16882
8.42827
7.6373
6.85775
6.13557
5.49404
4.9381
4.46204
4.05594
3.70938
3.41302
3.15909
2.94144
2.75582
2.5996
2.47156
2.37066
2.29461
2.23974
2.20155
2.17565
2.15841
2.14672
2.13921
2.13419
11.2858
11.2857
11.2856
11.2855
11.2853
11.285
11.2845
11.2836
11.2823
11.2802
11.2767
11.2711
11.262
11.2471
11.2229
11.1836
11.12
11.0182
10.858
10.6134
10.2561
9.76562
9.14289
8.41876
7.64711
6.88539
6.17676
5.54393
4.99253
4.51793
4.11115
3.76242
3.46287
3.20502
2.98282
2.7918
2.62901
2.49294
2.38287
2.29752
2.23424
2.18924
2.15817
2.13718
2.12329
2.11408
2.10861
2.10473
2.10292
2.10115
11.2854
11.2851
11.2847
11.284
11.283
11.2813
11.2787
11.2745
11.2678
11.2571
11.2399
11.2123
11.1681
11.0977
10.9869
10.8158
10.5593
10.1919
9.69679
9.07814
8.36721
7.61472
6.87345
6.18282
5.56377
5.02185
4.55317
4.14954
3.80191
3.50191
3.24244
3.01772
2.82323
2.65588
2.51381
2.3963
2.30271
2.23133
2.17922
2.14258
2.11757
2.10081
2.08973
2.08244
2.07836
2.07544
2.07453
2.07282
2.07231
2.07241
11.2843
11.2834
11.282
11.2799
11.2766
11.2714
11.2632
11.2502
11.2297
11.1972
11.1461
11.0662
10.9426
10.7555
10.4813
10.0972
9.59135
8.97208
8.2719
7.53883
6.82059
6.15208
5.55162
5.02397
4.56557
4.16893
3.82569
3.52807
3.26941
3.04426
2.84827
2.67826
2.5322
2.40916
2.30876
2.23014
2.17119
2.12879
2.09928
2.07927
2.06604
2.05733
2.05189
2.04881
2.04683
2.04615
2.04503
2.04526
2.04578
2.0464
2.04748
11.2778
11.2735
11.2669
11.2565
11.2403
11.2151
11.176
11.1153
11.0222
10.8811
10.6724
10.3739
9.96694
9.44511
8.82194
8.13152
7.41898
6.72661
6.08417
5.50674
4.9978
4.5538
4.16783
3.8322
3.53976
3.28434
3.06088
2.8653
2.69447
2.5463
2.41965
2.31418
2.22952
2.16436
2.1163
2.08221
2.05875
2.043
2.0326
2.02592
2.02227
2.01968
2.01889
2.0181
2.01787
2.01848
2.01935
2.02044
2.02186
2.02323
2.02454
11.2602
11.2467
11.226
11.1943
11.1458
11.072
10.9609
10.7966
10.5595
10.2301
9.79472
9.25342
8.6252
7.94542
7.25573
6.59249
5.97994
5.42958
4.94335
4.51747
4.14555
3.82053
3.53591
3.28606
3.06634
2.87302
2.70314
2.55461
2.42617
2.31739
2.22815
2.15779
2.10459
2.066
2.03893
2.02052
2.00835
2.00041
1.99551
1.99281
1.99127
1.99116
1.99049
1.99112
1.99202
1.9931
1.99461
1.9963
1.99796
1.99961
2.00118
2.00263
11.1641
11.1025
11.0107
10.8757
10.6809
10.4082
10.0416
9.57371
9.01189
8.38018
7.71412
7.05092
6.42052
5.8415
5.32178
4.86168
4.45714
4.1022
3.79045
3.51604
3.27391
3.05988
2.87055
2.70324
2.55594
2.42737
2.31699
2.22474
2.15039
2.09284
2.05012
2.0196
1.99848
1.9843
1.97503
1.96913
1.96595
1.96398
1.96347
1.96338
1.96357
1.96464
1.96586
1.96724
1.9691
1.97095
1.97283
1.97472
1.97656
1.97833
1.98004
1.98161
10.757
10.5237
10.2079
9.79911
9.29738
8.71742
8.08692
7.43988
6.80793
6.21432
5.67216
5.18604
4.75481
4.3742
4.03865
3.74241
3.48025
3.24772
3.04109
2.85735
2.6941
2.54948
2.42226
2.31182
2.21809
2.14108
2.08021
2.03399
2.00028
1.97654
1.96037
1.9497
1.94286
1.93878
1.9368
1.93563
1.93608
1.93595
1.93701
1.93837
1.9399
1.94173
1.94383
1.9459
1.94801
1.95008
1.95211
1.95411
1.95606
1.95796
1.95978
1.96149
9.49378
8.96106
8.36943
7.74799
7.12705
6.53175
5.97875
5.47624
5.02597
4.62561
4.27081
3.95645
3.67744
3.42919
3.2078
3.01005
2.83328
2.6754
2.53474
2.41016
2.30103
2.20724
2.12892
2.0658
2.0169
1.9805
1.95442
1.93635
1.92427
1.91649
1.91168
1.90917
1.90789
1.90789
1.90856
1.90913
1.91073
1.91235
1.91415
1.91638
1.9187
1.92102
1.92336
1.92565
1.9279
1.9301
1.93226
1.93438
1.93645
1.93846
1.94041
1.94223
7.36904
6.78219
6.22887
5.71971
5.25883
4.84579
4.4775
4.14968
3.85769
3.59712
3.36397
3.15493
2.96722
2.79856
2.64715
2.51155
2.39072
2.28407
2.19148
2.11309
2.04887
1.9982
1.95975
1.93172
1.91197
1.89857
1.88982
1.88441
1.88136
1.88016
1.87965
1.88067
1.88114
1.88269
1.88458
1.88655
1.88873
1.89125
1.89375
1.89631
1.89886
1.90137
1.90384
1.90627
1.90865
1.91097
1.91326
1.91549
1.91768
1.91981
1.92186
1.92379
5.44373
5.02546
4.65012
4.31426
4.01384
3.74481
3.50334
3.28608
3.09021
2.9134
2.75374
2.60969
2.48003
2.36388
2.26071
2.17037
2.09302
2.02878
1.97727
1.93752
1.90802
1.88693
1.8724
1.86283
1.85683
1.85335
1.85175
1.85133
1.85187
1.85321
1.85437
1.85656
1.85863
1.86088
1.86348
1.86624
1.86899
1.87178
1.87453
1.87725
1.87993
1.88257
1.88517
1.88772
1.89022
1.89268
1.89508
1.89743
1.89972
1.90195
1.9041
1.90612
4.13972
3.8665
3.62041
3.39825
3.19721
3.01499
2.84965
2.6996
2.56357
2.44057
2.32984
2.23093
2.14373
2.06839
2.00509
1.95365
1.91336
1.88298
1.86095
1.84556
1.83527
1.82874
1.82495
1.82312
1.82278
1.8231
1.82465
1.82591
1.82794
1.83041
1.83285
1.8354
1.83838
1.84133
1.84433
1.84735
1.85032
1.85326
1.85615
1.859
1.86181
1.86458
1.8673
1.86998
1.8726
1.87517
1.87768
1.88014
1.88253
1.88484
1.88707
1.88917
3.09922
2.93079
2.77718
2.63713
2.50958
2.39373
2.28898
2.19498
2.11162
2.03909
1.97757
1.92702
1.88692
1.85628
1.83375
1.81782
1.80704
1.80017
1.79611
1.79411
1.79359
1.79405
1.79531
1.79731
1.79909
1.80186
1.80445
1.80718
1.81018
1.81339
1.81657
1.81982
1.82302
1.8262
1.82935
1.83247
1.83554
1.83856
1.84155
1.84448
1.84737
1.85022
1.85301
1.85574
1.85841
1.86102
1.86356
1.86604
1.86842
1.87072
1.87288
2.56742
2.4486
2.34024
2.24188
2.15325
2.07429
2.00519
1.94616
1.89722
1.858
1.82768
1.80513
1.78901
1.77798
1.77089
1.76668
1.76462
1.7641
1.7647
1.76589
1.76798
1.77014
1.77267
1.77571
1.77864
1.78164
1.78506
1.78847
1.7919
1.79537
1.7988
1.8022
1.80555
1.80887
1.81215
1.81539
1.81859
1.82174
1.82485
1.82791
1.83091
1.83387
1.83676
1.83959
1.84236
1.84505
1.84766
1.8502
1.85265
1.855
1.8572
2.18921
2.10627
2.03212
1.96694
1.91097
1.86425
1.8265
1.79705
1.77493
1.75899
1.74799
1.74088
1.73669
1.73461
1.73413
1.73473
1.73612
1.73812
1.74086
1.74325
1.74657
1.74975
1.75295
1.75639
1.76004
1.76365
1.76734
1.771
1.77463
1.77824
1.78182
1.78535
1.78883
1.79228
1.79569
1.79906
1.80238
1.80566
1.80888
1.81204
1.81515
1.8182
1.82119
1.8241
1.82694
1.82971
1.83239
1.83498
1.83747
1.83986
1.84209
1.87225
1.82823
1.79245
1.76436
1.7431
1.72768
1.71698
1.71005
1.706
1.70403
1.70368
1.70445
1.70599
1.70807
1.71085
1.71374
1.71687
1.72049
1.72389
1.72737
1.73123
1.73508
1.73895
1.74285
1.74672
1.75056
1.75436
1.75813
1.76187
1.76557
1.76923
1.77285
1.77643
1.77996
1.78344
1.78688
1.79026
1.79358
1.79685
1.80005
1.80318
1.80624
1.80923
1.81213
1.81496
1.81769
1.82032
1.82285
1.82526
1.82751
1.72967
1.70964
1.69506
1.68494
1.67836
1.67459
1.67286
1.67269
1.67366
1.67534
1.67764
1.68041
1.68388
1.68691
1.6908
1.6945
1.69817
1.7021
1.70617
1.7102
1.71432
1.71842
1.72249
1.72653
1.73054
1.73452
1.73845
1.74235
1.74622
1.75004
1.75383
1.75757
1.76126
1.7649
1.76849
1.77203
1.77551
1.77892
1.78227
1.78555
1.78875
1.79188
1.79493
1.79788
1.80075
1.80352
1.80618
1.80873
1.81115
1.8134
1.65185
1.64583
1.64247
1.64111
1.64118
1.6424
1.64433
1.64684
1.64975
1.6533
1.65681
1.6606
1.66475
1.66862
1.67259
1.6769
1.68117
1.68546
1.68979
1.69407
1.69833
1.70256
1.70677
1.71094
1.71508
1.71918
1.72324
1.72726
1.73125
1.73519
1.73909
1.74294
1.74674
1.75048
1.75417
1.75779
1.76135
1.76485
1.76827
1.77161
1.77488
1.77806
1.78115
1.78415
1.78705
1.78984
1.79252
1.79507
1.7975
1.79974
1.60875
1.60915
1.61067
1.61293
1.61563
1.61876
1.62242
1.62643
1.63017
1.63457
1.63875
1.64289
1.64733
1.65181
1.65626
1.6608
1.6653
1.66978
1.67424
1.67866
1.68305
1.68741
1.69174
1.69603
1.70029
1.70451
1.70869
1.71283
1.71693
1.72098
1.72498
1.72892
1.73282
1.73665
1.74042
1.74412
1.74775
1.75131
1.7548
1.7582
1.76151
1.76473
1.76786
1.77089
1.77381
1.77661
1.7793
1.78185
1.78427
1.78648
1.58109
1.58402
1.58741
1.59121
1.59547
1.59957
1.60404
1.6086
1.61291
1.61741
1.62213
1.62679
1.6315
1.63622
1.6409
1.64556
1.6502
1.65481
1.65938
1.66393
1.66844
1.67292
1.67736
1.68177
1.68615
1.69048
1.69477
1.69901
1.70321
1.70736
1.71145
1.71548
1.71945
1.72336
1.7272
1.73097
1.73467
1.73828
1.74181
1.74526
1.74861
1.75186
1.75502
1.75806
1.76099
1.7638
1.76648
1.76902
1.77142
1.77361
1.55974
1.56419
1.5687
1.57318
1.57802
1.58264
1.58725
1.59217
1.59704
1.60191
1.60682
1.61171
1.61657
1.62142
1.62623
1.63101
1.63576
1.64049
1.64518
1.64984
1.65447
1.65906
1.66361
1.66813
1.67261
1.67704
1.68143
1.68577
1.69005
1.69428
1.69846
1.70257
1.70661
1.71058
1.71449
1.71831
1.72206
1.72571
1.72929
1.73276
1.73614
1.73942
1.74258
1.74563
1.74857
1.75137
1.75404
1.75656
1.75892
1.76105
1.54217
1.54717
1.5521
1.55688
1.56192
1.56701
1.57204
1.57715
1.58224
1.58729
1.59233
1.59734
1.60232
1.60728
1.6122
1.61709
1.62196
1.62679
1.6316
1.63636
1.6411
1.64579
1.65045
1.65507
1.65964
1.66416
1.66864
1.67306
1.67742
1.68172
1.68596
1.69014
1.69424
1.69827
1.70222
1.70609
1.70988
1.71357
1.71717
1.72067
1.72407
1.72735
1.73053
1.73358
1.7365
1.73929
1.74193
1.74441
1.74671
1.74877
1.5314
1.53672
1.54195
1.54722
1.55251
1.55774
1.56297
1.56817
1.57334
1.57849
1.5836
1.58869
1.59375
1.59878
1.60378
1.60875
1.61369
1.6186
1.62346
1.6283
1.63309
1.63783
1.64254
1.64719
1.65179
1.65634
1.66084
1.66527
1.66963
1.67393
1.67816
1.68231
1.68639
1.69038
1.69428
1.6981
1.70182
1.70544
1.70895
1.71236
1.71565
1.71882
1.72187
1.72477
1.72752
1.73011
1.73253
1.73478
1.73679
1.51705
1.52252
1.52795
1.53335
1.53874
1.5441
1.54942
1.55472
1.56
1.56525
1.57046
1.57565
1.58082
1.58595
1.59105
1.59611
1.60115
1.60614
1.6111
1.61602
1.62089
1.62572
1.6305
1.63523
1.6399
1.64451
1.64907
1.65356
1.65798
1.66232
1.6666
1.67079
1.6749
1.67892
1.68285
1.68669
1.69042
1.69405
1.69758
1.70099
1.70428
1.70743
1.71044
1.71331
1.71601
1.71856
1.72093
1.72312
1.72506
1.5035
1.50907
1.5146
1.52011
1.52559
1.53104
1.53646
1.54186
1.54723
1.55258
1.55789
1.56318
1.56843
1.57365
1.57885
1.584
1.58912
1.5942
1.59924
1.60423
1.60918
1.61408
1.61892
1.62371
1.62844
1.63311
1.63772
1.64225
1.64671
1.6511
1.65541
1.65963
1.66377
1.66781
1.67176
1.67561
1.67936
1.683
1.68652
1.68991
1.69318
1.6963
1.69928
1.70211
1.70477
1.70727
1.70959
1.71171
1.71356
1.49621
1.50184
1.50743
1.513
1.51855
1.52406
1.52955
1.53501
1.54045
1.54585
1.55122
1.55656
1.56187
1.56714
1.57238
1.57757
1.58273
1.58783
1.59289
1.5979
1.60286
1.60776
1.61261
1.61739
1.6221
1.62675
1.63132
1.63582
1.64024
1.64457
1.64881
1.65297
1.65703
1.66099
1.66485
1.6686
1.67222
1.67573
1.6791
1.68233
1.68543
1.68837
1.69116
1.69378
1.69622
1.69846
1.70051
1.70226
1.48391
1.48962
1.4953
1.50096
1.50659
1.51219
1.51776
1.52331
1.52882
1.53431
1.53976
1.54518
1.55056
1.5559
1.56121
1.56647
1.57169
1.57685
1.58197
1.58704
1.59204
1.59699
1.60188
1.6067
1.61145
1.61613
1.62073
1.62526
1.62969
1.63405
1.63831
1.64247
1.64655
1.65051
1.65436
1.65809
1.6617
1.66517
1.66852
1.67173
1.67479
1.6777
1.68044
1.683
1.68538
1.68754
1.68949
1.69114
1.47792
1.48368
1.48942
1.49513
1.50081
1.50646
1.51208
1.51767
1.52323
1.52875
1.53424
1.53968
1.54509
1.55046
1.55577
1.56104
1.56626
1.57143
1.57654
1.58159
1.58658
1.5915
1.59635
1.60113
1.60583
1.61045
1.615
1.61945
1.62382
1.62809
1.63226
1.63632
1.64027
1.6441
1.64781
1.6514
1.65486
1.65818
1.66136
1.66438
1.66724
1.66992
1.67242
1.67471
1.67679
1.67864
1.68023
1.46671
1.47254
1.47835
1.48414
1.48989
1.49561
1.5013
1.50696
1.51258
1.51816
1.52371
1.52921
1.53467
1.54009
1.54545
1.55077
1.55603
1.56124
1.56638
1.57146
1.57648
1.58143
1.5863
1.5911
1.59583
1.60046
1.60502
1.60949
1.61385
1.61812
1.62228
1.62632
1.63025
1.63407
1.63777
1.64134
1.64477
1.64805
1.65119
1.65416
1.65697
1.65958
1.66201
1.66422
1.66623
1.66803
1.66954
1.46186
1.46773
1.47358
1.4794
1.48518
1.49093
1.49664
1.50232
1.50796
1.51356
1.51911
1.52461
1.53007
1.53548
1.54083
1.54613
1.55136
1.55653
1.56164
1.56668
1.57165
1.57654
1.58135
1.58609
1.59074
1.59529
1.59975
1.60411
1.60836
1.6125
1.61654
1.62046
1.62426
1.62793
1.63147
1.63486
1.63811
1.6412
1.64412
1.64685
1.6494
1.65177
1.65394
1.6559
1.65763
1.65902
1.45159
1.45753
1.46343
1.4693
1.47514
1.48094
1.48671
1.49243
1.49811
1.50375
1.50934
1.51489
1.52038
1.52582
1.5312
1.53652
1.54178
1.54697
1.5521
1.55715
1.56213
1.56704
1.57186
1.57659
1.58123
1.58578
1.59022
1.59456
1.59881
1.60294
1.60696
1.61086
1.61463
1.61827
1.62178
1.62513
1.62833
1.63136
1.63422
1.63691
1.63943
1.64175
1.64387
1.64573
1.64734
1.64861
1.44171
1.4477
1.45365
1.45957
1.46546
1.4713
1.47711
1.48287
1.48859
1.49427
1.49989
1.50546
1.51098
1.51644
1.52184
1.52718
1.53246
1.53767
1.5428
1.54787
1.55285
1.55775
1.56257
1.56729
1.57192
1.57645
1.58089
1.58522
1.58945
1.59356
1.59756
1.60143
1.60517
1.60878
1.61224
1.61554
1.61869
1.62169
1.62453
1.62719
1.62966
1.6319
1.63392
1.63567
1.63716
1.63831
1.43219
1.43823
1.44422
1.45018
1.45611
1.46199
1.46783
1.47362
1.47937
1.48507
1.49072
1.49631
1.50185
1.50733
1.51274
1.5181
1.52338
1.5286
1.53374
1.5388
1.54377
1.54866
1.55346
1.55818
1.5628
1.56732
1.57174
1.57606
1.58026
1.58435
1.58832
1.59215
1.59586
1.59942
1.60284
1.60613
1.60926
1.61223
1.61503
1.61762
1.62001
1.62216
1.62407
1.62571
1.62709
1.6281
1.423
1.42907
1.43511
1.4411
1.44705
1.45296
1.45883
1.46465
1.47042
1.47614
1.4818
1.48741
1.49296
1.49845
1.50388
1.50923
1.51452
1.51973
1.52486
1.5299
1.53487
1.53975
1.54455
1.54925
1.55385
1.55836
1.56276
1.56705
1.57122
1.57528
1.57921
1.58301
1.58668
1.59023
1.59364
1.5969
1.6
1.60292
1.60564
1.60815
1.61045
1.61251
1.61432
1.61586
1.61711
1.618
1.41412
1.42022
1.42628
1.4323
1.43827
1.44421
1.45009
1.45593
1.46171
1.46745
1.47312
1.47874
1.4843
1.48979
1.49521
1.50056
1.50583
1.51103
1.51615
1.52119
1.52615
1.53102
1.53579
1.54047
1.54506
1.54954
1.55391
1.55817
1.56231
1.56633
1.57025
1.57404
1.5777
1.58123
1.58461
1.58782
1.59085
1.5937
1.59634
1.59878
1.60099
1.60296
1.60466
1.60609
1.60723
1.60798
1.40551
1.41163
1.41771
1.42375
1.42975
1.43569
1.44159
1.44744
1.45324
1.45898
1.46465
1.47027
1.47582
1.4813
1.48671
1.49205
1.49732
1.5025
1.50761
1.51264
1.51758
1.52243
1.52718
1.53184
1.53639
1.54085
1.54518
1.54942
1.55355
1.55757
1.56147
1.56524
1.56888
1.57235
1.57567
1.57882
1.58179
1.58457
1.58714
1.5895
1.59162
1.5935
1.5951
1.59642
1.59742
1.59804
1.40329
1.40939
1.41544
1.42145
1.42741
1.43331
1.43916
1.44496
1.45069
1.45636
1.46196
1.4675
1.47298
1.47838
1.48371
1.48896
1.49413
1.49922
1.50423
1.50914
1.51396
1.51869
1.52332
1.52784
1.53228
1.53661
1.54084
1.54496
1.54896
1.55282
1.55655
1.56013
1.56356
1.56682
1.56991
1.57282
1.57553
1.57803
1.58031
1.58234
1.58412
1.58562
1.58682
1.58769
1.58817
1.39518
1.40129
1.40735
1.41335
1.41931
1.42522
1.43106
1.43684
1.44256
1.44823
1.45382
1.45935
1.46481
1.47019
1.4755
1.48074
1.48589
1.49095
1.49593
1.50082
1.50561
1.51031
1.51493
1.51945
1.52388
1.5282
1.53241
1.53649
1.54044
1.54426
1.54794
1.55147
1.55484
1.55805
1.56109
1.56393
1.56657
1.569
1.5712
1.57314
1.57482
1.57621
1.57728
1.57803
1.57836
1.38727
1.39337
1.39943
1.40543
1.41138
1.41727
1.42311
1.42888
1.4346
1.44025
1.44582
1.45134
1.45678
1.46214
1.46742
1.47263
1.47775
1.48279
1.48774
1.49262
1.4974
1.5021
1.50671
1.51121
1.51561
1.51989
1.52405
1.52809
1.532
1.53577
1.5394
1.54289
1.54621
1.54937
1.55234
1.55512
1.55769
1.56004
1.56216
1.56401
1.56558
1.56686
1.56781
1.56842
1.5686
1.38563
1.39167
1.39767
1.40361
1.40949
1.41531
1.42107
1.42677
1.4324
1.43795
1.44344
1.44886
1.45419
1.45945
1.46462
1.46974
1.47476
1.4797