/*--------------------------------*- C++ -*----------------------------------*\
| =========                 |                                                 |
| \\      /  F ield         | OpenFOAM: The Open Source CFD Toolbox           |
|  \\    /   O peration     | Version:  v1706                                 |
|   \\  /    A nd           | Web:      www.OpenFOAM.com                      |
|    \\/     M anipulation  |                                                 |
\*---------------------------------------------------------------------------*/
FoamFile
{
    version     2.0;
    format      ascii;
    class       volScalarField;
    location    "8e-06";
    object      mu;
}
// * * * * * * * * * * * * * * * * * * * * * * * * * * * * * * * * * * * * * //

dimensions      [1 -1 -1 0 0 0 0];


internalField   nonuniform List<scalar> 
30038
(
1.0351e-05
1.0351e-05
1.0351e-05
1.0351e-05
1.0351e-05
1.0351e-05
1.0351e-05
1.0351e-05
1.0351e-05
1.0351e-05
1.0351e-05
1.0351e-05
1.0351e-05
1.0351e-05
1.0351e-05
1.0351e-05
1.0351e-05
1.0351e-05
1.0351e-05
1.0351e-05
1.0351e-05
1.0351e-05
1.0351e-05
1.0351e-05
1.0351e-05
1.0351e-05
1.0351e-05
1.0351e-05
1.0351e-05
1.0351e-05
1.0351e-05
1.0351e-05
1.0351e-05
1.0351e-05
1.0351e-05
1.0351e-05
1.0351e-05
1.0351e-05
1.0351e-05
1.0351e-05
1.0351e-05
1.0351e-05
1.0351e-05
1.0351e-05
1.0351e-05
1.0351e-05
1.0351e-05
1.0351e-05
1.0351e-05
1.0351e-05
1.0351e-05
1.0351e-05
1.0351e-05
1.0351e-05
1.0351e-05
1.0351e-05
1.0351e-05
1.0351e-05
1.0351e-05
1.0351e-05
1.0351e-05
1.0351e-05
1.0351e-05
1.0351e-05
1.0351e-05
1.0351e-05
1.0351e-05
1.0351e-05
1.0351e-05
1.0351e-05
1.0351e-05
1.0351e-05
1.0351e-05
1.0351e-05
1.0351e-05
1.0351e-05
1.0351e-05
1.0351e-05
1.0351e-05
1.0351e-05
1.0351e-05
1.0351e-05
1.0351e-05
1.0351e-05
1.0351e-05
1.0351e-05
1.0351e-05
1.0351e-05
1.0351e-05
1.0351e-05
1.0351e-05
1.0351e-05
1.0351e-05
1.0351e-05
1.0351e-05
1.0351e-05
1.0351e-05
1.0351e-05
1.0351e-05
1.0351e-05
1.0351e-05
1.0351e-05
1.0351e-05
1.0351e-05
1.0351e-05
1.0351e-05
1.0351e-05
1.0351e-05
1.0351e-05
1.0351e-05
1.0351e-05
1.0351e-05
1.0351e-05
1.0351e-05
1.0351e-05
1.0351e-05
1.0351e-05
1.0351e-05
1.0351e-05
1.0351e-05
1.0351e-05
1.0351e-05
1.0351e-05
1.0351e-05
1.0351e-05
1.0351e-05
1.0351e-05
1.0351e-05
1.0351e-05
1.0351e-05
1.0351e-05
1.0351e-05
1.0351e-05
1.0351e-05
1.0351e-05
1.0351e-05
1.0351e-05
1.0351e-05
1.0351e-05
1.0351e-05
1.0351e-05
1.0351e-05
1.0351e-05
1.0351e-05
1.0351e-05
1.0351e-05
1.0351e-05
1.0351e-05
1.0351e-05
1.0351e-05
1.0351e-05
1.0351e-05
1.0351e-05
1.0351e-05
1.0351e-05
1.0351e-05
1.0351e-05
1.0351e-05
1.0351e-05
1.0351e-05
1.0351e-05
1.0351e-05
1.0351e-05
1.0351e-05
1.0351e-05
1.0351e-05
1.0351e-05
1.0351e-05
1.0351e-05
1.0351e-05
1.0351e-05
1.0351e-05
1.0351e-05
1.0351e-05
1.0351e-05
1.0351e-05
1.0351e-05
1.0351e-05
1.0351e-05
1.0351e-05
1.0351e-05
1.0351e-05
1.0351e-05
1.0351e-05
1.0351e-05
1.0351e-05
1.0351e-05
1.0351e-05
1.0351e-05
1.0351e-05
1.0351e-05
1.0351e-05
1.0351e-05
1.0351e-05
1.0351e-05
1.0351e-05
1.0351e-05
1.0351e-05
1.0351e-05
1.0351e-05
1.0351e-05
1.0351e-05
1.0351e-05
1.0351e-05
1.0351e-05
1.0351e-05
1.0351e-05
1.0351e-05
1.0351e-05
1.0351e-05
1.0351e-05
1.0351e-05
1.0351e-05
1.0351e-05
1.0351e-05
1.0351e-05
1.0351e-05
1.0351e-05
1.0351e-05
1.0351e-05
1.0351e-05
1.0351e-05
1.0351e-05
1.0351e-05
1.0351e-05
1.0351e-05
1.0351e-05
1.0351e-05
1.0351e-05
1.0351e-05
1.0351e-05
1.0351e-05
1.0351e-05
1.0351e-05
1.0351e-05
1.0351e-05
1.0351e-05
1.0351e-05
1.0351e-05
1.0351e-05
1.0351e-05
1.0351e-05
1.0351e-05
1.0351e-05
1.0351e-05
1.0351e-05
1.0351e-05
1.0351e-05
1.0351e-05
1.0351e-05
1.0351e-05
1.0351e-05
1.0351e-05
1.0351e-05
1.0351e-05
1.0351e-05
1.0351e-05
1.0351e-05
1.0351e-05
1.0351e-05
1.0351e-05
1.0351e-05
1.0351e-05
1.0351e-05
1.0351e-05
1.0351e-05
1.0351e-05
1.0351e-05
1.0351e-05
1.0351e-05
1.0351e-05
1.0351e-05
1.0351e-05
1.0351e-05
1.0351e-05
1.0351e-05
1.0351e-05
1.0351e-05
1.0351e-05
1.0351e-05
1.0351e-05
1.0351e-05
1.0351e-05
1.0351e-05
1.0351e-05
1.0351e-05
1.0351e-05
1.0351e-05
1.0351e-05
1.0351e-05
1.0351e-05
1.0351e-05
1.0351e-05
1.0351e-05
1.0351e-05
1.0351e-05
1.0351e-05
1.0351e-05
1.0351e-05
1.0351e-05
1.0351e-05
1.0351e-05
1.0351e-05
1.0351e-05
1.0351e-05
1.0351e-05
1.0351e-05
1.0351e-05
1.0351e-05
1.0351e-05
1.0351e-05
1.0351e-05
1.0351e-05
1.0351e-05
1.0351e-05
1.0351e-05
1.0351e-05
1.0351e-05
1.0351e-05
1.0351e-05
1.0351e-05
1.0351e-05
1.0351e-05
1.0351e-05
1.0351e-05
1.0351e-05
1.0351e-05
1.0351e-05
1.0351e-05
1.0351e-05
1.0351e-05
1.0351e-05
1.0351e-05
1.0351e-05
1.0351e-05
1.0351e-05
1.0351e-05
1.0351e-05
1.0351e-05
1.0351e-05
1.0351e-05
1.0351e-05
1.0351e-05
1.0351e-05
1.0351e-05
1.0351e-05
1.0351e-05
1.0351e-05
1.0351e-05
1.0351e-05
1.0351e-05
1.0351e-05
1.0351e-05
1.0351e-05
1.0351e-05
1.0351e-05
1.0351e-05
1.0351e-05
1.0351e-05
1.0351e-05
1.0351e-05
1.0351e-05
1.0351e-05
1.0351e-05
1.0351e-05
1.0351e-05
1.0351e-05
1.0351e-05
1.0351e-05
1.0351e-05
1.0351e-05
1.0351e-05
1.0351e-05
1.0351e-05
1.0351e-05
1.0351e-05
1.0351e-05
1.0351e-05
1.0351e-05
1.0351e-05
1.0351e-05
1.0351e-05
1.0351e-05
1.0351e-05
1.0351e-05
1.0351e-05
1.0351e-05
1.0351e-05
1.0351e-05
1.0351e-05
1.0351e-05
1.0351e-05
1.0351e-05
1.0351e-05
1.0351e-05
1.0351e-05
1.0351e-05
1.0351e-05
1.0351e-05
1.0351e-05
1.0351e-05
1.0351e-05
1.0351e-05
1.0351e-05
1.0351e-05
1.0351e-05
1.0351e-05
1.0351e-05
1.0351e-05
1.0351e-05
1.0351e-05
1.0351e-05
1.0351e-05
1.0351e-05
1.0351e-05
1.0351e-05
1.0351e-05
1.0351e-05
1.0351e-05
1.0351e-05
1.0351e-05
1.0351e-05
1.0351e-05
1.0351e-05
1.0351e-05
1.0351e-05
1.0351e-05
1.0351e-05
1.0351e-05
1.0351e-05
1.0351e-05
1.0351e-05
1.0351e-05
1.0351e-05
1.0351e-05
1.0351e-05
1.0351e-05
1.0351e-05
1.0351e-05
1.0351e-05
1.0351e-05
1.0351e-05
1.0351e-05
1.0351e-05
1.0351e-05
1.0351e-05
1.0351e-05
1.0351e-05
1.0351e-05
1.0351e-05
1.0351e-05
1.0351e-05
1.0351e-05
1.0351e-05
1.0351e-05
1.0351e-05
1.0351e-05
1.0351e-05
1.0351e-05
1.0351e-05
1.0351e-05
1.0351e-05
1.0351e-05
1.0351e-05
1.0351e-05
1.0351e-05
1.0351e-05
1.0351e-05
1.0351e-05
1.0351e-05
1.0351e-05
1.0351e-05
1.0351e-05
1.0351e-05
1.0351e-05
1.0351e-05
1.0351e-05
1.0351e-05
1.0351e-05
1.0351e-05
1.0351e-05
1.0351e-05
1.0351e-05
1.0351e-05
1.0351e-05
1.0351e-05
1.0351e-05
1.0351e-05
1.0351e-05
1.0351e-05
1.0351e-05
1.0351e-05
1.0351e-05
1.0351e-05
1.0351e-05
1.0351e-05
1.0351e-05
1.0351e-05
1.0351e-05
1.0351e-05
1.0351e-05
1.0351e-05
1.0351e-05
1.0351e-05
1.0351e-05
1.0351e-05
1.0351e-05
1.0351e-05
1.0351e-05
1.0351e-05
1.0351e-05
1.0351e-05
1.0351e-05
1.0351e-05
1.0351e-05
1.0351e-05
1.0351e-05
1.0351e-05
1.0351e-05
1.0351e-05
1.0351e-05
1.0351e-05
1.0351e-05
1.0351e-05
1.0351e-05
1.0351e-05
1.0351e-05
1.0351e-05
1.0351e-05
1.0351e-05
1.0351e-05
1.0351e-05
1.0351e-05
1.0351e-05
1.0351e-05
1.0351e-05
1.0351e-05
1.0351e-05
1.0351e-05
1.0351e-05
1.0351e-05
1.0351e-05
1.0351e-05
1.0351e-05
1.0351e-05
1.0351e-05
1.0351e-05
1.0351e-05
1.0351e-05
1.0351e-05
1.0351e-05
1.0351e-05
1.0351e-05
1.0351e-05
1.0351e-05
1.0351e-05
1.0351e-05
1.0351e-05
1.0351e-05
1.0351e-05
1.0351e-05
1.0351e-05
1.0351e-05
1.0351e-05
1.0351e-05
1.0351e-05
1.0351e-05
1.0351e-05
1.0351e-05
1.0351e-05
1.0351e-05
1.0351e-05
1.0351e-05
1.0351e-05
1.0351e-05
1.0351e-05
1.0351e-05
1.0351e-05
1.0351e-05
1.0351e-05
1.0351e-05
1.0351e-05
1.0351e-05
1.0351e-05
1.0351e-05
1.0351e-05
1.0351e-05
1.0351e-05
1.0351e-05
1.0351e-05
1.0351e-05
1.0351e-05
1.0351e-05
1.0351e-05
1.0351e-05
1.0351e-05
1.0351e-05
1.0351e-05
1.0351e-05
1.0351e-05
1.0351e-05
1.0351e-05
1.0351e-05
1.0351e-05
1.0351e-05
1.0351e-05
1.0351e-05
1.0351e-05
1.0351e-05
1.0351e-05
1.0351e-05
1.0351e-05
1.0351e-05
1.0351e-05
1.0351e-05
1.0351e-05
1.0351e-05
1.0351e-05
1.0351e-05
1.0351e-05
1.0351e-05
1.0351e-05
1.0351e-05
1.0351e-05
1.0351e-05
1.0351e-05
1.0351e-05
1.0351e-05
1.0351e-05
1.0351e-05
1.0351e-05
1.0351e-05
1.0351e-05
1.0351e-05
1.0351e-05
1.0351e-05
1.0351e-05
1.0351e-05
1.0351e-05
1.0351e-05
1.0351e-05
1.0351e-05
1.0351e-05
1.0351e-05
1.0351e-05
1.0351e-05
1.0351e-05
1.0351e-05
1.0351e-05
1.0351e-05
1.0351e-05
1.0351e-05
1.0351e-05
1.0351e-05
1.0351e-05
1.0351e-05
1.0351e-05
1.0351e-05
1.0351e-05
1.0351e-05
1.0351e-05
1.0351e-05
1.0351e-05
1.0351e-05
1.0351e-05
1.0351e-05
1.0351e-05
1.0351e-05
1.0351e-05
1.0351e-05
1.0351e-05
1.0351e-05
1.0351e-05
1.0351e-05
1.0351e-05
1.0351e-05
1.0351e-05
1.0351e-05
1.0351e-05
1.0351e-05
1.0351e-05
1.0351e-05
1.0351e-05
1.0351e-05
1.0351e-05
1.0351e-05
1.0351e-05
1.0351e-05
1.0351e-05
1.0351e-05
1.0351e-05
1.0351e-05
1.0351e-05
1.0351e-05
1.0351e-05
1.0351e-05
1.0351e-05
1.0351e-05
1.0351e-05
1.0351e-05
1.0351e-05
1.0351e-05
1.0351e-05
1.0351e-05
1.0351e-05
1.0351e-05
1.0351e-05
1.0351e-05
1.0351e-05
1.0351e-05
1.0351e-05
1.0351e-05
1.0351e-05
1.0351e-05
1.0351e-05
1.0351e-05
1.0351e-05
1.0351e-05
1.0351e-05
1.0351e-05
1.0351e-05
1.0351e-05
1.0351e-05
1.0351e-05
1.0351e-05
1.0351e-05
1.0351e-05
1.0351e-05
1.0351e-05
1.0351e-05
1.0351e-05
1.0351e-05
1.0351e-05
1.0351e-05
1.0351e-05
1.0351e-05
1.0351e-05
1.0351e-05
1.0351e-05
1.0351e-05
1.0351e-05
1.0351e-05
1.0351e-05
1.0351e-05
1.0351e-05
1.0351e-05
1.0351e-05
1.0351e-05
1.0351e-05
1.0351e-05
1.0351e-05
1.0351e-05
1.0351e-05
1.0351e-05
1.0351e-05
1.0351e-05
1.0351e-05
1.0351e-05
1.0351e-05
1.0351e-05
1.0351e-05
1.0351e-05
1.0351e-05
1.0351e-05
1.0351e-05
1.0351e-05
1.0351e-05
1.0351e-05
1.0351e-05
1.0351e-05
1.0351e-05
1.0351e-05
1.0351e-05
1.0351e-05
1.0351e-05
1.0351e-05
1.0351e-05
1.0351e-05
1.0351e-05
1.0351e-05
1.0351e-05
1.0351e-05
1.0351e-05
1.0351e-05
1.0351e-05
1.0351e-05
1.0351e-05
1.0351e-05
1.0351e-05
1.0351e-05
1.0351e-05
1.0351e-05
1.0351e-05
1.0351e-05
1.0351e-05
1.0351e-05
1.0351e-05
1.0351e-05
1.0351e-05
1.0351e-05
1.0351e-05
1.0351e-05
1.0351e-05
1.0351e-05
1.0351e-05
1.0351e-05
1.0351e-05
1.0351e-05
1.0351e-05
1.0351e-05
1.0351e-05
1.0351e-05
1.0351e-05
1.0351e-05
1.0351e-05
1.0351e-05
1.0351e-05
1.0351e-05
1.0351e-05
1.0351e-05
1.0351e-05
1.0351e-05
1.0351e-05
1.0351e-05
1.0351e-05
1.0351e-05
1.0351e-05
1.0351e-05
1.0351e-05
1.0351e-05
1.0351e-05
1.0351e-05
1.0351e-05
1.0351e-05
1.0351e-05
1.0351e-05
1.0351e-05
1.0351e-05
1.0351e-05
1.0351e-05
1.0351e-05
1.0351e-05
1.0351e-05
1.0351e-05
1.0351e-05
1.0351e-05
1.0351e-05
1.0351e-05
1.0351e-05
1.0351e-05
1.0351e-05
1.0351e-05
1.0351e-05
1.0351e-05
1.0351e-05
1.0351e-05
1.0351e-05
1.0351e-05
1.0351e-05
1.0351e-05
1.0351e-05
1.0351e-05
1.0351e-05
1.0351e-05
1.0351e-05
1.0351e-05
1.0351e-05
1.0351e-05
1.0351e-05
1.0351e-05
1.0351e-05
1.0351e-05
1.0351e-05
1.0351e-05
1.0351e-05
1.0351e-05
1.0351e-05
1.0351e-05
1.0351e-05
1.0351e-05
1.0351e-05
1.0351e-05
1.0351e-05
1.0351e-05
1.0351e-05
1.0351e-05
1.0351e-05
1.0351e-05
1.0351e-05
1.0351e-05
1.0351e-05
1.0351e-05
1.0351e-05
1.0351e-05
1.0351e-05
1.0351e-05
1.0351e-05
1.0351e-05
1.0351e-05
1.0351e-05
1.0351e-05
1.0351e-05
1.0351e-05
1.0351e-05
1.0351e-05
1.0351e-05
1.0351e-05
1.0351e-05
1.0351e-05
1.0351e-05
1.0351e-05
1.0351e-05
1.0351e-05
1.0351e-05
1.0351e-05
1.0351e-05
1.0351e-05
1.0351e-05
1.0351e-05
1.0351e-05
1.0351e-05
1.0351e-05
1.0351e-05
1.0351e-05
1.0351e-05
1.0351e-05
1.0351e-05
1.0351e-05
1.0351e-05
1.0351e-05
1.0351e-05
1.0351e-05
1.0351e-05
1.0351e-05
1.0351e-05
1.0351e-05
1.0351e-05
1.0351e-05
1.0351e-05
1.0351e-05
1.0351e-05
1.0351e-05
1.0351e-05
1.0351e-05
1.0351e-05
1.0351e-05
1.0351e-05
1.0351e-05
1.0351e-05
1.0351e-05
1.0351e-05
1.0351e-05
1.0351e-05
1.0351e-05
1.0351e-05
1.0351e-05
1.0351e-05
1.0351e-05
1.0351e-05
1.0351e-05
1.0351e-05
1.0351e-05
1.0351e-05
1.0351e-05
1.0351e-05
1.0351e-05
1.0351e-05
1.0351e-05
1.0351e-05
1.0351e-05
1.0351e-05
1.0351e-05
1.0351e-05
1.0351e-05
1.0351e-05
1.0351e-05
1.0351e-05
1.0351e-05
1.0351e-05
1.0351e-05
1.0351e-05
1.0351e-05
1.0351e-05
1.0351e-05
1.0351e-05
1.0351e-05
1.0351e-05
1.0351e-05
1.0351e-05
1.0351e-05
1.0351e-05
1.0351e-05
1.0351e-05
1.0351e-05
1.0351e-05
1.0351e-05
1.0351e-05
1.0351e-05
1.0351e-05
1.0351e-05
1.0351e-05
1.0351e-05
1.0351e-05
1.0351e-05
1.0351e-05
1.0351e-05
1.0351e-05
1.0351e-05
1.0351e-05
1.0351e-05
1.0351e-05
1.0351e-05
1.0351e-05
1.0351e-05
1.0351e-05
1.0351e-05
1.0351e-05
1.0351e-05
1.0351e-05
1.0351e-05
1.0351e-05
1.0351e-05
1.0351e-05
1.0351e-05
1.0351e-05
1.0351e-05
1.0351e-05
1.0351e-05
1.0351e-05
1.0351e-05
1.0351e-05
1.0351e-05
1.0351e-05
1.0351e-05
1.0351e-05
1.0351e-05
1.0351e-05
1.0351e-05
1.0351e-05
1.0351e-05
1.0351e-05
1.0351e-05
1.0351e-05
1.0351e-05
1.0351e-05
1.0351e-05
1.0351e-05
1.0351e-05
1.0351e-05
1.0351e-05
1.0351e-05
1.0351e-05
1.0351e-05
1.0351e-05
1.0351e-05
1.0351e-05
1.0351e-05
1.0351e-05
1.0351e-05
1.0351e-05
1.0351e-05
1.0351e-05
1.0351e-05
1.0351e-05
1.0351e-05
1.0351e-05
1.0351e-05
1.0351e-05
1.0351e-05
1.0351e-05
1.0351e-05
1.0351e-05
1.0351e-05
1.0351e-05
1.0351e-05
1.0351e-05
1.0351e-05
1.0351e-05
1.0351e-05
1.0351e-05
1.0351e-05
1.0351e-05
1.0351e-05
1.0351e-05
1.0351e-05
1.0351e-05
1.0351e-05
1.0351e-05
1.0351e-05
1.0351e-05
1.0351e-05
1.03511e-05
1.03511e-05
1.03512e-05
1.0351e-05
1.0351e-05
1.0351e-05
1.0351e-05
1.0351e-05
1.0351e-05
1.0351e-05
1.0351e-05
1.0351e-05
1.0351e-05
1.0351e-05
1.0351e-05
1.0351e-05
1.0351e-05
1.0351e-05
1.0351e-05
1.0351e-05
1.0351e-05
1.0351e-05
1.0351e-05
1.0351e-05
1.0351e-05
1.0351e-05
1.0351e-05
1.0351e-05
1.0351e-05
1.0351e-05
1.0351e-05
1.0351e-05
1.0351e-05
1.0351e-05
1.0351e-05
1.0351e-05
1.0351e-05
1.0351e-05
1.0351e-05
1.0351e-05
1.0351e-05
1.0351e-05
1.0351e-05
1.0351e-05
1.0351e-05
1.03511e-05
1.03511e-05
1.03512e-05
1.03514e-05
1.03517e-05
1.03525e-05
1.0351e-05
1.0351e-05
1.0351e-05
1.0351e-05
1.0351e-05
1.0351e-05
1.0351e-05
1.0351e-05
1.0351e-05
1.0351e-05
1.0351e-05
1.0351e-05
1.0351e-05
1.0351e-05
1.0351e-05
1.0351e-05
1.0351e-05
1.0351e-05
1.0351e-05
1.0351e-05
1.0351e-05
1.0351e-05
1.0351e-05
1.0351e-05
1.0351e-05
1.0351e-05
1.0351e-05
1.0351e-05
1.0351e-05
1.0351e-05
1.0351e-05
1.0351e-05
1.0351e-05
1.0351e-05
1.0351e-05
1.0351e-05
1.0351e-05
1.0351e-05
1.0351e-05
1.0351e-05
1.0351e-05
1.03511e-05
1.03511e-05
1.03512e-05
1.03514e-05
1.03517e-05
1.03523e-05
1.03534e-05
1.03555e-05
1.03598e-05
1.0351e-05
1.0351e-05
1.0351e-05
1.0351e-05
1.0351e-05
1.0351e-05
1.0351e-05
1.0351e-05
1.0351e-05
1.0351e-05
1.0351e-05
1.0351e-05
1.0351e-05
1.0351e-05
1.0351e-05
1.0351e-05
1.0351e-05
1.0351e-05
1.0351e-05
1.0351e-05
1.0351e-05
1.0351e-05
1.0351e-05
1.0351e-05
1.0351e-05
1.0351e-05
1.0351e-05
1.0351e-05
1.0351e-05
1.0351e-05
1.0351e-05
1.0351e-05
1.0351e-05
1.0351e-05
1.0351e-05
1.0351e-05
1.0351e-05
1.0351e-05
1.03511e-05
1.03511e-05
1.03512e-05
1.03514e-05
1.03516e-05
1.03522e-05
1.03532e-05
1.03551e-05
1.03586e-05
1.03651e-05
1.03776e-05
1.04026e-05
1.0351e-05
1.0351e-05
1.0351e-05
1.0351e-05
1.0351e-05
1.0351e-05
1.0351e-05
1.0351e-05
1.0351e-05
1.0351e-05
1.0351e-05
1.0351e-05
1.0351e-05
1.0351e-05
1.0351e-05
1.0351e-05
1.0351e-05
1.0351e-05
1.0351e-05
1.0351e-05
1.0351e-05
1.0351e-05
1.0351e-05
1.0351e-05
1.0351e-05
1.0351e-05
1.0351e-05
1.0351e-05
1.0351e-05
1.0351e-05
1.0351e-05
1.0351e-05
1.0351e-05
1.0351e-05
1.0351e-05
1.03511e-05
1.03511e-05
1.03512e-05
1.03513e-05
1.03516e-05
1.03521e-05
1.03531e-05
1.03548e-05
1.0358e-05
1.0364e-05
1.0375e-05
1.03954e-05
1.04333e-05
1.05043e-05
1.06425e-05
1.0351e-05
1.0351e-05
1.0351e-05
1.0351e-05
1.0351e-05
1.0351e-05
1.0351e-05
1.0351e-05
1.0351e-05
1.0351e-05
1.0351e-05
1.0351e-05
1.0351e-05
1.0351e-05
1.0351e-05
1.0351e-05
1.0351e-05
1.0351e-05
1.0351e-05
1.0351e-05
1.0351e-05
1.0351e-05
1.0351e-05
1.0351e-05
1.0351e-05
1.0351e-05
1.0351e-05
1.0351e-05
1.0351e-05
1.0351e-05
1.0351e-05
1.0351e-05
1.03511e-05
1.03511e-05
1.03512e-05
1.03513e-05
1.03516e-05
1.03521e-05
1.0353e-05
1.03546e-05
1.03576e-05
1.03631e-05
1.03732e-05
1.03917e-05
1.04256e-05
1.04879e-05
1.06018e-05
1.08085e-05
1.11796e-05
1.18415e-05
1.0351e-05
1.0351e-05
1.0351e-05
1.0351e-05
1.0351e-05
1.0351e-05
1.0351e-05
1.0351e-05
1.0351e-05
1.0351e-05
1.0351e-05
1.0351e-05
1.0351e-05
1.0351e-05
1.0351e-05
1.0351e-05
1.0351e-05
1.0351e-05
1.0351e-05
1.0351e-05
1.0351e-05
1.0351e-05
1.0351e-05
1.0351e-05
1.0351e-05
1.0351e-05
1.0351e-05
1.0351e-05
1.0351e-05
1.03511e-05
1.03511e-05
1.03512e-05
1.03513e-05
1.03516e-05
1.03521e-05
1.03529e-05
1.03545e-05
1.03573e-05
1.03624e-05
1.03718e-05
1.03887e-05
1.04196e-05
1.04758e-05
1.05778e-05
1.07613e-05
1.10864e-05
1.16474e-05
1.2577e-05
1.40356e-05
1.61797e-05
1.0351e-05
1.0351e-05
1.0351e-05
1.0351e-05
1.0351e-05
1.0351e-05
1.0351e-05
1.0351e-05
1.0351e-05
1.0351e-05
1.0351e-05
1.0351e-05
1.0351e-05
1.0351e-05
1.0351e-05
1.0351e-05
1.0351e-05
1.0351e-05
1.0351e-05
1.0351e-05
1.0351e-05
1.0351e-05
1.0351e-05
1.0351e-05
1.0351e-05
1.0351e-05
1.03511e-05
1.03511e-05
1.03512e-05
1.03513e-05
1.03516e-05
1.03521e-05
1.03529e-05
1.03544e-05
1.03571e-05
1.0362e-05
1.03707e-05
1.03865e-05
1.04149e-05
1.04663e-05
1.05587e-05
1.07239e-05
1.1015e-05
1.15163e-05
1.23472e-05
1.36521e-05
1.55666e-05
1.81709e-05
2.14605e-05
2.53387e-05
1.0351e-05
1.0351e-05
1.0351e-05
1.0351e-05
1.0351e-05
1.0351e-05
1.0351e-05
1.0351e-05
1.0351e-05
1.0351e-05
1.0351e-05
1.0351e-05
1.0351e-05
1.0351e-05
1.0351e-05
1.0351e-05
1.0351e-05
1.0351e-05
1.0351e-05
1.0351e-05
1.0351e-05
1.0351e-05
1.0351e-05
1.03511e-05
1.03511e-05
1.03512e-05
1.03514e-05
1.03516e-05
1.03521e-05
1.0353e-05
1.03544e-05
1.03571e-05
1.03618e-05
1.03701e-05
1.0385e-05
1.04116e-05
1.04592e-05
1.05441e-05
1.06946e-05
1.09583e-05
1.14108e-05
1.21612e-05
1.3345e-05
1.50966e-05
1.75044e-05
2.05746e-05
2.4227e-05
2.83236e-05
3.27124e-05
3.72384e-05
1.0351e-05
1.0351e-05
1.0351e-05
1.0351e-05
1.0351e-05
1.0351e-05
1.0351e-05
1.0351e-05
1.0351e-05
1.0351e-05
1.0351e-05
1.0351e-05
1.0351e-05
1.0351e-05
1.0351e-05
1.0351e-05
1.0351e-05
1.0351e-05
1.0351e-05
1.0351e-05
1.03511e-05
1.03511e-05
1.03512e-05
1.03514e-05
1.03517e-05
1.03522e-05
1.0353e-05
1.03545e-05
1.03572e-05
1.03618e-05
1.03699e-05
1.03842e-05
1.04096e-05
1.04545e-05
1.05337e-05
1.0673e-05
1.09152e-05
1.13285e-05
1.20126e-05
1.30943e-05
1.47051e-05
1.69413e-05
1.98261e-05
2.32985e-05
2.72333e-05
3.14777e-05
3.58836e-05
4.03251e-05
4.46916e-05
4.88981e-05
1.0351e-05
1.0351e-05
1.0351e-05
1.0351e-05
1.0351e-05
1.0351e-05
1.0351e-05
1.0351e-05
1.0351e-05
1.0351e-05
1.0351e-05
1.0351e-05
1.0351e-05
1.0351e-05
1.0351e-05
1.0351e-05
1.03511e-05
1.03511e-05
1.03512e-05
1.03513e-05
1.03514e-05
1.03517e-05
1.03523e-05
1.03532e-05
1.03547e-05
1.03574e-05
1.0362e-05
1.03701e-05
1.03843e-05
1.0409e-05
1.04521e-05
1.05276e-05
1.06588e-05
1.08849e-05
1.12682e-05
1.18996e-05
1.28975e-05
1.43885e-05
1.6473e-05
1.91878e-05
2.24903e-05
2.62725e-05
3.03919e-05
3.47034e-05
3.90786e-05
4.34062e-05
4.75887e-05
5.15557e-05
5.52425e-05
5.85921e-05
1.0351e-05
1.0351e-05
1.0351e-05
1.0351e-05
1.0351e-05
1.0351e-05
1.0351e-05
1.0351e-05
1.0351e-05
1.0351e-05
1.0351e-05
1.0351e-05
1.0351e-05
1.03511e-05
1.03511e-05
1.03512e-05
1.03513e-05
1.03515e-05
1.03518e-05
1.03524e-05
1.03534e-05
1.0355e-05
1.03578e-05
1.03626e-05
1.03709e-05
1.03852e-05
1.04098e-05
1.04523e-05
1.05256e-05
1.06519e-05
1.08672e-05
1.12289e-05
1.18209e-05
1.2753e-05
1.41461e-05
1.61011e-05
1.8664e-05
2.18078e-05
2.54402e-05
2.94315e-05
3.36429e-05
3.79482e-05
4.22402e-05
4.6422e-05
5.04137e-05
5.41529e-05
5.75733e-05
6.05945e-05
6.31366e-05
6.52001e-05
1.0351e-05
1.0351e-05
1.0351e-05
1.0351e-05
1.0351e-05
1.0351e-05
1.0351e-05
1.0351e-05
1.0351e-05
1.03511e-05
1.03511e-05
1.03511e-05
1.03512e-05
1.03514e-05
1.03516e-05
1.0352e-05
1.03526e-05
1.03537e-05
1.03555e-05
1.03585e-05
1.03636e-05
1.03723e-05
1.0387e-05
1.04122e-05
1.04551e-05
1.05282e-05
1.06525e-05
1.0862e-05
1.12103e-05
1.17754e-05
1.26596e-05
1.3977e-05
1.58264e-05
1.82592e-05
2.12597e-05
2.47499e-05
2.86126e-05
3.27171e-05
3.69414e-05
4.11807e-05
4.53444e-05
4.93499e-05
5.31329e-05
5.66366e-05
5.97907e-05
6.2515e-05
6.47524e-05
6.65068e-05
6.78266e-05
6.88212e-05
1.0351e-05
1.0351e-05
1.0351e-05
1.0351e-05
1.0351e-05
1.0351e-05
1.03511e-05
1.03511e-05
1.03512e-05
1.03513e-05
1.03514e-05
1.03517e-05
1.03522e-05
1.03529e-05
1.03541e-05
1.03561e-05
1.03595e-05
1.03651e-05
1.03744e-05
1.03901e-05
1.04165e-05
1.0461e-05
1.05357e-05
1.06612e-05
1.08701e-05
1.1213e-05
1.17635e-05
1.26171e-05
1.3881e-05
1.56497e-05
1.79763e-05
2.08529e-05
2.42131e-05
2.79511e-05
3.19459e-05
3.60805e-05
4.02533e-05
4.4379e-05
4.83784e-05
5.21838e-05
5.57417e-05
5.89953e-05
6.18717e-05
6.43016e-05
6.6254e-05
6.77546e-05
6.887e-05
6.9692e-05
7.02981e-05
7.07715e-05
1.0351e-05
1.0351e-05
1.03511e-05
1.03511e-05
1.03511e-05
1.03512e-05
1.03513e-05
1.03516e-05
1.03519e-05
1.03524e-05
1.03533e-05
1.03547e-05
1.0357e-05
1.03609e-05
1.03672e-05
1.03775e-05
1.03947e-05
1.04232e-05
1.04706e-05
1.05492e-05
1.06792e-05
1.08927e-05
1.12385e-05
1.17865e-05
1.26266e-05
1.38589e-05
1.55723e-05
1.78182e-05
2.0593e-05
2.3839e-05
2.74605e-05
3.13462e-05
3.5386e-05
3.94822e-05
4.3553e-05
4.75263e-05
5.13334e-05
5.49203e-05
5.82385e-05
6.12278e-05
6.38178e-05
6.59567e-05
6.7641e-05
6.89152e-05
6.98553e-05
7.05442e-05
7.10564e-05
7.14542e-05
7.17747e-05
7.20458e-05
1.03511e-05
1.03512e-05
1.03513e-05
1.03515e-05
1.03517e-05
1.03521e-05
1.03528e-05
1.03539e-05
1.03556e-05
1.03584e-05
1.03629e-05
1.03701e-05
1.0382e-05
1.04014e-05
1.04331e-05
1.0485e-05
1.05699e-05
1.07083e-05
1.09323e-05
1.12898e-05
1.18479e-05
1.26917e-05
1.39143e-05
1.55975e-05
1.77886e-05
2.0485e-05
2.36349e-05
2.71515e-05
3.09323e-05
3.4875e-05
3.88873e-05
4.2891e-05
4.68197e-05
5.06092e-05
5.42032e-05
5.75566e-05
6.06209e-05
6.33335e-05
6.56334e-05
6.74915e-05
6.89276e-05
6.99994e-05
7.07869e-05
7.13637e-05
7.17983e-05
7.21377e-05
7.24158e-05
7.26494e-05
7.28716e-05
7.30839e-05
1.03516e-05
1.0352e-05
1.03525e-05
1.03534e-05
1.03547e-05
1.03569e-05
1.03603e-05
1.03657e-05
1.03744e-05
1.03883e-05
1.04108e-05
1.04471e-05
1.05056e-05
1.06e-05
1.07515e-05
1.09928e-05
1.13716e-05
1.19533e-05
1.28184e-05
1.40532e-05
1.5731e-05
1.78929e-05
2.05348e-05
2.3608e-05
2.70328e-05
3.07154e-05
3.45618e-05
3.84856e-05
4.2413e-05
4.6282e-05
5.00352e-05
5.36167e-05
5.69813e-05
6.00881e-05
6.28854e-05
6.53124e-05
6.73242e-05
6.89163e-05
7.01267e-05
7.10211e-05
7.16752e-05
7.21563e-05
7.25249e-05
7.28153e-05
7.30525e-05
7.32626e-05
7.34667e-05
7.36469e-05
7.3806e-05
7.39565e-05
1.03531e-05
1.03542e-05
1.03559e-05
1.03587e-05
1.0363e-05
1.03697e-05
1.03804e-05
1.03974e-05
1.04242e-05
1.0467e-05
1.05349e-05
1.06428e-05
1.08132e-05
1.108e-05
1.14914e-05
1.21115e-05
1.30166e-05
1.42853e-05
1.59819e-05
1.81394e-05
2.07494e-05
2.37651e-05
2.71124e-05
3.07051e-05
3.44575e-05
3.82903e-05
4.21347e-05
4.59327e-05
4.96332e-05
5.31839e-05
5.65392e-05
5.96613e-05
6.25087e-05
6.50273e-05
6.71653e-05
6.88981e-05
7.02434e-05
7.12507e-05
7.19902e-05
7.25294e-05
7.29301e-05
7.32396e-05
7.34861e-05
7.36907e-05
7.38808e-05
7.40642e-05
7.42177e-05
7.43597e-05
7.44904e-05
7.46132e-05
7.47368e-05
1.03614e-05
1.0367e-05
1.03756e-05
1.03892e-05
1.04103e-05
1.04434e-05
1.04952e-05
1.05763e-05
1.0703e-05
1.08998e-05
1.12023e-05
1.16597e-05
1.23349e-05
1.32997e-05
1.46245e-05
1.63632e-05
1.8539e-05
2.11384e-05
2.41143e-05
2.73974e-05
3.09089e-05
3.45709e-05
3.83117e-05
4.20682e-05
4.57866e-05
4.94206e-05
5.2924e-05
5.62517e-05
5.9367e-05
6.22349e-05
6.48105e-05
6.70424e-05
6.88939e-05
7.03629e-05
7.14831e-05
7.23118e-05
7.29165e-05
7.3357e-05
7.36885e-05
7.39465e-05
7.41546e-05
7.43314e-05
7.45019e-05
7.46607e-05
7.47958e-05
7.49201e-05
7.50342e-05
7.51441e-05
7.52552e-05
7.53691e-05
7.54859e-05
1.03843e-05
1.04019e-05
1.04291e-05
1.04709e-05
1.05354e-05
1.06349e-05
1.07878e-05
1.10208e-05
1.13719e-05
1.18914e-05
1.26407e-05
1.36863e-05
1.50893e-05
1.68917e-05
1.91061e-05
2.17129e-05
2.46642e-05
2.78949e-05
3.1333e-05
3.49086e-05
3.85574e-05
4.22223e-05
4.58543e-05
4.94111e-05
5.28526e-05
5.61362e-05
5.92255e-05
6.20896e-05
6.46916e-05
6.69852e-05
6.89282e-05
7.05031e-05
7.17277e-05
7.2646e-05
7.33191e-05
7.38075e-05
7.41651e-05
7.44368e-05
7.46487e-05
7.48194e-05
7.4976e-05
7.51297e-05
7.52584e-05
7.53753e-05
7.5485e-05
7.55857e-05
7.56838e-05
7.57844e-05
7.58874e-05
7.59918e-05
7.60978e-05
7.62054e-05
1.05111e-05
1.05937e-05
1.07189e-05
1.09077e-05
1.11899e-05
1.1606e-05
1.22069e-05
1.30518e-05
1.42003e-05
1.57026e-05
1.75878e-05
1.98578e-05
2.24862e-05
2.54247e-05
2.8612e-05
3.1983e-05
3.54752e-05
3.90321e-05
4.26027e-05
4.61427e-05
4.96138e-05
5.29809e-05
5.62057e-05
5.92526e-05
6.20923e-05
6.46946e-05
6.70196e-05
6.9025e-05
7.06838e-05
7.19986e-05
7.30016e-05
7.37429e-05
7.42816e-05
7.46701e-05
7.49573e-05
7.51765e-05
7.53488e-05
7.54894e-05
7.56255e-05
7.57553e-05
7.5863e-05
7.59635e-05
7.60555e-05
7.61423e-05
7.62304e-05
7.63219e-05
7.64146e-05
7.65089e-05
7.66043e-05
7.66996e-05
7.67945e-05
7.68891e-05
1.10784e-05
1.1427e-05
1.19284e-05
1.26336e-05
1.35975e-05
1.48711e-05
1.64916e-05
1.84752e-05
2.08127e-05
2.34723e-05
2.64053e-05
2.95549e-05
3.28627e-05
3.62737e-05
3.97384e-05
4.32121e-05
4.66555e-05
5.00339e-05
5.33163e-05
5.64694e-05
5.9459e-05
6.22572e-05
6.48378e-05
6.71676e-05
6.92072e-05
7.0925e-05
7.2312e-05
7.33883e-05
7.4194e-05
7.47822e-05
7.5206e-05
7.55111e-05
7.57377e-05
7.59103e-05
7.60452e-05
7.61639e-05
7.62827e-05
7.63826e-05
7.64716e-05
7.6556e-05
7.66325e-05
7.67068e-05
7.6784e-05
7.68647e-05
7.69476e-05
7.70329e-05
7.71189e-05
7.72045e-05
7.72893e-05
7.73723e-05
7.74532e-05
7.75322e-05
1.32069e-05
1.43141e-05
1.57329e-05
1.7487e-05
1.95791e-05
2.19904e-05
2.4685e-05
2.76153e-05
3.07291e-05
3.39749e-05
3.7305e-05
4.06765e-05
4.40509e-05
4.73933e-05
5.0673e-05
5.38623e-05
5.69325e-05
5.98519e-05
6.25936e-05
6.51341e-05
6.74459e-05
6.94939e-05
7.12452e-05
7.26835e-05
7.38181e-05
7.46806e-05
7.53153e-05
7.5773e-05
7.60987e-05
7.63338e-05
7.65087e-05
7.66405e-05
7.67428e-05
7.68428e-05
7.69404e-05
7.70162e-05
7.70883e-05
7.71548e-05
7.72158e-05
7.72784e-05
7.73454e-05
7.74151e-05
7.74875e-05
7.75625e-05
7.76387e-05
7.77153e-05
7.77912e-05
7.78652e-05
7.79367e-05
7.8005e-05
7.80698e-05
7.81312e-05
1.87202e-05
2.0924e-05
2.34089e-05
2.61365e-05
2.90618e-05
3.2138e-05
3.53202e-05
3.85679e-05
4.18443e-05
4.51165e-05
4.83539e-05
5.15295e-05
5.46187e-05
5.75966e-05
6.04344e-05
6.31065e-05
6.55914e-05
6.78659e-05
6.98994e-05
7.16602e-05
7.31282e-05
7.43041e-05
7.52107e-05
7.58854e-05
7.63739e-05
7.67215e-05
7.69661e-05
7.71423e-05
7.72712e-05
7.73662e-05
7.74463e-05
7.75283e-05
7.75963e-05
7.76547e-05
7.77107e-05
7.77599e-05
7.78073e-05
7.78584e-05
7.79138e-05
7.79723e-05
7.80347e-05
7.80993e-05
7.81653e-05
7.8232e-05
7.82984e-05
7.83636e-05
7.84266e-05
7.84866e-05
7.85427e-05
7.85944e-05
7.86413e-05
7.86834e-05
2.78357e-05
3.07492e-05
3.37824e-05
3.68971e-05
4.0059e-05
4.32374e-05
4.64041e-05
4.95325e-05
5.25991e-05
5.55819e-05
5.84594e-05
6.12058e-05
6.37969e-05
6.62129e-05
6.84338e-05
7.04334e-05
7.21821e-05
7.36582e-05
7.48567e-05
7.57933e-05
7.64992e-05
7.70137e-05
7.73796e-05
7.76344e-05
7.78122e-05
7.79389e-05
7.8027e-05
7.8091e-05
7.81529e-05
7.82146e-05
7.82576e-05
7.82996e-05
7.83377e-05
7.83709e-05
7.84061e-05
7.84459e-05
7.84895e-05
7.85371e-05
7.85886e-05
7.86426e-05
7.86985e-05
7.87553e-05
7.8812e-05
7.88678e-05
7.8922e-05
7.89735e-05
7.90217e-05
7.90656e-05
7.91045e-05
7.91379e-05
7.91655e-05
7.91869e-05
3.87011e-05
4.17727e-05
4.48491e-05
4.79065e-05
5.0922e-05
5.38748e-05
5.67459e-05
5.9516e-05
6.21623e-05
6.46625e-05
6.69982e-05
6.91518e-05
7.11007e-05
7.28183e-05
7.42826e-05
7.54855e-05
7.64369e-05
7.7162e-05
7.76949e-05
7.80749e-05
7.83391e-05
7.85184e-05
7.86411e-05
7.87235e-05
7.87773e-05
7.88192e-05
7.88637e-05
7.88986e-05
7.89239e-05
7.89496e-05
7.89698e-05
7.89889e-05
7.90121e-05
7.90403e-05
7.90724e-05
7.91092e-05
7.91496e-05
7.91928e-05
7.92382e-05
7.92848e-05
7.93318e-05
7.93782e-05
7.94232e-05
7.9466e-05
7.95059e-05
7.95419e-05
7.95735e-05
7.95999e-05
7.962e-05
7.96339e-05
7.9641e-05
7.96403e-05
5.25127e-05
5.53474e-05
5.81017e-05
6.07585e-05
6.32974e-05
6.5698e-05
6.79434e-05
7.00181e-05
7.19023e-05
7.35721e-05
7.50067e-05
7.61964e-05
7.7147e-05
7.7879e-05
7.8422e-05
7.88106e-05
7.90798e-05
7.92597e-05
7.9378e-05
7.94547e-05
7.94984e-05
7.95241e-05
7.95491e-05
7.95745e-05
7.95838e-05
7.95947e-05
7.96031e-05
7.96067e-05
7.96135e-05
7.96251e-05
7.96414e-05
7.96622e-05
7.9688e-05
7.97174e-05
7.97498e-05
7.97846e-05
7.98208e-05
7.98576e-05
7.98944e-05
7.99302e-05
7.99642e-05
7.99955e-05
8.00236e-05
8.00476e-05
8.00664e-05
8.00801e-05
8.00876e-05
8.00872e-05
8.00806e-05
8.00664e-05
8.00437e-05
6.21767e-05
6.46017e-05
6.68951e-05
6.90417e-05
7.10275e-05
7.28351e-05
7.44431e-05
7.58324e-05
7.69927e-05
7.79276e-05
7.86538e-05
7.91966e-05
7.95868e-05
7.98571e-05
8.00365e-05
8.0149e-05
8.02176e-05
8.02529e-05
8.02656e-05
8.02717e-05
8.02802e-05
8.02805e-05
8.02735e-05
8.02681e-05
8.02592e-05
8.02497e-05
8.02442e-05
8.02441e-05
8.02487e-05
8.02586e-05
8.02731e-05
8.02914e-05
8.03131e-05
8.03372e-05
8.0363e-05
8.03898e-05
8.04167e-05
8.04429e-05
8.04678e-05
8.04906e-05
8.05104e-05
8.05263e-05
8.05381e-05
8.0545e-05
8.0545e-05
8.05395e-05
8.05271e-05
8.05065e-05
8.04779e-05
8.04409e-05
8.03951e-05
7.02838e-05
7.21722e-05
7.38932e-05
7.54275e-05
7.67578e-05
7.78746e-05
7.87801e-05
7.94883e-05
8.00206e-05
8.04051e-05
8.06715e-05
8.08456e-05
8.09518e-05
8.10124e-05
8.10398e-05
8.10377e-05
8.10283e-05
8.10184e-05
8.10078e-05
8.0986e-05
8.09655e-05
8.09437e-05
8.09187e-05
8.08968e-05
8.08803e-05
8.08688e-05
8.08621e-05
8.0861e-05
8.08643e-05
8.08716e-05
8.08824e-05
8.08957e-05
8.09111e-05
8.09276e-05
8.09446e-05
8.09614e-05
8.09771e-05
8.09908e-05
8.10021e-05
8.10105e-05
8.10147e-05
8.10136e-05
8.10078e-05
8.09962e-05
8.09774e-05
8.09514e-05
8.09177e-05
8.08755e-05
8.08245e-05
8.07644e-05
8.06948e-05
7.77783e-05
7.88393e-05
7.97031e-05
8.03816e-05
8.08942e-05
8.12655e-05
8.1522e-05
8.1687e-05
8.17854e-05
8.18365e-05
8.18518e-05
8.18406e-05
8.18178e-05
8.17902e-05
8.17624e-05
8.17304e-05
8.16927e-05
8.16573e-05
8.16192e-05
8.15816e-05
8.15485e-05
8.15207e-05
8.14978e-05
8.14806e-05
8.14685e-05
8.14608e-05
8.14573e-05
8.14572e-05
8.146e-05
8.14648e-05
8.14711e-05
8.1478e-05
8.1485e-05
8.14915e-05
8.14965e-05
8.14994e-05
8.14989e-05
8.14952e-05
8.14877e-05
8.14751e-05
8.14565e-05
8.14318e-05
8.14004e-05
8.13614e-05
8.13143e-05