/*--------------------------------*- C++ -*----------------------------------*\
| =========                 |                                                 |
| \\      /  F ield         | OpenFOAM: The Open Source CFD Toolbox           |
|  \\    /   O peration     | Version:  v1706                                 |
|   \\  /    A nd           | Web:      www.OpenFOAM.com                      |
|    \\/     M anipulation  |                                                 |
\*---------------------------------------------------------------------------*/
FoamFile
{
    version     2.0;
    format      ascii;
    class       volScalarField;
    location    "8e-06";
    object      p;
}
// * * * * * * * * * * * * * * * * * * * * * * * * * * * * * * * * * * * * * //

dimensions      [1 -1 -2 0 0 0 0];


internalField   nonuniform List<scalar> 
30038
(
21.9139
21.9139
21.9139
21.9139
21.9139
21.9139
21.9139
21.9139
21.9139
21.9139
21.9139
21.9139
21.9139
21.9139
21.9139
21.9139
21.9139
21.9139
21.9139
21.9139
21.9139
21.9139
21.9139
21.9139
21.9139
21.9139
21.9139
21.9139
21.9139
21.9139
21.9139
21.9139
21.9139
21.9139
21.9139
21.9139
21.9139
21.9139
21.9139
21.9139
21.9139
21.9139
21.9139
21.9139
21.9139
21.9139
21.9139
21.9139
21.9139
21.9139
21.9139
21.9139
21.9139
21.9139
21.9139
21.9139
21.9139
21.9139
21.9139
21.9139
21.9139
21.9139
21.9139
21.9139
21.9139
21.9139
21.9139
21.9139
21.9139
21.9139
21.9139
21.9139
21.9139
21.9139
21.9139
21.9139
21.9139
21.9139
21.9139
21.9139
21.9139
21.9139
21.9139
21.9139
21.9139
21.9139
21.9139
21.9139
21.9139
21.9139
21.9139
21.9139
21.9139
21.9139
21.9139
21.9139
21.9139
21.9139
21.9139
21.9139
21.9139
21.9139
21.9139
21.9139
21.9139
21.9139
21.9139
21.9139
21.9139
21.9139
21.9139
21.9139
21.9139
21.9139
21.9139
21.9139
21.9139
21.9139
21.9139
21.9139
21.9139
21.9139
21.9139
21.9139
21.9139
21.9139
21.9139
21.9139
21.9139
21.9139
21.9139
21.9139
21.9139
21.9139
21.9139
21.9139
21.9139
21.9139
21.9139
21.9139
21.9139
21.9139
21.9139
21.9139
21.9139
21.9139
21.9139
21.9139
21.9139
21.9139
21.9139
21.9139
21.9139
21.9139
21.9139
21.9139
21.9139
21.9139
21.9139
21.9139
21.9139
21.9139
21.9139
21.9139
21.9139
21.9139
21.9139
21.9139
21.9139
21.9139
21.9139
21.9139
21.9139
21.9139
21.9139
21.9139
21.9139
21.9139
21.9139
21.9139
21.9139
21.9139
21.9139
21.9139
21.9139
21.9139
21.9139
21.9139
21.9139
21.9139
21.9139
21.9139
21.9139
21.9139
21.9139
21.9139
21.9139
21.9139
21.9139
21.9139
21.9139
21.9139
21.9139
21.9139
21.9139
21.9139
21.9139
21.9139
21.9139
21.9139
21.9139
21.9139
21.9139
21.9139
21.9139
21.9139
21.9139
21.9139
21.9139
21.9139
21.9139
21.9139
21.9139
21.9139
21.9139
21.9139
21.9139
21.9139
21.9139
21.9139
21.9139
21.9139
21.9139
21.9139
21.9139
21.9139
21.9139
21.9139
21.9139
21.9139
21.9139
21.9139
21.9139
21.9139
21.9139
21.9139
21.9139
21.9139
21.9139
21.9139
21.9139
21.9139
21.9139
21.9139
21.9139
21.9139
21.9139
21.9139
21.9139
21.9139
21.9139
21.9139
21.9139
21.9139
21.9139
21.9139
21.9139
21.9139
21.9139
21.9139
21.9139
21.9139
21.9139
21.9139
21.9139
21.9139
21.9139
21.9139
21.9139
21.9139
21.9139
21.9139
21.9139
21.9139
21.9139
21.9139
21.9139
21.9139
21.9139
21.9139
21.9139
21.9139
21.9139
21.9139
21.9139
21.9139
21.9139
21.9139
21.9139
21.9139
21.9139
21.9139
21.9139
21.9139
21.9139
21.9139
21.9139
21.9139
21.9139
21.9139
21.9139
21.9139
21.9139
21.9139
21.9139
21.9139
21.9139
21.9139
21.9139
21.9139
21.9139
21.9139
21.9139
21.9139
21.9139
21.9139
21.9139
21.9139
21.9139
21.9139
21.9139
21.9139
21.9139
21.9139
21.9139
21.9139
21.9139
21.9139
21.9139
21.9139
21.9139
21.9139
21.9139
21.9139
21.9139
21.9139
21.9139
21.9139
21.9139
21.9139
21.9139
21.9139
21.9139
21.9139
21.9139
21.9139
21.9139
21.9139
21.9139
21.9139
21.9139
21.9139
21.9139
21.9139
21.9139
21.9139
21.9139
21.9139
21.9139
21.9139
21.9139
21.9139
21.9139
21.9139
21.9139
21.9139
21.9139
21.9139
21.9139
21.9139
21.9139
21.9139
21.9139
21.9139
21.9139
21.9139
21.9139
21.9139
21.9139
21.9139
21.9139
21.9139
21.9139
21.9139
21.9139
21.9139
21.9139
21.9139
21.9139
21.9139
21.9139
21.9139
21.9139
21.9139
21.9139
21.9139
21.9139
21.9139
21.9139
21.9139
21.9139
21.9139
21.9139
21.9139
21.9139
21.9139
21.9139
21.9139
21.9139
21.9139
21.9139
21.9139
21.9139
21.9139
21.9139
21.9139
21.9139
21.9139
21.9139
21.9139
21.9139
21.9139
21.9139
21.9139
21.9139
21.9139
21.9139
21.9139
21.9139
21.9139
21.9139
21.9139
21.9139
21.9139
21.9139
21.9139
21.9139
21.9139
21.9139
21.9139
21.9139
21.9139
21.9139
21.9139
21.9139
21.9139
21.9139
21.9139
21.9139
21.9139
21.9139
21.9139
21.9139
21.9139
21.9139
21.9139
21.9139
21.9139
21.9139
21.9139
21.9139
21.9139
21.9139
21.9139
21.9139
21.9139
21.9139
21.9139
21.9139
21.9139
21.9139
21.9139
21.9139
21.9139
21.9139
21.9139
21.9139
21.9139
21.9139
21.9139
21.9139
21.9139
21.9139
21.9139
21.9139
21.9139
21.9139
21.9139
21.9139
21.9139
21.9139
21.9139
21.9139
21.9139
21.9139
21.9139
21.9139
21.9139
21.9139
21.9139
21.9139
21.9139
21.9139
21.9139
21.9139
21.9139
21.9139
21.9139
21.9139
21.9139
21.9139
21.9139
21.9139
21.9139
21.9139
21.9139
21.9139
21.9139
21.9139
21.9139
21.9139
21.9139
21.9139
21.9139
21.9139
21.9139
21.9139
21.9139
21.9139
21.9139
21.9139
21.9139
21.9139
21.9139
21.9139
21.9139
21.9139
21.9139
21.9139
21.9139
21.9139
21.9139
21.9139
21.9139
21.9139
21.9139
21.9139
21.9139
21.9139
21.9139
21.9139
21.9139
21.9139
21.9139
21.9139
21.9139
21.9139
21.9139
21.9139
21.9139
21.9139
21.9139
21.9139
21.9139
21.9139
21.9139
21.9139
21.9139
21.9139
21.9139
21.9139
21.9139
21.9139
21.9139
21.9139
21.9139
21.9139
21.9139
21.9139
21.9139
21.9139
21.9139
21.9139
21.9139
21.9139
21.9139
21.9139
21.9139
21.9139
21.9139
21.9139
21.9139
21.9139
21.9139
21.9139
21.9139
21.9139
21.9139
21.9139
21.9139
21.9139
21.9139
21.9139
21.9139
21.9139
21.9139
21.9139
21.9139
21.9139
21.9139
21.9139
21.9139
21.9139
21.9139
21.9139
21.9139
21.9139
21.9139
21.9139
21.9139
21.9139
21.9139
21.9139
21.9139
21.9139
21.9139
21.9139
21.9139
21.9139
21.9139
21.9139
21.9139
21.9139
21.9139
21.9139
21.9139
21.9139
21.9139
21.9139
21.9139
21.9139
21.9139
21.9139
21.9139
21.9139
21.9139
21.9139
21.9139
21.9139
21.9139
21.9139
21.9139
21.9139
21.9139
21.9139
21.9139
21.9139
21.9139
21.9139
21.9139
21.9139
21.9139
21.9139
21.9139
21.9139
21.9139
21.9139
21.9139
21.9139
21.9139
21.9139
21.9139
21.9139
21.9139
21.9139
21.9139
21.9139
21.9139
21.9139
21.9139
21.9139
21.9139
21.9139
21.9139
21.9139
21.9139
21.9139
21.9139
21.9139
21.9139
21.9139
21.9139
21.9139
21.9139
21.9139
21.9139
21.9139
21.9139
21.9139
21.9139
21.9139
21.9139
21.9139
21.9139
21.9139
21.9139
21.9139
21.9139
21.9139
21.9139
21.9139
21.9139
21.9139
21.9139
21.9139
21.9139
21.9139
21.9139
21.9139
21.9139
21.9139
21.9139
21.9139
21.9139
21.9139
21.9139
21.9139
21.9139
21.9139
21.9139
21.9139
21.9139
21.9139
21.9139
21.9139
21.9139
21.9139
21.9139
21.9139
21.9139
21.9139
21.9139
21.9139
21.9139
21.9139
21.9139
21.9139
21.9139
21.9139
21.9139
21.9139
21.9139
21.9139
21.9139
21.9139
21.9139
21.9139
21.9139
21.9139
21.9139
21.9139
21.9139
21.9139
21.9139
21.9139
21.9139
21.9139
21.9139
21.9139
21.9139
21.9139
21.9139
21.9139
21.9139
21.9139
21.9139
21.9139
21.9139
21.9139
21.9139
21.9139
21.9139
21.9139
21.9139
21.9139
21.9139
21.9139
21.9139
21.9139
21.9139
21.9139
21.9139
21.9139
21.9139
21.9139
21.9139
21.9139
21.9139
21.9139
21.9139
21.9139
21.9139
21.9139
21.9139
21.9139
21.9139
21.9139
21.9139
21.9139
21.9139
21.9139
21.9139
21.9139
21.9139
21.9139
21.9139
21.9139
21.9139
21.9139
21.9139
21.9139
21.9139
21.9139
21.9139
21.9139
21.9139
21.9139
21.9139
21.9139
21.9139
21.9139
21.9139
21.9139
21.9139
21.9139
21.9139
21.9139
21.9139
21.9139
21.9139
21.9139
21.9139
21.9139
21.9139
21.9139
21.9139
21.9139
21.9139
21.9139
21.9139
21.9139
21.9139
21.9139
21.9139
21.9139
21.9139
21.9139
21.9139
21.9139
21.9139
21.9139
21.9139
21.9139
21.9139
21.9139
21.9139
21.9139
21.9139
21.9139
21.9139
21.9139
21.9139
21.9139
21.9139
21.9139
21.9139
21.9139
21.9139
21.9139
21.9139
21.9139
21.9139
21.9139
21.9139
21.9139
21.9139
21.9139
21.9139
21.9139
21.9139
21.9139
21.9139
21.9139
21.9139
21.9139
21.9139
21.9139
21.9139
21.9139
21.9139
21.9139
21.9139
21.9139
21.9139
21.9139
21.9139
21.9139
21.9139
21.9139
21.9139
21.9139
21.9139
21.9139
21.9139
21.9139
21.9139
21.9139
21.9139
21.9139
21.9139
21.9139
21.9139
21.9139
21.9139
21.9139
21.9139
21.9139
21.9139
21.9139
21.9139
21.9139
21.9139
21.9139
21.9139
21.9139
21.9139
21.9139
21.9139
21.9139
21.9139
21.9139
21.9139
21.9139
21.9139
21.9139
21.9139
21.9139
21.9139
21.9139
21.9139
21.9139
21.9139
21.9139
21.9139
21.9139
21.9139
21.9139
21.9139
21.9139
21.9139
21.9139
21.9139
21.9139
21.9139
21.9139
21.9139
21.9139
21.9139
21.9139
21.9139
21.9139
21.9139
21.9139
21.9139
21.9139
21.9139
21.9139
21.9139
21.9139
21.9139
21.9139
21.9139
21.9139
21.9139
21.9139
21.9139
21.9139
21.9139
21.9139
21.9139
21.9139
21.9139
21.9139
21.9139
21.9139
21.9139
21.9139
21.9139
21.9139
21.9139
21.9139
21.9139
21.9139
21.9139
21.9139
21.9139
21.9139
21.9139
21.9139
21.9139
21.9139
21.9139
21.9139
21.9139
21.9139
21.9139
21.9139
21.9139
21.9139
21.9139
21.9139
21.9139
21.9139
21.9139
21.9139
21.9139
21.9139
21.9139
21.9139
21.9139
21.9139
21.9139
21.9139
21.9139
21.914
21.914
21.9139
21.9139
21.9139
21.9139
21.9139
21.9139
21.9139
21.9139
21.9139
21.9139
21.9139
21.9139
21.9139
21.9139
21.9139
21.9139
21.9139
21.9139
21.9139
21.9139
21.9139
21.9139
21.9139
21.9139
21.9139
21.9139
21.9139
21.9139
21.9139
21.9139
21.9139
21.9139
21.9139
21.9139
21.9139
21.9139
21.9139
21.9139
21.9139
21.9139
21.9139
21.9139
21.9139
21.914
21.914
21.9141
21.9143
21.9146
21.9139
21.9139
21.9139
21.9139
21.9139
21.9139
21.9139
21.9139
21.9139
21.9139
21.9139
21.9139
21.9139
21.9139
21.9139
21.9139
21.9139
21.9139
21.9139
21.9139
21.9139
21.9139
21.9139
21.9139
21.9139
21.9139
21.9139
21.9139
21.9139
21.9139
21.9139
21.9139
21.9139
21.9139
21.9139
21.9139
21.9139
21.9139
21.9139
21.9139
21.914
21.914
21.9141
21.9142
21.9145
21.9151
21.9161
21.9183
21.9139
21.9139
21.9139
21.9139
21.9139
21.9139
21.9139
21.9139
21.9139
21.9139
21.9139
21.9139
21.9139
21.9139
21.9139
21.9139
21.9139
21.9139
21.9139
21.9139
21.9139
21.9139
21.9139
21.9139
21.9139
21.9139
21.9139
21.9139
21.9139
21.9139
21.9139
21.9139
21.9139
21.9139
21.9139
21.9139
21.9139
21.9139
21.9139
21.914
21.914
21.9141
21.9142
21.9145
21.915
21.9159
21.9177
21.921
21.9273
21.9402
21.9139
21.9139
21.9139
21.9139
21.9139
21.9139
21.9139
21.9139
21.9139
21.9139
21.9139
21.9139
21.9139
21.9139
21.9139
21.9139
21.9139
21.9139
21.9139
21.9139
21.9139
21.9139
21.9139
21.9139
21.9139
21.9139
21.9139
21.9139
21.9139
21.9139
21.9139
21.9139
21.9139
21.9139
21.9139
21.9139
21.914
21.914
21.9141
21.9142
21.9145
21.915
21.9158
21.9175
21.9205
21.9261
21.9366
21.9561
21.9933
22.0682
21.9139
21.9139
21.9139
21.9139
21.9139
21.9139
21.9139
21.9139
21.9139
21.9139
21.9139
21.9139
21.9139
21.9139
21.9139
21.9139
21.9139
21.9139
21.9139
21.9139
21.9139
21.9139
21.9139
21.9139
21.9139
21.9139
21.9139
21.9139
21.9139
21.9139
21.9139
21.9139
21.9139
21.914
21.914
21.9141
21.9142
21.9145
21.9149
21.9158
21.9173
21.9201
21.9254
21.935
21.9527
21.9856
22.0465
22.1598
22.3723
22.7885
21.9139
21.9139
21.9139
21.9139
21.9139
21.9139
21.9139
21.9139
21.9139
21.9139
21.9139
21.9139
21.9139
21.9139
21.9139
21.9139
21.9139
21.9139
21.9139
21.9139
21.9139
21.9139
21.9139
21.9139
21.9139
21.9139
21.9139
21.9139
21.9139
21.9139
21.914
21.914
21.9141
21.9142
21.9145
21.9149
21.9157
21.9172
21.9199
21.9248
21.9337
21.9501
21.9801
22.0353
22.1367
22.3231
22.665
23.2892
24.4231
26.4949
21.9139
21.9139
21.9139
21.9139
21.9139
21.9139
21.9139
21.9139
21.9139
21.9139
21.9139
21.9139
21.9139
21.9139
21.9139
21.9139
21.9139
21.9139
21.9139
21.9139
21.9139
21.9139
21.9139
21.9139
21.9139
21.9139
21.9139
21.914
21.914
21.9141
21.9142
21.9145
21.9149
21.9157
21.9171
21.9197
21.9244
21.9328
21.9481
21.9758
22.0264
22.1186
22.2867
22.5923
23.1454
24.1356
25.8767
28.8514
33.7428
41.4651
21.9139
21.9139
21.9139
21.9139
21.9139
21.9139
21.9139
21.9139
21.9139
21.9139
21.9139
21.9139
21.9139
21.9139
21.9139
21.9139
21.9139
21.9139
21.9139
21.9139
21.9139
21.9139
21.9139
21.9139
21.914
21.914
21.9141
21.9142
21.9145
21.9149
21.9157
21.9171
21.9197
21.9242
21.9322
21.9467
21.9727
22.0197
22.1046
22.2579
22.5346
23.0315
23.9159
25.464
28.1016
32.4242
39.1664
49.1174
63.0187
81.6465
21.9139
21.9139
21.9139
21.9139
21.9139
21.9139
21.9139
21.9139
21.9139
21.9139
21.9139
21.9139
21.9139
21.9139
21.9139
21.9139
21.9139
21.9139
21.9139
21.9139
21.9139
21.914
21.914
21.9141
21.9143
21.9145
21.915
21.9158
21.9172
21.9197
21.9242
21.932
21.946
21.9708
22.0152
22.0946
22.2365
22.4903
22.9424
23.7415
25.1333
27.4993
31.38
37.4538
46.459
59.0858
75.9045
97.3732
123.899
156.59
21.9139
21.9139
21.9139
21.9139
21.9139
21.9139
21.9139
21.9139
21.9139
21.9139
21.9139
21.9139
21.9139
21.9139
21.9139
21.9139
21.9139
21.9139
21.914
21.914
21.9141
21.9143
21.9146
21.9151
21.9159
21.9174
21.92
21.9244
21.9322
21.946
21.9702
22.0129
22.0885
22.2222
22.4589
22.8767
23.6091
24.8763
27.0216
30.5365
36.0496
44.261
55.842
71.3533
91.2229
115.808
145.534
181.15
223.015
274.149
21.9139
21.9139
21.9139
21.9139
21.9139
21.9139
21.9139
21.9139
21.9139
21.9139
21.9139
21.9139
21.9139
21.9139
21.914
21.914
21.9141
21.9142
21.9144
21.9147
21.9152
21.9161
21.9177
21.9203
21.925
21.9329
21.9468
21.9709
22.0129
22.0864
22.215
22.4402
22.8335
23.5162
24.6881
26.66
29.8799
34.9288
42.4667
53.1418
67.5077
85.995
108.936
136.683
169.775
208.904
254.742
309.032
374.425
460.446
21.9139
21.9139
21.9139
21.9139
21.9139
21.9139
21.9139
21.9139
21.9139
21.9139
21.9139
21.914
21.914
21.9141
21.9142
21.9144
21.9148
21.9154
21.9164
21.9181
21.921
21.9258
21.9342
21.9485
21.9731
22.0155
22.0887
22.2152
22.4341
22.8122
23.4616
24.5655
26.4082
29.4005
34.0786
41.0617
50.9692
64.3416
81.6044
103.086
129.09
160.038
196.609
239.451
289.514
349.142
422.38
513.812
623.497
755.279
21.9139
21.9139
21.9139
21.9139
21.9139
21.9139
21.9139
21.914
21.914
21.914
21.9141
21.9143
21.9145
21.915
21.9156
21.9168
21.9187
21.9219
21.9272
21.9362
21.9514
21.9772
22.021
22.0957
22.2234
22.4415
22.8135
23.445
24.5069
26.2624
29.0906
33.4881
40.0333
49.3133
61.848
78.0514
98.2477
122.71
151.781
186.019
226.15
272.876
327.632
393.669
475.325
575.902
694.529
825.49
955.663
1078.66
21.9139
21.9139
21.9139
21.9139
21.914
21.914
21.9141
21.9142
21.9144
21.9147
21.9152
21.916
21.9173
21.9195
21.9231
21.9291
21.9391
21.9557
21.9835
22.0301
22.1085
22.2407
22.4637
22.8391
23.4684
24.5136
26.222
28.9471
33.1507
39.3719
48.163
60.0178
75.3334
94.4206
117.541
144.979
177.173
214.842
258.662
309.562
369.743
443.144
533.801
643.365
768.556
900.833
1027.74
1138.78
1225.95
1289.62
21.914
21.914
21.9141
21.9142
21.9143
21.9145
21.9149
21.9155
21.9165
21.9181
21.9207
21.925
21.9319
21.9432
21.9619
21.9927
22.0437
22.1284
22.2692
22.5034
22.8925
23.5358
24.5901
26.2914
28.973
33.0666
39.0747
47.5127
58.8445
73.4445
91.6053
113.578
139.609
170.055
205.511
246.739
294.442
350.011
416.549
498.205
598.076
715.64
845.183
976.184
1096.98
1197.69
1274.33
1326.85
1359.39
1376.32
21.9143
21.9145
21.9148
21.9153
21.916
21.9173
21.9193
21.9224
21.9275
21.9358
21.9491
21.9707
22.0059
22.0634
22.1575
22.3118
22.5649
22.9793
23.6548
24.7459
26.4814
29.1792
33.2456
39.1485
47.3661
58.3286
72.3831
89.8011
110.815
135.657
164.618
198.177
237.092
282.048
333.966
394.992
468.89
559.445
668.195
792.149
923.453
1050.51
1162.96
1252.81
1319.54
1361.66
1387.65
1399.17
1404.53
1409.38
21.9158
21.9168
21.9184
21.9209
21.9249
21.9313
21.9413
21.9574
21.9832
22.0246
22.0913
22.199
22.3731
22.6545
23.1085
23.8373
24.9961
26.8104
29.5866
33.7093
39.614
47.7405
58.4828
72.1574
89.011
109.256
133.112
160.829
192.801
229.676
272.225
321.149
377.853
445.361
527.574
627.272
743.886
872.09
1002.22
1123.09
1225.59
1304.43
1360.45
1394.65
1414.77
1421.16
1426.64
1429.95
1429.18
1423.72
21.92
21.9233
21.9285
21.9366
21.9494
21.9694
22.0011
22.0513
22.131
22.2578
22.46
22.7819
23.2933
24.1011
25.3642
27.3074
30.2292
34.4946
40.5077
48.6698
59.3357
72.7893
89.2504
108.911
131.973
158.669
189.327
224.483
264.932
311.327
364.627
427.02
502.111
593.304
701.793
824.606
954.417
1080.53
1193.06
1284.34
1353.04
1398.47
1425.74
1439.39
1444.14
1449.06
1450.29
1447.51
1440.84
1431.11
1417.63
21.9446
21.9611
21.9869
22.0269
22.0895
22.1876
22.3414
22.5828
22.9616
23.5536
24.4729
25.8844
28.0149
31.1567
35.6562
41.8861
50.2078
60.9355
74.3187
90.5495
109.799
132.254
158.134
187.721
221.472
260.095
304.33
354.887
413.268
482.507
566.177
666.545
782.707
909.451
1037.85
1157.43
1259.87
1339.82
1397.68
1433.73
1455.72
1463.42
1467.45
1470.95
1470.64
1466.16
1458.02
1446.81
1433.32
1419.25
1403.82
22.0126
22.0647
22.145
22.2691
22.4609
22.7575
23.2153
23.9188
24.9914
26.6062
28.9934
32.4392
37.2706
43.8278
52.4308
63.352
76.8056
92.9574
111.958
133.979
159.233
187.973
220.588
257.7
300.095
348.382
403.633
468.186
545.469
638.334
747.365
869.323
997.18
1121.11
1232.01
1322.88
1391.96
1439.09
1467.64
1482.72
1487.31
1491.89
1493.15
1490.53
1484.54
1475.42
1463.26
1449.41
1434.85
1419.86
1405.1
1389.61
22.3881
22.6339
23.0079
23.5755
24.4321
25.7125
27.5992
30.3259
34.171
39.4395
46.4364
55.4388
66.6774
80.3317
96.5427
115.443
137.193
161.994
190.088
221.814
257.714
298.553
344.969
397.741
458.608
530.637
616.927
718.991
835.304
960.512
1086.26
1202.99
1303.32
1382.32
1440.39
1477.29
1500.1
1508.78
1512.08
1515.26
1514.95
1510.93
1503.57
1493.19
1480.09
1466.01
1451.3
1436.28
1421.24
1406.23
1391.59
1376.33
24.0911
25.1569
26.716
28.9604
32.1249
36.4762
42.2931
49.8421
59.3568
71.0268
84.9997
101.394
120.329
141.955
166.467
194.098
225.151
260.11
299.68
344.549
395.339
453.353
521.173
601.902
697.617
808.018
929.339
1054.68
1175.05
1282.34
1370.65
1438.13
1485.03
1513.73
1529.69
1534.15
1538.02
1539.1
1536.52
1530.91
1522.42
1510.98
1497.53
1483.22
1468.3
1453.24
1438.18
1423.18
1408.29
1393.46
1378.97
1363.91
30.8219
34.5381
39.5125
45.9922
54.2025
64.3333
76.5367
90.9321
107.621
126.709
148.344
172.715
200.052
230.628
264.885
303.47
347.1
396.312
452.117
516.631
592.802
682.997
787.721
904.577
1027.92
1149.88
1261.98
1357.99
1433.8
1489.86
1526.19
1548.62
1557.55
1560.27
1563.15
1562.49
1558.42
1551.53
1541.8
1529.26
1515.44
1500.9
1485.92
1470.82
1455.71
1440.68
1425.74
1410.89
1396.15
1381.45
1367.06
1352.12
50.7283
59.7003
70.5387
83.3631
98.2698
115.347
134.695
156.458
180.824
208.02
238.301
272.072
309.933
352.609
400.597
454.704
516.667
589.2
674.775
774.396
886.658
1007.12
1128.96
1244.09
1345.65
1429.01
1492.74
1537.37
1564.87
1580.36
1584.55
1587.55
1588.23
1585.54
1580.05
1571.95
1561.08
1547.97
1533.95
1519.17
1504.1
1488.96
1473.83
1458.76
1443.77
1428.87
1414.05
1399.3
1384.65
1370.03
1355.7
1340.86
91.6777
107.169
124.715
144.415
166.412
190.899
218.095
248.247
281.731
319.111
361.092
408.172
461.013
521.057
590.772
672.604
767.844
875.755
992.94
1113.47
1230.01
1335.41
1424.76
1495.06
1546.9
1580.86
1601.61
1609.85
1612.05
1614.3
1613.04
1608.7
1602
1592.61
1580.6
1567.11
1552.8
1537.9
1522.81
1507.65
1492.5
1477.41
1462.38
1447.41
1432.51
1417.69
1402.94
1388.25
1373.65
1359.09
1344.81
1330.06
156.013
178.343
203.064
230.393
260.569
293.948
331.074
372.618
419.075
471.014
529.681
597.289
676.201
767.832
871.876
985.705
1104.25
1220.88
1328.67
1422.22
1498.24
1556.01
1596.35
1621.24
1634.83
1638.32
1640.47
1640.58
1637.4
1631.75
1623.79
1613.33
1600.49
1586.7
1572.14
1557.16
1542.03
1526.84
1511.68
1496.56
1481.5
1466.49
1451.53
1436.63
1421.78
1407
1392.28
1377.64
1363.08
1348.57
1334.34
1319.66
275.396
308.845
345.927
387.285
433.39
484.752
542.492
608.622
685.366
774.152
874.923
985.582
1101.81
1217.61
1326.47
1422.81
1503.16
1565.74
1611.38
1641.24
1658.91
1665.55
1667.14
1668.5
1666.43
1661.63
1654.84
1645.55
1633.89
1620.67
1606.62
1591.85
1576.84
1561.71
1546.52
1531.35
1516.21
1501.11
1486.06
1471.05
1456.09
1441.16
1426.29
1411.47
1396.71
1382.02
1367.41
1352.89
1338.44
1324.25
1309.68
405.228
451.239
502.323
559.536
624.738
699.998
786.668
884.796
992.634
1106.43
1220.79
1329.66
1427.58
1510.79
1577.27
1627.13
1661.48
1682.32
1692.8
1695.26
1696.45
1695.76
1691.84
1685.73
1677.67
1667.4
1654.78
1641.19
1626.84
1612
1596.95
1581.79
1566.62
1551.46
1536.31
1521.19
1506.1
1491.04
1476.01
1461.02
1446.07
1431.16
1416.3
1401.51
1386.76
1372.11
1357.54
1343.07
1328.67
1314.53
1300.05
580.935
645.711
720.105
805.329
901.423
1006.86
1118.28
1230.84
1338.9
1437.24
1522.1
1591.3
1644.29
1682.2
1706.51
1719.9
1724.29
1725.15
1725.37
1722.36
1716.85
1709.72
1700.36
1688.81
1675.78
1661.99
1647.39
1632.5
1617.45
1602.3
1587.13
1571.96
1556.81
1541.68
1526.57
1511.47
1496.39
1481.34
1466.32
1451.33
1436.39
1421.48
1406.64
1391.86
1377.15
1362.53
1348
1333.57
1319.23
1305.15
1290.76
924.806
1028.26
1137.46
1247.95
1354.59
1452.43
1537.85
1608.54
1663.73
1704.26
1731.43
1746.98
1753.75
1755.03
1755.06
1753.29
1748.45
1741.72
1733.31
1722.95
1710.46
1697.05
1682.91
1668.23
1653.33
1638.26
1623.15
1608.01
1592.85
1577.7
1562.55
1547.42
1532.29
1517.18
1502.08
1487
1471.94
1456.91
1441.93
1426.99
1412.1
1397.27
1382.52
1367.84
1353.26
1338.77
1324.4
1310.11
1296.09
1281.8
1272.26
1376.98
1473.54
1558.47
1629.62
1686.02
1728.22
1757.35
1775.06
1783.58
1785.68
1785.59
1784.48
1780.34
1773.86
1766.3
1756.66
1745.04
1732.12
1718.51
1704.1
1689.37
1674.46
1659.42
1644.32
1629.2
1614.07
1598.93
1583.78
1568.64
1553.49
1538.34
1523.2
1508.07
1492.96
1477.87
1462.8
1447.77
1432.79
1417.86
1402.99
1388.18
1373.46
1358.82
1344.27
1329.83
1315.51
1301.3
1287.34
1273.15
1584.3
1654.93
1711.55
1754.44
1784.89
1804.24
1813.86
1816.99
1817.08
1815.87
1812.65
1806.65
1799.28
1790.38
1779.7
1767.23
1753.98
1739.99
1725.49
1710.76
1695.84
1680.84
1665.79
1650.7
1635.59
1620.46
1605.33
1590.18
1575.01
1559.84
1544.67
1529.5
1514.34
1499.19
1484.07
1468.97
1453.9
1438.87
1423.9
1408.98
1394.13
1379.35
1364.66
1350.06
1335.56
1321.17
1306.91
1292.76
1278.87
1264.79
1783.38
1814.35
1834.53
1845.08
1848.98
1849.35
1847.88
1845.26
1839.77
1832.37
1824.17
1814.1
1802.25
1789.4
1775.9
1761.65
1747.12
1732.38
1717.49
1702.52
1687.5
1672.46
1657.39
1642.28
1627.15
1612
1596.84
1581.66
1566.46
1551.27
1536.07
1520.87
1505.69
1490.53
1475.39
1460.29
1445.22
1430.21
1415.24
1400.35
1385.52
1370.77
1356.11
1341.55
1327.1
1312.77
1298.58
1284.5
1270.69
1256.72
1877.44
1881.64
1882.27
1880.87
1878.09
1873.34
1865.97
1857.99
1848.49
1837.27
1824.82
1811.69
1797.8
1783.47
1768.94
1754.2
1739.36
1724.45
1709.47
1694.46
1679.41
1664.34
1649.23
1634.1
1618.93
1603.75
1588.54
1573.32
1558.1
1542.87
1527.64
1512.43
1497.23
1482.06
1466.92
1451.82
1436.76
1421.75
1406.81
1391.94
1377.14
1362.42
1347.81
1333.29
1318.89
1304.62
1290.5
1276.51
1262.79
1248.94
1914.59
1911.47
1907.17
1900.14
1891.92
1883
1872.36
1860.21
1847.38
1833.89
1819.82
1805.5
1790.94
1776.23
1761.43
1746.56
1731.65
1716.68
1701.67
1686.62
1671.54
1656.42
1641.27
1626.08
1610.88
1595.65
1580.4
1565.15
1549.89
1534.64
1519.39
1504.16
1488.96
1473.78
1458.64
1443.54
1428.5
1413.51
1398.59
1383.74
1368.97
1354.3
1339.72
1325.26
1310.92
1296.72
1282.68
1268.78
1255.15
1241.41
1934.76
1926.26
1917.55
1907.34
1895.55
1883.08
1870.01
1856.16
1842
1827.65
1813.1
1798.45
1783.7
1768.88
1754.02
1739.1
1724.13
1709.12
1694.06
1678.96
1663.82
1648.65
1633.44
1618.21
1602.96
1587.69
1572.41
1557.13
1541.84
1526.57
1511.31
1496.07
1480.86
1465.68
1450.55
1435.46
1420.43
1405.46
1390.57
1375.75
1361.02
1346.39
1331.86
1317.46
1303.2
1289.07
1275.12
1261.3
1247.73
1234.09
1931.08
1918.74
1905.96
1892.42
1878.51
1864.38
1849.98
1835.45
1820.84
1806.15
1791.39
1776.57
1761.7
1746.77
1731.79
1716.77
1701.69
1686.57
1671.41
1656.22
1640.99
1625.74
1610.46
1595.17
1579.86
1564.55
1549.25
1533.94
1518.66
1503.39
1488.14
1472.93
1457.76
1442.64
1427.56
1412.55
1397.61
1382.74
1367.96
1353.27
1338.69
1324.23
1309.9
1295.7
1281.65
1267.75
1254
1240.51
1226.99
1928.7
1914.94
1901.02
1886.83
1872.47
1858
1843.42
1828.78
1814.07
1799.3
1784.47
1769.58
1754.64
1739.65
1724.6
1709.51
1694.37
1679.19
1663.97
1648.72
1633.45
1618.15
1602.83
1587.5
1572.17
1556.83
1541.51
1526.19
1510.89
1495.62
1480.37
1465.17
1450.01
1434.89
1419.84
1404.85
1389.93
1375.1
1360.36
1345.73
1331.21
1316.81
1302.54
1288.39
1274.39
1260.57
1246.91
1233.53
1220.13
1923.65
1909.43
1895.13
1880.7
1866.18
1851.59
1836.92
1822.2
1807.41
1792.57
1777.66
1762.7
1747.68
1732.62
1717.5
1702.34
1687.13
1671.89
1656.62
1641.32
1626
1610.66
1595.31
1579.96
1564.6
1549.25
1533.9
1518.58
1503.28
1488
1472.76
1457.56
1442.41
1427.32
1412.29
1397.33
1382.45
1367.67
1352.98
1338.4
1323.93
1309.57
1295.34
1281.25
1267.33
1253.6
1240.03
1226.75
1213.49
1903.56
1889.11
1874.56
1859.95
1845.27
1830.52
1815.71
1800.84
1785.91
1770.93
1755.89
1740.79
1725.65
1710.47
1695.24
1679.98
1664.69
1649.37
1634.03
1618.67
1603.29
1587.91
1572.53
1557.16
1541.79
1526.44
1511.11
1495.8
1480.53
1465.3
1450.11
1434.98
1419.91
1404.91
1390
1375.16
1360.42
1345.77
1331.23
1316.79
1302.48
1288.32
1274.31
1260.47
1246.83
1233.37
1220.2
1207.1
1897.71
1883.14
1868.5
1853.8
1839.02
1824.19
1809.29
1794.33
1779.32
1764.25
1749.13
1733.97
1718.76
1703.51
1688.23
1672.91
1657.57
1642.21
1626.83
1611.43
1596.03
1580.63
1565.23
1549.84
1534.46
1519.1
1503.77
1488.47
1473.2
1457.99
1442.82
1427.72
1412.68
1397.72
1382.84
1368.04
1353.32
1338.7
1324.19
1309.82
1295.58
1281.49
1267.56
1253.82
1240.27
1226.94
1213.92
1200.98
1877.24
1862.5
1847.69
1832.83
1817.9
1802.91
1787.87
1772.77
1757.62
1742.43
1727.2
1711.93
1696.62
1681.29
1665.93
1650.54
1635.14
1619.73
1604.31
1588.88
1573.46
1558.05
1542.64
1527.26
1511.9
1496.57
1481.28
1466.03
1450.83
1435.7
1420.63
1405.62
1390.68
1375.82
1361.04
1346.36
1331.79
1317.34
1303.03
1288.85
1274.84
1261
1247.37
1233.96
1220.77
1207.91
1195.06
1871.37
1856.53
1841.63
1826.66
1811.64
1796.57
1781.44
1766.27
1751.05
1735.8
1720.5
1705.17
1689.82
1674.43
1659.03
1643.61
1628.17
1612.73
1597.29
1581.84
1566.41
1550.98
1535.57
1520.19
1504.83
1489.51
1474.24
1459.02
1443.85
1428.74
1413.68
1398.68
1383.76
1368.93
1354.19
1339.56
1325.05
1310.66
1296.41
1282.32
1268.41
1254.69
1241.18
1227.92
1214.8
1201.95
1189.14
1850.58
1835.59
1820.53
1805.43
1790.27
1775.07
1759.83
1744.54
1729.22
1713.87
1698.49
1683.09
1667.66
1652.22
1636.77
1621.3
1605.84
1590.37
1574.91
1559.47
1544.03
1528.63
1513.25
1497.91
1482.61
1467.36
1452.15
1436.99
1421.88
1406.83
1391.86
1376.98
1362.19
1347.5
1332.92
1318.47
1304.15
1290
1276.01
1262.22
1248.63
1235.18
1221.92
1208.82
1196
1183.34
1844.67
1829.58
1814.44
1799.25
1784.02
1768.75
1753.44
1738.1
1722.72
1707.32
1691.89
1676.44
1660.98
1645.5
1630.02
1614.53
1599.05
1583.57
1568.1
1552.65
1537.22
1521.83
1506.47
1491.14
1475.84
1460.59
1445.38
1430.23
1415.14
1400.13
1385.2
1370.36
1355.61
1340.98
1326.46
1312.1
1297.88
1283.83
1269.96
1256.2
1242.61
1229.17
1215.92
1202.94
1190.31
1177.86
1838.78
1823.6
1808.39
1793.12
1777.82
1762.49
1747.12
1731.72
1716.29
1700.84
1685.37
1669.88
1654.39
1638.88
1623.37
1607.87
1592.37
1576.88
1561.42
1545.98
1530.56
1515.16
1499.8
1484.46
1469.17
1453.92
1438.73
1423.61
1408.55
1393.57
1378.69
1363.89
1349.21
1334.66
1320.22
1305.96
1291.84
1277.81
1263.92
1250.16
1236.57
1223.22
1210.15
1197.35
1184.89
1172.61
1832.93
1817.67
1802.38
1787.05
1771.68
1756.29
1740.86
1725.41
1709.93
1694.44
1678.93
1663.41
1647.89
1632.36
1616.83
1601.32
1585.82
1570.34
1554.87
1539.42
1523.99
1508.58
1493.21
1477.88
1462.6
1447.38
1432.22
1417.12
1402.11
1387.17
1372.35
1357.63
1343.02
1328.56
1314.22
1299.94
1285.8
1271.75
1257.85
1244.18
1230.75
1217.57
1204.66
1192
1179.68
1167.54
1827.12
1811.79
1796.43
1781.03
1765.61
1750.15
1734.67
1719.17
1703.65
1688.12
1672.58
1657.04
1641.49
1625.95
1610.43
1594.9
1579.39
1563.89
1548.4
1532.94
1517.5
1502.1
1486.74
1471.43
1456.17
1440.98
1425.85
1410.8
1395.85
1380.98
1366.23
1351.6
1337.05
1322.55
1308.18
1293.88
1279.71
1265.76
1252.02
1238.5
1225.21
1212.16
1199.36
1186.82
1174.62
1162.62
1821.36
1805.96
1790.54
1775.08
1759.59
1744.09
1728.56
1713.02
1697.46
1681.91
1666.34
1650.78
1635.22
1619.67
1604.11
1588.57
1573.03
1557.51
1542.02
1526.56
1511.13
1495.74
1480.4
1465.12
1449.89
1434.74
1419.68
1404.68
1389.81
1375.03
1360.28
1345.6
1331.01
1316.49
1302.1
1287.9
1273.88
1260.06
1246.44
1233.03
1219.85
1206.89
1194.21
1181.78
1169.7
1157.85
1815.65
1800.19
1784.7
1769.19
1753.65
1738.1
1722.53
1706.96
1691.38
1675.8
1660.21
1644.62
1629.03
1613.45
1597.87
1582.3
1566.76
1551.24
1535.75
1520.3
1504.89
1489.52
1474.21
1458.99
1443.81
1428.72
1413.73
1398.79
1383.87
1369.04
1354.26
1339.54
1324.96
1310.54
1296.28
1282.2
1268.29
1254.57
1241.04
1227.72
1214.62
1201.77
1189.19
1176.89
1164.94
1153.24
1794.48
1778.94
1763.37
1747.8
1732.21
1716.62
1701.01
1685.39
1669.77
1654.15
1638.53
1622.9
1607.3
1591.71
1576.14
1560.6
1545.09
1529.61
1514.18
1498.81
1483.5
1468.23
1453.07
1437.97
1422.86
1407.81
1392.83
1377.87
1362.99
1348.25
1333.64
1319.18
1304.87
1290.7
1276.7
1262.87
1249.22
1235.76
1222.53
1209.53
1196.78
1184.32
1172.14
1160.34
1148.79
1788.85
1773.27
1757.66
1742.05
1726.41
1710.77
1695.12
1679.46
1663.8
1648.15
1632.51
1616.87
1601.26
1585.67
1570.11
1554.57
1539.09
1523.66
1508.26
1492.95
1477.7
1462.46
1447.23
1432.07
1416.93
1401.82
1386.81
1371.93
1357.15
1342.51
1328
1313.62
1299.37
1285.28
1271.34
1257.57
1243.99
1230.62
1217.47
1204.57
1191.93
1179.6
1167.55
1155.88
1144.49
1783.32
1767.67
1752.02
1736.35
1720.66
1704.97
1689.28
1673.6
1657.91
1642.24
1626.6
1610.95
1595.34
1579.78
1564.25
1548.74
1533.31
1517.93
1502.57
1487.2
1471.89
1456.6
1441.31
1426.09
1410.98
1395.96
1381.05
1366.25
1351.56
1336.98
1322.53
1308.2
1294.01
1279.97
1266.09
1252.39
1238.89
1225.6
1212.55
1199.75
1187.23
1175.02
1163.1
1151.57
1140.34
1762.12
1746.41
1730.69
1714.97
1699.25
1683.54
1667.84
1652.13
1636.46
1620.83
1605.21
1589.62
1574.09
1558.61
1543.15
1527.65
1512.21
1496.8
1481.36
1465.98
1450.68
1435.46
1420.32
1405.29
1390.35
1375.5