/*--------------------------------*- C++ -*----------------------------------*\
| =========                 |                                                 |
| \\      /  F ield         | OpenFOAM: The Open Source CFD Toolbox           |
|  \\    /   O peration     | Version:  v1706                                 |
|   \\  /    A nd           | Web:      www.OpenFOAM.com                      |
|    \\/     M anipulation  |                                                 |
\*---------------------------------------------------------------------------*/
FoamFile
{
    version     2.0;
    format      ascii;
    class       volScalarField;
    location    "8e-06";
    object      rho;
}
// * * * * * * * * * * * * * * * * * * * * * * * * * * * * * * * * * * * * * //

dimensions      [1 -3 0 0 0 0 0];


internalField   nonuniform List<scalar> 
30038
(
0.000511309
0.000511309
0.000511309
0.000511309
0.000511309
0.000511309
0.000511309
0.000511309
0.000511309
0.000511309
0.000511309
0.000511309
0.000511309
0.000511309
0.000511309
0.000511309
0.000511309
0.000511309
0.000511309
0.000511309
0.000511309
0.000511309
0.000511309
0.000511309
0.000511309
0.000511309
0.000511309
0.000511309
0.000511309
0.000511309
0.000511309
0.000511309
0.000511309
0.000511309
0.000511309
0.000511309
0.000511309
0.000511309
0.000511309
0.000511309
0.000511309
0.000511309
0.000511309
0.000511309
0.000511309
0.000511309
0.000511309
0.000511309
0.000511309
0.000511309
0.000511309
0.000511309
0.000511309
0.000511309
0.000511309
0.000511309
0.000511309
0.000511309
0.000511309
0.000511309
0.000511309
0.000511309
0.000511309
0.000511309
0.000511309
0.000511309
0.000511309
0.000511309
0.000511309
0.000511309
0.000511309
0.000511309
0.000511309
0.000511309
0.000511309
0.000511309
0.000511309
0.000511309
0.000511309
0.000511309
0.000511309
0.000511309
0.000511309
0.000511309
0.000511309
0.000511309
0.000511309
0.000511309
0.000511309
0.000511309
0.000511309
0.000511309
0.000511309
0.000511309
0.000511309
0.000511309
0.000511309
0.000511309
0.000511309
0.000511309
0.000511309
0.000511309
0.000511309
0.000511309
0.000511309
0.000511309
0.000511309
0.000511309
0.000511309
0.000511309
0.000511309
0.000511309
0.000511309
0.000511309
0.000511309
0.000511309
0.000511309
0.000511309
0.000511309
0.000511309
0.000511309
0.000511309
0.000511309
0.000511309
0.000511309
0.000511309
0.000511309
0.000511309
0.000511309
0.000511309
0.000511309
0.000511309
0.000511309
0.000511309
0.000511309
0.000511309
0.000511309
0.000511309
0.000511309
0.000511309
0.000511309
0.000511309
0.000511309
0.000511309
0.000511309
0.000511309
0.000511309
0.000511309
0.000511309
0.000511309
0.000511309
0.000511309
0.000511309
0.000511309
0.000511309
0.000511309
0.000511309
0.000511309
0.000511309
0.000511309
0.000511309
0.000511309
0.000511309
0.000511309
0.000511309
0.000511309
0.000511309
0.000511309
0.000511309
0.000511309
0.000511309
0.000511309
0.000511309
0.000511309
0.000511309
0.000511309
0.000511309
0.000511309
0.000511309
0.000511309
0.000511309
0.000511309
0.000511309
0.000511309
0.000511309
0.000511309
0.000511309
0.000511309
0.000511309
0.000511309
0.000511309
0.000511309
0.000511309
0.000511309
0.000511309
0.000511309
0.000511309
0.000511309
0.000511309
0.000511309
0.000511309
0.000511309
0.000511309
0.000511309
0.000511309
0.000511309
0.000511309
0.000511309
0.000511309
0.000511309
0.000511309
0.000511309
0.000511309
0.000511309
0.000511309
0.000511309
0.000511309
0.000511309
0.000511309
0.000511309
0.000511309
0.000511309
0.000511309
0.000511309
0.000511309
0.000511309
0.000511309
0.000511309
0.000511309
0.000511309
0.000511309
0.000511309
0.000511309
0.000511309
0.000511309
0.000511309
0.000511309
0.000511309
0.000511309
0.000511309
0.000511309
0.000511309
0.000511309
0.000511309
0.000511309
0.000511309
0.000511309
0.000511309
0.000511309
0.000511309
0.000511309
0.000511309
0.000511309
0.000511309
0.000511309
0.000511309
0.000511309
0.000511309
0.000511309
0.000511309
0.000511309
0.000511309
0.000511309
0.000511309
0.000511309
0.000511309
0.000511309
0.000511309
0.000511309
0.000511309
0.000511309
0.000511309
0.000511309
0.000511309
0.000511309
0.000511309
0.000511309
0.000511309
0.000511309
0.000511309
0.000511309
0.000511309
0.000511309
0.000511309
0.000511309
0.000511309
0.000511309
0.000511309
0.000511309
0.000511309
0.000511309
0.000511309
0.000511309
0.000511309
0.000511309
0.000511309
0.000511309
0.000511309
0.000511309
0.000511309
0.000511309
0.000511309
0.000511309
0.000511309
0.000511309
0.000511309
0.000511309
0.000511309
0.000511309
0.000511309
0.000511309
0.000511309
0.000511309
0.000511309
0.000511309
0.000511309
0.000511309
0.000511309
0.000511309
0.000511309
0.000511309
0.000511309
0.000511309
0.000511309
0.000511309
0.000511309
0.000511309
0.000511309
0.000511309
0.000511309
0.000511309
0.000511309
0.000511309
0.000511309
0.000511309
0.000511309
0.000511309
0.000511309
0.000511309
0.000511309
0.000511309
0.000511309
0.000511309
0.000511309
0.000511309
0.000511309
0.000511309
0.000511309
0.000511309
0.000511309
0.000511309
0.000511309
0.000511309
0.000511309
0.000511309
0.000511309
0.000511309
0.000511309
0.000511309
0.000511309
0.000511309
0.000511309
0.000511309
0.000511309
0.000511309
0.000511309
0.000511309
0.000511309
0.000511309
0.000511309
0.000511309
0.000511309
0.000511309
0.000511309
0.000511309
0.000511309
0.000511309
0.000511309
0.000511309
0.000511309
0.000511309
0.000511309
0.000511309
0.000511309
0.000511309
0.000511309
0.000511309
0.000511309
0.000511309
0.000511309
0.000511309
0.000511309
0.000511309
0.000511309
0.000511309
0.000511309
0.000511309
0.000511309
0.000511309
0.000511309
0.000511309
0.000511309
0.000511309
0.000511309
0.000511309
0.000511309
0.000511309
0.000511309
0.000511309
0.000511309
0.000511309
0.000511309
0.000511309
0.000511309
0.000511309
0.000511309
0.000511309
0.000511309
0.000511309
0.000511309
0.000511309
0.000511309
0.000511309
0.000511309
0.000511309
0.000511309
0.000511309
0.000511309
0.000511309
0.000511309
0.000511309
0.000511309
0.000511309
0.000511309
0.000511309
0.000511309
0.000511309
0.000511309
0.000511309
0.000511309
0.000511309
0.000511309
0.000511309
0.000511309
0.000511309
0.000511309
0.000511309
0.000511309
0.000511309
0.000511309
0.000511309
0.000511309
0.000511309
0.000511309
0.000511309
0.000511309
0.000511309
0.000511309
0.000511309
0.000511309
0.000511309
0.000511309
0.000511309
0.000511309
0.000511309
0.000511309
0.000511309
0.000511309
0.000511309
0.000511309
0.000511309
0.000511309
0.000511309
0.000511309
0.000511309
0.000511309
0.000511309
0.000511309
0.000511309
0.000511309
0.000511309
0.000511309
0.000511309
0.000511309
0.000511309
0.000511309
0.000511309
0.000511309
0.000511309
0.000511309
0.000511309
0.000511309
0.000511309
0.000511309
0.000511309
0.000511309
0.000511309
0.000511309
0.000511309
0.000511309
0.000511309
0.000511309
0.000511309
0.000511309
0.000511309
0.000511309
0.000511309
0.000511309
0.000511309
0.000511309
0.000511309
0.000511309
0.000511309
0.000511309
0.000511309
0.000511309
0.000511309
0.000511309
0.000511309
0.000511309
0.000511309
0.000511309
0.000511309
0.000511309
0.000511309
0.000511309
0.000511309
0.000511309
0.000511309
0.000511309
0.000511309
0.000511309
0.000511309
0.000511309
0.000511309
0.000511309
0.000511309
0.000511309
0.000511309
0.000511309
0.000511309
0.000511309
0.000511309
0.000511309
0.000511309
0.000511309
0.000511309
0.000511309
0.000511309
0.000511309
0.000511309
0.000511309
0.000511309
0.000511309
0.000511309
0.000511309
0.000511309
0.000511309
0.000511309
0.000511309
0.000511309
0.000511309
0.000511309
0.000511309
0.000511309
0.000511309
0.000511309
0.000511309
0.000511309
0.000511309
0.000511309
0.000511309
0.000511309
0.000511309
0.000511309
0.000511309
0.000511309
0.000511309
0.000511309
0.000511309
0.000511309
0.000511309
0.000511309
0.000511309
0.000511309
0.000511309
0.000511309
0.000511309
0.000511309
0.000511309
0.000511309
0.000511309
0.000511309
0.000511309
0.000511309
0.000511309
0.000511309
0.000511309
0.000511309
0.000511309
0.000511309
0.000511309
0.000511309
0.000511309
0.000511309
0.000511309
0.000511309
0.000511309
0.000511309
0.000511309
0.000511309
0.000511309
0.000511309
0.000511309
0.000511309
0.000511309
0.000511309
0.000511309
0.000511309
0.000511309
0.000511309
0.000511309
0.000511309
0.000511309
0.000511309
0.000511309
0.000511309
0.000511309
0.000511309
0.000511309
0.000511309
0.000511309
0.000511309
0.000511309
0.000511309
0.000511309
0.000511309
0.000511309
0.000511309
0.000511309
0.000511309
0.000511309
0.000511309
0.000511309
0.000511309
0.000511309
0.000511309
0.000511309
0.000511309
0.000511309
0.000511309
0.000511309
0.000511309
0.000511309
0.000511309
0.000511309
0.000511309
0.000511309
0.000511309
0.000511309
0.000511309
0.000511309
0.000511309
0.000511309
0.000511309
0.000511309
0.000511309
0.000511309
0.000511309
0.000511309
0.000511309
0.000511309
0.000511309
0.000511309
0.000511309
0.000511309
0.000511309
0.000511309
0.000511309
0.000511309
0.000511309
0.000511309
0.000511309
0.000511309
0.000511309
0.000511309
0.000511309
0.000511309
0.000511309
0.000511309
0.000511309
0.000511309
0.000511309
0.000511309
0.000511309
0.000511309
0.000511309
0.000511309
0.000511309
0.000511309
0.000511309
0.000511309
0.000511309
0.000511309
0.000511309
0.000511309
0.000511309
0.000511309
0.000511309
0.000511309
0.000511309
0.000511309
0.000511309
0.000511309
0.000511309
0.000511309
0.000511309
0.000511309
0.000511309
0.000511309
0.000511309
0.000511309
0.000511309
0.000511309
0.000511309
0.000511309
0.000511309
0.000511309
0.000511309
0.000511309
0.000511309
0.000511309
0.000511309
0.000511309
0.000511309
0.000511309
0.000511309
0.000511309
0.000511309
0.000511309
0.000511309
0.000511309
0.000511309
0.000511309
0.000511309
0.000511309
0.000511309
0.000511309
0.000511309
0.000511309
0.000511309
0.000511309
0.000511309
0.000511309
0.000511309
0.000511309
0.000511309
0.000511309
0.000511309
0.000511309
0.000511309
0.000511309
0.000511309
0.000511309
0.000511309
0.000511309
0.000511309
0.000511309
0.000511309
0.000511309
0.000511309
0.000511309
0.000511309
0.000511309
0.000511309
0.000511309
0.000511309
0.000511309
0.000511309
0.000511309
0.000511309
0.000511309
0.000511309
0.000511309
0.000511309
0.000511309
0.000511309
0.000511309
0.000511309
0.000511309
0.000511309
0.000511309
0.000511309
0.000511309
0.000511309
0.000511309
0.000511309
0.000511309
0.000511309
0.000511309
0.000511309
0.000511309
0.000511309
0.000511309
0.000511309
0.000511309
0.000511309
0.000511309
0.000511309
0.000511309
0.000511309
0.000511309
0.000511309
0.000511309
0.000511309
0.000511309
0.000511309
0.000511309
0.000511309
0.000511309
0.000511309
0.000511309
0.000511309
0.000511309
0.000511309
0.000511309
0.000511309
0.000511309
0.000511309
0.000511309
0.000511309
0.000511309
0.000511309
0.000511309
0.000511309
0.000511309
0.000511309
0.000511309
0.000511309
0.000511309
0.000511309
0.000511309
0.000511309
0.000511309
0.000511309
0.000511309
0.000511309
0.000511309
0.000511309
0.000511309
0.000511309
0.000511309
0.000511309
0.000511309
0.000511309
0.000511309
0.000511309
0.000511309
0.000511309
0.000511309
0.000511309
0.000511309
0.000511309
0.000511309
0.000511309
0.000511309
0.000511309
0.000511309
0.000511309
0.000511309
0.000511309
0.000511309
0.000511309
0.000511309
0.000511309
0.000511309
0.000511309
0.000511309
0.000511309
0.000511309
0.000511309
0.000511309
0.000511309
0.000511309
0.000511309
0.000511309
0.000511309
0.000511309
0.000511309
0.000511309
0.000511309
0.000511309
0.000511309
0.000511309
0.000511309
0.000511309
0.000511309
0.000511309
0.000511309
0.000511309
0.000511309
0.000511309
0.000511309
0.000511309
0.000511309
0.000511309
0.000511309
0.000511309
0.000511309
0.000511309
0.000511309
0.000511309
0.000511309
0.000511309
0.000511309
0.000511309
0.000511309
0.000511309
0.000511309
0.000511309
0.000511309
0.000511309
0.000511309
0.000511309
0.000511309
0.000511309
0.000511309
0.000511309
0.000511309
0.000511309
0.000511309
0.000511309
0.000511309
0.000511309
0.000511309
0.000511309
0.000511309
0.000511309
0.000511309
0.000511309
0.000511309
0.000511309
0.000511309
0.000511309
0.000511309
0.000511309
0.000511309
0.000511309
0.000511309
0.000511309
0.000511309
0.000511309
0.000511309
0.000511309
0.000511309
0.000511309
0.000511309
0.000511309
0.000511309
0.000511309
0.000511309
0.000511309
0.000511309
0.000511309
0.000511309
0.000511309
0.000511309
0.000511309
0.000511309
0.000511309
0.000511309
0.000511309
0.000511309
0.000511309
0.000511309
0.000511309
0.000511309
0.000511309
0.000511309
0.000511309
0.000511309
0.000511309
0.000511309
0.000511309
0.000511309
0.000511309
0.000511309
0.000511309
0.000511309
0.000511309
0.000511309
0.000511309
0.000511309
0.000511309
0.000511309
0.000511309
0.000511309
0.000511309
0.000511309
0.000511309
0.000511309
0.000511309
0.000511309
0.000511309
0.000511309
0.000511309
0.000511309
0.000511309
0.000511309
0.000511309
0.000511309
0.000511309
0.000511309
0.000511309
0.000511309
0.000511309
0.000511309
0.000511309
0.000511309
0.000511309
0.000511309
0.000511309
0.000511309
0.000511309
0.000511309
0.000511309
0.000511309
0.000511309
0.000511309
0.000511309
0.000511309
0.000511309
0.000511309
0.000511309
0.000511309
0.000511309
0.000511309
0.000511309
0.000511309
0.000511309
0.000511309
0.000511309
0.000511309
0.000511309
0.000511309
0.000511309
0.000511309
0.000511309
0.000511309
0.000511309
0.000511309
0.000511309
0.000511309
0.000511309
0.000511309
0.000511309
0.000511309
0.000511309
0.000511309
0.000511309
0.000511309
0.000511309
0.000511309
0.000511309
0.000511309
0.000511309
0.000511309
0.000511309
0.000511309
0.000511309
0.000511309
0.000511309
0.000511309
0.000511309
0.000511309
0.000511309
0.000511309
0.000511309
0.000511309
0.000511309
0.000511309
0.000511309
0.000511309
0.000511309
0.000511309
0.000511309
0.000511309
0.000511309
0.000511309
0.000511309
0.000511309
0.00051131
0.00051131
0.00051131
0.000511309
0.000511309
0.000511309
0.000511309
0.000511309
0.000511309
0.000511309
0.000511309
0.000511309
0.000511309
0.000511309
0.000511309
0.000511309
0.000511309
0.000511309
0.000511309
0.000511309
0.000511309
0.000511309
0.000511309
0.000511309
0.000511309
0.000511309
0.000511309
0.000511309
0.000511309
0.000511309
0.000511309
0.000511309
0.000511309
0.000511309
0.000511309
0.000511309
0.000511309
0.000511309
0.000511309
0.000511309
0.000511309
0.000511309
0.000511309
0.000511309
0.000511309
0.00051131
0.00051131
0.00051131
0.000511311
0.000511312
0.000511314
0.000511309
0.000511309
0.000511309
0.000511309
0.000511309
0.000511309
0.000511309
0.000511309
0.000511309
0.000511309
0.000511309
0.000511309
0.000511309
0.000511309
0.000511309
0.000511309
0.000511309
0.000511309
0.000511309
0.000511309
0.000511309
0.000511309
0.000511309
0.000511309
0.000511309
0.000511309
0.000511309
0.000511309
0.000511309
0.000511309
0.000511309
0.000511309
0.000511309
0.000511309
0.000511309
0.000511309
0.000511309
0.000511309
0.000511309
0.000511309
0.000511309
0.00051131
0.00051131
0.00051131
0.000511311
0.000511312
0.000511314
0.000511317
0.000511324
0.000511338
0.000511309
0.000511309
0.000511309
0.000511309
0.000511309
0.000511309
0.000511309
0.000511309
0.000511309
0.000511309
0.000511309
0.000511309
0.000511309
0.000511309
0.000511309
0.000511309
0.000511309
0.000511309
0.000511309
0.000511309
0.000511309
0.000511309
0.000511309
0.000511309
0.000511309
0.000511309
0.000511309
0.000511309
0.000511309
0.000511309
0.000511309
0.000511309
0.000511309
0.000511309
0.000511309
0.000511309
0.000511309
0.000511309
0.00051131
0.00051131
0.00051131
0.000511311
0.000511312
0.000511313
0.000511317
0.000511323
0.000511334
0.000511354
0.000511392
0.000511469
0.000511309
0.000511309
0.000511309
0.000511309
0.000511309
0.000511309
0.000511309
0.000511309
0.000511309
0.000511309
0.000511309
0.000511309
0.000511309
0.000511309
0.000511309
0.000511309
0.000511309
0.000511309
0.000511309
0.000511309
0.000511309
0.000511309
0.000511309
0.000511309
0.000511309
0.000511309
0.000511309
0.000511309
0.000511309
0.000511309
0.000511309
0.000511309
0.000511309
0.000511309
0.000511309
0.00051131
0.00051131
0.00051131
0.000511311
0.000511311
0.000511313
0.000511316
0.000511322
0.000511332
0.00051135
0.000511384
0.000511445
0.000511556
0.000511758
0.000512165
0.000511309
0.000511309
0.000511309
0.000511309
0.000511309
0.000511309
0.000511309
0.000511309
0.000511309
0.000511309
0.000511309
0.000511309
0.000511309
0.000511309
0.000511309
0.000511309
0.000511309
0.000511309
0.000511309
0.000511309
0.000511309
0.000511309
0.000511309
0.000511309
0.000511309
0.000511309
0.000511309
0.000511309
0.000511309
0.000511309
0.000511309
0.000511309
0.00051131
0.00051131
0.00051131
0.00051131
0.000511311
0.000511313
0.000511316
0.000511321
0.00051133
0.000511347
0.000511377
0.000511432
0.000511531
0.00051171
0.000512032
0.000512609
0.000513639
0.000515594
0.000511309
0.000511309
0.000511309
0.000511309
0.000511309
0.000511309
0.000511309
0.000511309
0.000511309
0.000511309
0.000511309
0.000511309
0.000511309
0.000511309
0.000511309
0.000511309
0.000511309
0.000511309
0.000511309
0.000511309
0.000511309
0.000511309
0.000511309
0.000511309
0.000511309
0.000511309
0.000511309
0.000511309
0.000511309
0.00051131
0.00051131
0.00051131
0.00051131
0.000511311
0.000511313
0.000511316
0.00051132
0.000511329
0.000511345
0.000511372
0.000511422
0.000511512
0.000511672
0.000511958
0.000512467
0.000513368
0.00051494
0.000517617
0.000522021
0.000529422
0.000511309
0.000511309
0.000511309
0.000511309
0.000511309
0.000511309
0.000511309
0.000511309
0.000511309
0.000511309
0.000511309
0.000511309
0.000511309
0.000511309
0.000511309
0.000511309
0.000511309
0.000511309
0.000511309
0.000511309
0.000511309
0.000511309
0.000511309
0.000511309
0.000511309
0.000511309
0.00051131
0.00051131
0.00051131
0.00051131
0.000511311
0.000511313
0.000511315
0.00051132
0.000511328
0.000511343
0.000511369
0.000511414
0.000511496
0.000511641
0.000511897
0.000512351
0.00051315
0.000514535
0.000516892
0.000520771
0.000526898
0.000536154
0.000549374
0.000568621
0.000511309
0.000511309
0.000511309
0.000511309
0.000511309
0.000511309
0.000511309
0.000511309
0.000511309
0.000511309
0.000511309
0.000511309
0.000511309
0.000511309
0.000511309
0.000511309
0.000511309
0.000511309
0.000511309
0.000511309
0.000511309
0.000511309
0.000511309
0.00051131
0.00051131
0.00051131
0.000511311
0.000511311
0.000511313
0.000511315
0.00051132
0.000511328
0.000511342
0.000511366
0.000511409
0.000511484
0.000511617
0.00051185
0.000512259
0.000512974
0.000514207
0.000516299
0.000519741
0.00052519
0.000533434
0.000545332
0.000561727
0.000583412
0.000610966
0.000648074
0.000511309
0.000511309
0.000511309
0.000511309
0.000511309
0.000511309
0.000511309
0.000511309
0.000511309
0.000511309
0.000511309
0.000511309
0.000511309
0.000511309
0.000511309
0.000511309
0.000511309
0.000511309
0.000511309
0.000511309
0.00051131
0.00051131
0.00051131
0.000511311
0.000511311
0.000511313
0.000511316
0.00051132
0.000511328
0.000511341
0.000511365
0.000511405
0.000511476
0.0005116
0.000511815
0.000512189
0.000512837
0.000513948
0.000515823
0.000518903
0.000523782
0.00053118
0.000541893
0.000556724
0.000576388
0.000601601
0.000633301
0.000673224
0.000721238
0.000785072
0.000511309
0.000511309
0.000511309
0.000511309
0.000511309
0.000511309
0.000511309
0.000511309
0.000511309
0.000511309
0.000511309
0.000511309
0.000511309
0.000511309
0.000511309
0.000511309
0.00051131
0.00051131
0.00051131
0.00051131
0.000511311
0.000511312
0.000511313
0.000511316
0.00051132
0.000511328
0.000511341
0.000511364
0.000511404
0.000511472
0.000511589
0.000511791
0.000512139
0.000512737
0.000513753
0.000515455
0.00051824
0.000522647
0.000529333
0.00053903
0.000552488
0.000570418
0.000593435
0.000622327
0.000658342
0.000702827
0.000756796
0.000823875
0.000909197
0.00103252
0.000511309
0.000511309
0.000511309
0.000511309
0.000511309
0.000511309
0.000511309
0.000511309
0.000511309
0.000511309
0.000511309
0.000511309
0.000511309
0.00051131
0.00051131
0.00051131
0.00051131
0.000511311
0.000511312
0.000511314
0.000511316
0.000511321
0.000511329
0.000511343
0.000511366
0.000511405
0.000511471
0.000511585
0.000511779
0.000512109
0.00051267
0.000513615
0.000515186
0.000517739
0.000521765
0.000527865
0.000536708
0.000548992
0.000565391
0.000586506
0.000612966
0.000645732
0.000686296
0.000735673
0.0007956
0.000870979
0.000969923
0.00110102
0.00126382
0.00146576
0.000511309
0.000511309
0.000511309
0.000511309
0.000511309
0.000511309
0.000511309
0.000511309
0.000511309
0.000511309
0.00051131
0.00051131
0.00051131
0.00051131
0.000511311
0.000511312
0.000511314
0.000511317
0.000511322
0.000511331
0.000511345
0.000511368
0.000511408
0.000511475
0.000511588
0.000511778
0.000512099
0.000512636
0.000513533
0.000515009
0.000517389
0.000521118
0.000526749
0.000534897
0.000546197
0.000561275
0.00058073
0.000605091
0.00063511
0.000672037
0.000717247
0.000771839
0.00083863
0.000924292
0.00103714
0.0011831
0.00136051
0.00155961
0.00175818
0.00194575
0.000511309
0.000511309
0.000511309
0.000511309
0.000511309
0.000511309
0.00051131
0.00051131
0.00051131
0.00051131
0.000511311
0.000511311
0.000511313
0.000511315
0.000511318
0.000511324
0.000511333
0.000511348
0.000511373
0.000511415
0.000511484
0.000511599
0.00051179
0.000512108
0.000512636
0.000513505
0.000514921
0.000517182
0.000520694
0.000525964
0.000533559
0.000544057
0.000558033
0.000576045
0.00059861
0.000626313
0.000660112
0.000701515
0.000751585
0.000811939
0.000887034
0.000984614
0.00111208
0.00127228
0.00145957
0.00165972
0.00185215
0.00201959
0.00214886
0.00224004
0.000511309
0.000511309
0.00051131
0.00051131
0.00051131
0.00051131
0.00051131
0.000511311
0.000511312
0.000511313
0.000511316
0.00051132
0.000511326
0.000511336
0.000511353
0.00051138
0.000511425
0.000511498
0.000511618
0.000511815
0.000512139
0.00051267
0.000513534
0.000514922
0.000517114
0.000520482
0.000525494
0.00053267
0.000542538
0.000555615
0.000572412
0.00059344
0.00061918
0.000650385
0.000688321
0.000734386
0.000789643
0.000856735
0.000941837
0.00105273
0.00119488
0.0013674
0.00156075
0.00175771
0.00193933
0.00208944
0.0022015
0.00227499
0.00231671
0.00233365
0.00051131
0.00051131
0.00051131
0.000511311
0.000511311
0.000511312
0.000511314
0.000511317
0.000511322
0.000511329
0.000511341
0.00051136
0.00051139
0.000511439
0.000511519
0.000511648
0.000511857
0.000512196
0.000512744
0.000513623
0.000515017
0.000517188
0.000520484
0.000525333
0.000532214
0.000541609
0.000553978
0.000569785
0.000589504
0.000613599
0.000642651
0.000677652
0.000720115
0.000771083
0.000832125
0.000907443
0.00100424
0.0011293
0.00128528
0.00146722
0.00166238
0.00185203
0.00201948
0.00215174
0.00224781
0.00230483
0.00233664
0.00234579
0.00234509
0.00234395
0.000511311
0.000511312
0.000511313
0.000511316
0.000511319
0.000511325
0.000511334
0.000511347
0.00051137
0.000511405
0.000511461
0.00051155
0.000511692
0.00051192
0.000512284
0.000512864
0.000513781
0.000515215
0.000517415
0.000520706
0.000525484
0.000532186
0.000541253
0.000553094
0.000568117
0.000586758
0.000609474
0.000636733
0.000669331
0.000708571
0.000755797
0.000812053
0.000879946
0.000965305
0.00107525
0.00121461
0.00138248
0.00157029
0.00176258
0.00194157
0.00209263
0.00220719
0.00228618
0.00233102
0.00235426
0.00235574
0.00235595
0.00235361
0.00234549
0.00233011
0.000511315
0.000511318
0.000511322
0.000511329
0.00051134
0.000511357
0.000511383
0.000511425
0.00051149
0.000511593
0.000511755
0.00051201
0.000512412
0.000513042
0.000514024
0.000515535
0.000517814
0.000521168
0.000525963
0.000532597
0.000541468
0.000552942
0.000567374
0.000585157
0.000606723
0.000632511
0.000663141
0.000699678
0.000743614
0.00079589
0.000858138
0.000934519
0.00103171
0.00115566
0.00130845
0.00148534
0.00167476
0.00185987
0.00202507
0.00215811
0.00225665
0.00231911
0.00235361
0.00236724
0.0023668
0.00236692
0.00236231
0.00235171
0.00233531
0.0023144
0.00228746
0.000511335
0.000511349
0.00051137
0.000511403
0.000511453
0.000511532
0.000511653
0.000511843
0.000512136
0.000512592
0.000513296
0.000514373
0.000516001
0.000518414
0.000521901
0.0005268
0.00053347
0.000542269
0.000553523
0.000567537
0.000584663
0.000605306
0.000629889
0.000658914
0.000693262
0.000734283
0.000783169
0.000840989
0.000910494
0.000997333
0.00110782
0.00124582
0.00141
0.00159221
0.00177857
0.0019528
0.00210181
0.00221705
0.00229874
0.00234691
0.00237386
0.00237876
0.00237794
0.00237677
0.00237046
0.00235795
0.00234005
0.00231747
0.00229128
0.00226415
0.00223486
0.00051139
0.000511431
0.000511494
0.000511591
0.000511739
0.000511966
0.000512313
0.000512843
0.000513648
0.000514858
0.000516652
0.000519259
0.000522952
0.000528039
0.000534846
0.000543689
0.000554853
0.000568608
0.00058526
0.000605182
0.000628797
0.000656531
0.000689108
0.000727702
0.000773675
0.000827869
0.000892136
0.000970797
0.00106996
0.00119448
0.00134544
0.00151788
0.00170102
0.00187978
0.0020401
0.00217099
0.00226947
0.00233472
0.00237191
0.00238889
0.00238953
0.00239028
0.00238677
0.00237759
0.00236339
0.00234464
0.00232125
0.00229515
0.00226794
0.00224008
0.00221261
0.00218405
0.000511676
0.000511861
0.00051214
0.000512561
0.000513193
0.000514135
0.000515524
0.000517541
0.000520407
0.000524382
0.000529744
0.000536783
0.000545775
0.00055697
0.000570602
0.000586942
0.000606339
0.00062919
0.000655905
0.000687078
0.000723712
0.000767173
0.000818379
0.000878564
0.000950877
0.0010408
0.00115362
0.00129191
0.00145345
0.00163015
0.00180937
0.00197659
0.00212045
0.00223317
0.00231492
0.00236488
0.00239397
0.00240177
0.00240117
0.00240066
0.00239557
0.00238494
0.00236944
0.00234946
0.00232523
0.00229937
0.00227257
0.00224531
0.00221807
0.00219096
0.00216452
0.00213723
0.00051291
0.00051368
0.000514806
0.00051643
0.000518736
0.000521937
0.000526273
0.000531995
0.000539354
0.000548592
0.000559925
0.000573557
0.000589729
0.000608769
0.000631058
0.000656987
0.000687057
0.000722149
0.000763516
0.000812218
0.000869155
0.000936611
0.00101918
0.00112218
0.00124905
0.00139952
0.00156802
0.00174427
0.00191484
0.00206747
0.00219302
0.00228842
0.00235348
0.00239159
0.00241102
0.00241296
0.00241397
0.00241138
0.00240357
0.00239124
0.00237476
0.00235384
0.00232972
0.00230419
0.0022777
0.00225096
0.00222428
0.00219778
0.00217156
0.00214558
0.00212027
0.00209422
0.00051766
0.000520331
0.000523948
0.000528727
0.000534889
0.00054265
0.00055222
0.000563785
0.000577525
0.000593656
0.000612491
0.000634397
0.000659752
0.000688987
0.000722883
0.000762583
0.000809235
0.000863562
0.000927269
0.00100409
0.00109905
0.00121606
0.00135609
0.00151571
0.00168666
0.00185736
0.0020152
0.00215082
0.00225773
0.00233624
0.00238582
0.00241526
0.00242481
0.00242478
0.0024251
0.00242085
0.0024115
0.00239805
0.00238046
0.00235852
0.00233448
0.00230927
0.00228334
0.00225718
0.00223103
0.00220506
0.00217932
0.00215385
0.0021287
0.00210381
0.00207955
0.00205464
0.000531862
0.000538538
0.000546775
0.000556752
0.000568631
0.000582573
0.000598778
0.000617544
0.00063923
0.000664202
0.000692842
0.000725847
0.000764266
0.000809281
0.000861535
0.000922335
0.000994697
0.00108324
0.00119201
0.00132272
0.00147349
0.00163794
0.0018062
0.00196649
0.00210864
0.00222555
0.0023148
0.00237665
0.00241371
0.00243355
0.0024366
0.00243774
0.00243589
0.0024293
0.00241853
0.00240409
0.0023855
0.00236338
0.00233972
0.00231483
0.0022894
0.00226383
0.00223827
0.00221283
0.00218758
0.00216256
0.00213781
0.00211333
0.00208918
0.00206529
0.00204204
0.00201822
0.000562293
0.000574557
0.000588783
0.000605162
0.000623985
0.000645602
0.000670363
0.000698625
0.000731015
0.000768506
0.000812245
0.000862893
0.000921467
0.000990431
0.00107395
0.00117601
0.00129872
0.00144123
0.00159879
0.00176294
0.00192319
0.00206912
0.00219345
0.00229146
0.00236359
0.00241017
0.00243808
0.00244791
0.00244864
0.00244944
0.00244572
0.00243738
0.00242564
0.00241004
0.00239042
0.0023684
0.00234502
0.00232062
0.00229582
0.00227085
0.00224589
0.00222101
0.00219628
0.00217172
0.00214738
0.00212328
0.00209945
0.00207591
0.00205271
0.0020298
0.00200752
0.00198476
0.000612893
0.000631889
0.000653579
0.000678294
0.000706369
0.000738391
0.000775276
0.000818108
0.000867553
0.00092445
0.000990894
0.00107058
0.00116731
0.00128339
0.00141857
0.00156929
0.00172847
0.00188679
0.00203432
0.00216323
0.00226846
0.00234866
0.00240445
0.00243848
0.00245665
0.00246015
0.0024615
0.00246019
0.00245437
0.00244483
0.00243207
0.00241562
0.00239544
0.00237366
0.0023506
0.00232675
0.00230254
0.00227819
0.00225382
0.00222951
0.00220531
0.00218125
0.00215735
0.00213364
0.00211016
0.00208694
0.002064
0.00204137
0.00201911
0.00199715
0.00197582
0.00195411
0.000716145
0.000748026
0.000784599
0.000826878
0.000875496
0.000931189
0.000995813
0.00107268
0.00116533
0.00127606
0.00140498
0.00154934
0.00170324
0.00185835
0.00200555
0.00213686
0.00224714
0.0023335
0.00239669
0.0024379
0.00246233
0.00247111
0.00247242
0.00247337
0.00246992
0.00246235
0.00245195
0.00243805
0.00242049
0.00240043
0.00237898
0.00235628
0.00233305
0.00230951
0.0022858
0.00226205
0.00223831
0.00221464
0.00219107
0.00216763
0.00214435
0.00212125
0.00209836
0.00207571
0.00205335
0.00203129
0.00200956
0.00198822
0.0019672
0.00194681
0.00192612
0.000838609
0.000886753
0.000941665
0.00100507
0.00107998
0.00116965
0.00127621
0.00139995
0.00153865
0.00168726
0.00183844
0.00198384
0.0021158
0.00222888
0.0023199
0.00238869
0.0024363
0.00246539
0.00248023
0.00248358
0.00248497
0.00248395
0.00247851
0.00246978
0.00245835
0.00244369
0.00242543
0.00240552
0.00238431
0.00236218
0.00233955
0.00231663
0.00229358
0.00227046
0.00224732
0.00222421
0.00220115
0.00217818
0.00215533
0.00213262
0.0021101
0.00208778
0.0020657
0.00204388
0.00202237
0.00200118
0.00198034
0.0019599
0.00193981
0.00192036
0.00190066
0.00101865
0.00109236
0.00118001
0.00128349
0.00140307
0.00153685
0.00168044
0.00182731
0.00196986
0.00210088
0.00221498
0.00230893
0.00238159
0.00243403
0.00246808
0.00248753
0.00249427