/*--------------------------------*- C++ -*----------------------------------*\
| =========                 |                                                 |
| \\      /  F ield         | OpenFOAM: The Open Source CFD Toolbox           |
|  \\    /   O peration     | Version:  v1706                                 |
|   \\  /    A nd           | Web:      www.OpenFOAM.com                      |
|    \\/     M anipulation  |                                                 |
\*---------------------------------------------------------------------------*/
FoamFile
{
    version     2.0;
    format      ascii;
    class       volScalarField;
    location    "8e-06";
    object      Tov;
}
// * * * * * * * * * * * * * * * * * * * * * * * * * * * * * * * * * * * * * //

dimensions      [0 0 0 1 0 0 0];


internalField   nonuniform List<scalar> 
30038
(
144.4
144.4
144.4
144.4
144.4
144.4
144.4
144.4
144.4
144.4
144.4
144.4
144.4
144.4
144.4
144.4
144.4
144.4
144.4
144.4
144.4
144.4
144.4
144.4
144.4
144.4
144.4
144.4
144.4
144.4
144.4
144.4
144.4
144.4
144.4
144.4
144.4
144.4
144.4
144.4
144.4
144.4
144.4
144.4
144.4
144.4
144.4
144.4
144.4
144.4
144.4
144.4
144.4
144.4
144.4
144.4
144.4
144.4
144.4
144.4
144.4
144.4
144.4
144.4
144.4
144.4
144.4
144.4
144.4
144.4
144.4
144.4
144.4
144.4
144.4
144.4
144.4
144.4
144.4
144.4
144.4
144.4
144.4
144.4
144.4
144.4
144.4
144.4
144.4
144.4
144.4
144.4
144.4
144.4
144.4
144.4
144.4
144.4
144.4
144.4
144.4
144.4
144.4
144.4
144.4
144.4
144.4
144.4
144.4
144.4
144.4
144.4
144.4
144.4
144.4
144.4
144.4
144.4
144.4
144.4
144.4
144.4
144.4
144.4
144.4
144.4
144.4
144.4
144.4
144.4
144.4
144.4
144.4
144.4
144.4
144.4
144.4
144.4
144.4
144.4
144.4
144.4
144.4
144.4
144.4
144.4
144.4
144.4
144.4
144.4
144.4
144.4
144.4
144.4
144.4
144.4
144.4
144.4
144.4
144.4
144.4
144.4
144.4
144.4
144.4
144.4
144.4
144.4
144.4
144.4
144.4
144.4
144.4
144.4
144.4
144.4
144.4
144.4
144.4
144.4
144.4
144.4
144.4
144.4
144.4
144.4
144.4
144.4
144.4
144.4
144.4
144.4
144.4
144.4
144.4
144.4
144.4
144.4
144.4
144.4
144.4
144.4
144.4
144.4
144.4
144.4
144.4
144.4
144.4
144.4
144.4
144.4
144.4
144.4
144.4
144.4
144.4
144.4
144.4
144.4
144.4
144.4
144.4
144.4
144.4
144.4
144.4
144.4
144.4
144.4
144.4
144.4
144.4
144.4
144.4
144.4
144.4
144.4
144.4
144.4
144.4
144.4
144.4
144.4
144.4
144.4
144.4
144.4
144.4
144.4
144.4
144.4
144.4
144.4
144.4
144.4
144.4
144.4
144.4
144.4
144.4
144.4
144.4
144.4
144.4
144.4
144.4
144.4
144.4
144.4
144.4
144.4
144.4
144.4
144.4
144.4
144.4
144.4
144.4
144.4
144.4
144.4
144.4
144.4
144.4
144.4
144.4
144.4
144.4
144.4
144.4
144.4
144.4
144.4
144.4
144.4
144.4
144.4
144.4
144.4
144.4
144.4
144.4
144.4
144.4
144.4
144.4
144.4
144.4
144.4
144.4
144.4
144.4
144.4
144.4
144.4
144.4
144.4
144.4
144.4
144.4
144.4
144.4
144.4
144.4
144.4
144.4
144.4
144.4
144.4
144.4
144.4
144.4
144.4
144.4
144.4
144.4
144.4
144.4
144.4
144.4
144.4
144.4
144.4
144.4
144.4
144.4
144.4
144.4
144.4
144.4
144.4
144.4
144.4
144.4
144.4
144.4
144.4
144.4
144.4
144.4
144.4
144.4
144.4
144.4
144.4
144.4
144.4
144.4
144.4
144.4
144.4
144.4
144.4
144.4
144.4
144.4
144.4
144.4
144.4
144.4
144.4
144.4
144.4
144.4
144.4
144.4
144.4
144.4
144.4
144.4
144.4
144.4
144.4
144.4
144.4
144.4
144.4
144.4
144.4
144.4
144.4
144.4
144.4
144.4
144.4
144.4
144.4
144.4
144.4
144.4
144.4
144.4
144.4
144.4
144.4
144.4
144.4
144.4
144.4
144.4
144.4
144.4
144.4
144.4
144.4
144.4
144.4
144.4
144.4
144.4
144.4
144.4
144.4
144.4
144.4
144.4
144.4
144.4
144.4
144.4
144.4
144.4
144.4
144.4
144.4
144.4
144.4
144.4
144.4
144.4
144.4
144.4
144.4
144.4
144.4
144.4
144.4
144.4
144.4
144.4
144.4
144.4
144.4
144.4
144.4
144.4
144.4
144.4
144.4
144.4
144.4
144.4
144.4
144.4
144.4
144.4
144.4
144.4
144.4
144.4
144.4
144.4
144.4
144.4
144.4
144.4
144.4
144.4
144.4
144.4
144.4
144.4
144.4
144.4
144.4
144.4
144.4
144.4
144.4
144.4
144.4
144.4
144.4
144.4
144.4
144.4
144.4
144.4
144.4
144.4
144.4
144.4
144.4
144.4
144.4
144.4
144.4
144.4
144.4
144.4
144.4
144.4
144.4
144.4
144.4
144.4
144.4
144.4
144.4
144.4
144.4
144.4
144.4
144.4
144.4
144.4
144.4
144.4
144.4
144.4
144.4
144.4
144.4
144.4
144.4
144.4
144.4
144.4
144.4
144.4
144.4
144.4
144.4
144.4
144.4
144.4
144.4
144.4
144.4
144.4
144.4
144.4
144.4
144.4
144.4
144.4
144.4
144.4
144.4
144.4
144.4
144.4
144.4
144.4
144.4
144.4
144.4
144.4
144.4
144.4
144.4
144.4
144.4
144.4
144.4
144.4
144.4
144.4
144.4
144.4
144.4
144.4
144.4
144.4
144.4
144.4
144.4
144.4
144.4
144.4
144.4
144.4
144.4
144.4
144.4
144.4
144.4
144.4
144.4
144.4
144.4
144.4
144.4
144.4
144.4
144.4
144.4
144.4
144.4
144.4
144.4
144.4
144.4
144.4
144.4
144.4
144.4
144.4
144.4
144.4
144.4
144.4
144.4
144.4
144.4
144.4
144.4
144.4
144.4
144.4
144.4
144.4
144.4
144.4
144.4
144.4
144.4
144.4
144.4
144.4
144.4
144.4
144.4
144.4
144.4
144.4
144.4
144.4
144.4
144.4
144.4
144.4
144.4
144.4
144.4
144.4
144.4
144.4
144.4
144.4
144.4
144.4
144.4
144.4
144.4
144.4
144.4
144.4
144.4
144.4
144.4
144.4
144.4
144.4
144.4
144.4
144.4
144.4
144.4
144.4
144.4
144.4
144.4
144.4
144.4
144.4
144.4
144.4
144.4
144.4
144.4
144.4
144.4
144.4
144.4
144.4
144.4
144.4
144.4
144.4
144.4
144.4
144.4
144.4
144.4
144.4
144.4
144.4
144.4
144.4
144.4
144.4
144.4
144.4
144.4
144.4
144.4
144.4
144.4
144.4
144.4
144.4
144.4
144.4
144.4
144.4
144.4
144.4
144.4
144.4
144.4
144.4
144.4
144.4
144.4
144.4
144.4
144.4
144.4
144.4
144.4
144.4
144.4
144.4
144.4
144.4
144.4
144.4
144.4
144.4
144.4
144.4
144.4
144.4
144.4
144.4
144.4
144.4
144.4
144.4
144.4
144.4
144.4
144.4
144.4
144.4
144.4
144.4
144.4
144.4
144.4
144.4
144.4
144.4
144.4
144.4
144.4
144.4
144.4
144.4
144.4
144.4
144.4
144.4
144.4
144.4
144.4
144.4
144.4
144.4
144.4
144.4
144.4
144.4
144.4
144.4
144.4
144.4
144.4
144.4
144.4
144.4
144.4
144.4
144.4
144.4
144.4
144.4
144.4
144.4
144.4
144.4
144.4
144.4
144.4
144.4
144.4
144.4
144.4
144.4
144.4
144.4
144.4
144.4
144.4
144.4
144.4
144.4
144.4
144.4
144.4
144.4
144.4
144.4
144.4
144.4
144.4
144.4
144.4
144.4
144.4
144.4
144.4
144.4
144.4
144.4
144.4
144.4
144.4
144.4
144.4
144.4
144.4
144.4
144.4
144.4
144.4
144.4
144.4
144.4
144.4
144.4
144.4
144.4
144.4
144.4
144.4
144.4
144.4
144.4
144.4
144.4
144.4
144.4
144.4
144.4
144.4
144.4
144.4
144.4
144.4
144.4
144.4
144.4
144.4
144.4
144.4
144.4
144.4
144.4
144.4
144.4
144.4
144.4
144.4
144.4
144.4
144.4
144.4
144.4
144.4
144.4
144.4
144.4
144.4
144.4
144.4
144.4
144.4
144.4
144.4
144.4
144.4
144.4
144.4
144.4
144.4
144.4
144.4
144.4
144.4
144.4
144.4
144.4
144.4
144.4
144.4
144.4
144.4
144.4
144.4
144.4
144.4
144.4
144.4
144.4
144.4
144.4
144.4
144.4
144.4
144.4
144.4
144.4
144.4
144.4
144.4
144.4
144.4
144.4
144.4
144.4
144.4
144.4
144.4
144.4
144.4
144.4
144.4
144.4
144.4
144.4
144.4
144.4
144.4
144.4
144.4
144.4
144.4
144.4
144.4
144.4
144.4
144.4
144.4
144.4
144.4
144.4
144.4
144.4
144.4
144.4
144.4
144.4
144.4
144.4
144.4
144.4
144.4
144.4
144.4
144.4
144.4
144.4
144.4
144.4
144.4
144.4
144.4
144.4
144.4
144.4
144.4
144.4
144.4
144.4
144.4
144.4
144.4
144.4
144.4
144.4
144.4
144.4
144.4
144.4
144.4
144.4
144.4
144.4
144.4
144.4
144.4
144.4
144.4
144.4
144.4
144.4
144.4
144.4
144.4
144.4
144.4
144.4
144.401
144.4
144.4
144.4
144.4
144.4
144.4
144.4
144.4
144.4
144.4
144.4
144.4
144.4
144.4
144.4
144.4
144.4
144.4
144.4
144.4
144.4
144.4
144.4
144.4
144.4
144.4
144.4
144.4
144.4
144.4
144.4
144.4
144.4
144.4
144.4
144.4
144.4
144.4
144.4
144.4
144.4
144.4
144.4
144.4
144.401
144.401
144.402
144.404
144.4
144.4
144.4
144.4
144.4
144.4
144.4
144.4
144.4
144.4
144.4
144.4
144.4
144.4
144.4
144.4
144.4
144.4
144.4
144.4
144.4
144.4
144.4
144.4
144.4
144.4
144.4
144.4
144.4
144.4
144.4
144.4
144.4
144.4
144.4
144.4
144.4
144.4
144.4
144.4
144.4
144.401
144.401
144.402
144.404
144.407
144.414
144.427
144.4
144.4
144.4
144.4
144.4
144.4
144.4
144.4
144.4
144.4
144.4
144.4
144.4
144.4
144.4
144.4
144.4
144.4
144.4
144.4
144.4
144.4
144.4
144.4
144.4
144.4
144.4
144.4
144.4
144.4
144.4
144.4
144.4
144.4
144.4
144.4
144.4
144.4
144.4
144.4
144.401
144.401
144.402
144.404
144.407
144.413
144.424
144.444
144.484
144.565
144.4
144.4
144.4
144.4
144.4
144.4
144.4
144.4
144.4
144.4
144.4
144.4
144.4
144.4
144.4
144.4
144.4
144.4
144.4
144.4
144.4
144.4
144.4
144.4
144.4
144.4
144.4
144.4
144.4
144.4
144.4
144.4
144.4
144.4
144.4
144.4
144.4
144.401
144.401
144.402
144.404
144.407
144.412
144.422
144.441
144.477
144.543
144.666
144.9
145.371
144.4
144.4
144.4
144.4
144.4
144.4
144.4
144.4
144.4
144.4
144.4
144.4
144.4
144.4
144.4
144.4
144.4
144.4
144.4
144.4
144.4
144.4
144.4
144.4
144.4
144.4
144.4
144.4
144.4
144.4
144.4
144.4
144.4
144.4
144.401
144.401
144.402
144.404
144.406
144.412
144.421
144.439
144.472
144.532
144.644
144.851
145.235
145.95
147.291
149.912
144.4
144.4
144.4
144.4
144.4
144.4
144.4
144.4
144.4
144.4
144.4
144.4
144.4
144.4
144.4
144.4
144.4
144.4
144.4
144.4
144.4
144.4
144.4
144.4
144.4
144.4
144.4
144.4
144.4
144.4
144.4
144.401
144.401
144.402
144.404
144.406
144.411
144.421
144.438
144.468
144.525
144.628
144.817
145.165
145.805
146.981
149.138
153.073
160.204
173.135
144.4
144.4
144.4
144.4
144.4
144.4
144.4
144.4
144.4
144.4
144.4
144.4
144.4
144.4
144.4
144.4
144.4
144.4
144.4
144.4
144.4
144.4
144.4
144.4
144.4
144.4
144.4
144.4
144.401
144.401
144.402
144.404
144.406
144.411
144.42
144.437
144.466
144.519
144.615
144.79
145.109
145.691
146.752
148.682
152.17
158.402
169.311
187.797
217.783
263.883
144.4
144.4
144.4
144.4
144.4
144.4
144.4
144.4
144.4
144.4
144.4
144.4
144.4
144.4
144.4
144.4
144.4
144.4
144.4
144.4
144.4
144.4
144.4
144.4
144.4
144.401
144.401
144.402
144.404
144.407
144.412
144.42
144.436
144.465
144.515
144.607
144.771
145.068
145.603
146.572
148.319
151.455
157.027
166.741
183.174
209.775
250.448
308.658
386.484
483.778
144.4
144.4
144.4
144.4
144.4
144.4
144.4
144.4
144.4
144.4
144.4
144.4
144.4
144.4
144.4
144.4
144.4
144.4
144.4
144.4
144.4
144.4
144.401
144.401
144.402
144.404
144.407
144.412
144.421
144.437
144.465
144.514
144.602
144.759
145.039
145.541
146.438
148.042
150.897
155.935
164.681
179.454
203.421
240.276
293.441
365.051
455.275
562.335
683.25
814.086
144.4
144.4
144.4
144.4
144.4
144.4
144.4
144.4
144.4
144.4
144.4
144.4
144.4
144.4
144.4
144.4
144.4
144.4
144.401
144.401
144.401
144.403
144.404
144.407
144.413
144.422
144.438
144.466
144.516
144.602
144.755
145.025
145.503
146.349
147.845
150.486
155.107
163.079
176.498
198.273
231.89
280.745
347.199
431.822
533.236
648.578
774.256
906.587
1041.8
1176.54
144.4
144.4
144.4
144.4
144.4
144.4
144.4
144.4
144.4
144.4
144.4
144.4
144.4
144.4
144.4
144.401
144.401
144.402
144.403
144.405
144.408
144.414
144.424
144.441
144.47
144.52
144.608
144.76
145.026
145.491
146.304
147.729
150.215
154.527
161.907
174.261
194.258
225.168
270.303
332.166
411.682
507.938
618.485
739.992
868.863
1001.45
1134.1
1263.78
1387.5
1502.47
144.4
144.4
144.4
144.4
144.4
144.4
144.4
144.4
144.4
144.4
144.4
144.4
144.401
144.401
144.402
144.403
144.406
144.409
144.416
144.426
144.445
144.475
144.528
144.619
144.774
145.042
145.505
146.307
147.692
150.084
154.188
161.146
172.706
191.326
220.059
262.087
319.964
394.872
486.291
592.187
709.558
835.025
965.211
1096.63
1226.04
1350.59
1467.21
1572.29
1662.17
1736.07
144.4
144.4
144.4
144.4
144.4
144.4
144.4
144.4
144.401
144.401
144.402
144.402
144.404
144.407
144.411
144.418
144.43
144.45
144.484
144.541
144.637
144.8
145.078
145.551
146.36
147.741
150.096
154.089
160.787
171.811
189.438
216.514
256.064
310.617
381.511
468.528
570.005
683.268
805.189
932.596
1062.32
1191.15
1316.27
1434.99
1544.11
1640.03
1719.93
1783.27
1831.31
1867.73
144.4
144.4
144.4
144.4
144.4
144.401
144.401
144.402
144.403
144.405
144.408
144.413
144.422
144.436
144.458
144.496
144.559
144.664
144.84
145.136
145.633
146.471
147.884
150.262
154.243
160.839
171.576
188.579
214.507
252.21
304.132
371.678
454.84
552.257
661.571
779.91
904.295
1031.84
1159.54
1284.55
1404.39
1516.37
1617.22
1703.72
1774.08
1828.65
1869.5
1899.74
1922.12
1939.63
144.4
144.401
144.401
144.402
144.403
144.404
144.407
144.41
144.417
144.427
144.443
144.47
144.514
144.586
144.704
144.899
145.223
145.76
146.653
148.138
150.604
154.676
161.333
172.03
188.772
214.05
250.529
300.526
365.432
445.365
539.191
644.834
759.674
880.942
1005.94
1131.99
1256.31
1376.46
1490.1
1594.47
1686.37
1763.29
1824.48
1871.13
1905.75
1931.21
1950.19
1964.96
1976.88
1986.97
144.402
144.404
144.405
144.409
144.414
144.421
144.434
144.454
144.486
144.539
144.623
144.76
144.983
145.348
145.945
146.924
148.53
151.158
155.436
162.327
173.241
190.088
215.208
251.08
299.856
362.85
440.226
531.008
633.349
744.881
863.043
985.319
1109.29
1232.4
1352.2
1466.54
1573.11
1669.07
1751.58
1819
1871.56
1911.05
1940.19
1961.6
1977.76
1990.4
2000.77
2009.49
2017.78
2025.72
144.412
144.418
144.428
144.444
144.47
144.51
144.574
144.676
144.84
145.103
145.526
146.21
147.315
149.102
151.982
156.598
163.918
175.325
192.658
218.117
253.992
302.241
364.048
439.555
527.882
627.363
735.857
851.015
970.503
1092.1
1213.53
1332.45
1446.75
1554.44
1653.1
1739.98
1812.88
1871.12
1915.72
1948.86
1973.17
1991.1
2004.86
2015.71
2024.58
2032.44
2040.08
2046.83
2052.8
2058.44
144.439
144.46
144.493
144.544
144.625
144.752
144.954
145.272
145.779
146.585
147.869
149.914
153.159
158.276
166.253
178.465
196.691
223
259.486
307.887
369.211
443.526
529.995
627.09
732.867
845.19
961.911
1080.97
1200.37
1317.93
1431.59
1539.52
1639.71
1729.69
1807.07
1870.43
1920.01
1957.36
1984.89
2005.03
2020.02
2031.6
2040.84
2048.51
2055.64
2062.53
2068.29
2073.63
2078.54
2083.15
2087.8
144.595
144.7
144.863
145.118
145.516
146.14
147.118
148.653
151.059
154.816
160.638
169.547
182.924
202.491
230.185
267.89
317.097
378.606
452.37
537.555
632.737
736.145
845.846
959.874
1076.34
1193.43
1309.23
1421.76
1529.26
1630
1721.89
1802.58
1870.25
1924.41
1965.98
1996.88
2019.5
2036.01
2048.46
2058.15
2065.97
2072.62
2079.02
2085
2090.08
2094.76
2099.06
2103.2
2107.38
2111.67
2116.08
145.027
145.359
145.87
146.66
147.88
149.767
152.676
157.14
163.929
174.111
189.074
210.483
240.124
279.65
330.285
392.592
466.386
550.81
644.522
745.902
853.204
964.647
1078.51
1193.13
1306.85
1417.82
1524.34
1624.85
1717.62
1800.49
1871.5
1929.58
1975.06
2009.36
2034.58
2052.93
2066.39
2076.62
2084.6
2091.04
2096.94
2102.73
2107.58
2111.99
2116.13
2119.93
2123.63
2127.42
2131.31
2135.25
2139.26
2143.33
147.419
148.983
151.363
154.97
160.403
168.499
180.376
197.424
221.231
253.405
295.341
347.974
411.62
485.944
570.055
662.681
762.339
867.456
976.434
1087.71
1199.77
1311.16
1420.21
1525.29
1624.96
1717.72
1801.73
1875.04
1936.25
1985.14
2022.65
2050.49
2070.77
2085.43
2096.28
2104.56
2111.07
2116.38
2121.51
2126.42
2130.49
2134.28
2137.76
2141.04
2144.36
2147.82
2151.33
2154.9
2158.51
2162.12
2165.71
2169.3
158.251
165.005
174.848
188.94
208.654
235.463
270.763
315.66
370.789
436.218
511.468
595.618
687.463
785.65
888.768
995.389
1104.1
1213.55
1322.41
1429.24
1532.49
1630.8
1722.87
1807.11
1881.73
1945.18
1996.82
2037.13
2067.45
2089.66
2105.69
2117.24
2125.82
2132.36
2137.47
2141.97
2146.46
2150.24
2153.61
2156.8
2159.7
2162.5
2165.42
2168.48
2171.61
2174.85
2178.11
2181.36
2184.57
2187.72
2190.8
2193.8
200.607
223.64
254.084
293.079
341.418
399.435
466.969
543.418
627.848
719.123
816.018
917.274
1021.62
1127.79
1234.57
1340.77
1445.12
1546.21
1642.74
1733.53
1817.25
1892.27
1957.05
2010.69
2053.27
2085.79
2109.81
2127.17
2139.54
2148.47
2155.12
2160.13
2164.01
2167.8
2171.5
2174.37
2177.1
2179.62
2181.93
2184.3
2186.83
2189.47
2192.21
2195.06
2197.95
2200.86
2203.75
2206.56
2209.28
2211.88
2214.34
2216.68
321.353
373.5
434.66
504.478
582.264
667.091
757.906
853.607
953.078
1055.2
1158.83
1262.89
1366.31
1467.98
1566.6
1660.98
1750.01
1832.57
1907.21
1972.48
2027.33
2071.55
2105.83
2131.42
2150
2163.24
2172.56
2179.28
2184.19
2187.81
2190.85
2193.96
2196.55
2198.76
2200.88
2202.74
2204.53
2206.46
2208.56
2210.78
2213.14
2215.6
2218.11
2220.64
2223.17
2225.65
2228.05
2230.33
2232.47
2234.43
2236.22
2237.82
549.328
628.443
713.663
804.024
898.546
996.246
1096.13
1197.2
1298.48
1399.01
1497.8
1593.71
1685.6
1772.48
1853.34
1926.94
1991.92
2047.21
2092.4
2127.9
2154.75
2174.38
2188.36
2198.1
2204.9
2209.74
2213.11
2215.54
2217.89
2220.24
2221.87
2223.46
2224.9
2226.15
2227.47
2228.98
2230.63
2232.43
2234.39
2236.44
2238.56
2240.72
2242.88
2245
2247.06
2249.03
2250.86
2252.53
2254.01
2255.28
2256.33
2257.14
857.64
950.917
1046.8
1144.4
1242.84
1341.25
1438.78
1534.53
1627.49
1716.61
1800.97
1879.68
1951.67
2015.69
2070.71
2116.19
2152.35
2180.02
2200.41
2214.97
2225.11
2231.99
2236.7
2239.85
2241.91
2243.49
2245.18
2246.51
2247.46
2248.42
2249.18
2249.89
2250.75
2251.81
2253.03
2254.42
2255.95
2257.59
2259.31
2261.08
2262.87
2264.63
2266.35
2267.98
2269.49
2270.86
2272.06
2273.06
2273.82
2274.34
2274.6
2274.56
1295.64
1391.07
1485.46
1578.02
1667.81
1753.89
1835.42
1911.6
1981.48
2043.95
2098.04
2143.17
2179.42
2207.44
2228.28
2243.23
2253.59
2260.52
2265.07
2268.01
2269.68
2270.66
2271.6
2272.56
2272.9
2273.29
2273.59
2273.71
2273.94
2274.37
2274.97
2275.75
2276.72
2277.82
2279.05
2280.37
2281.74
2283.14
2284.54
2285.9
2287.19
2288.38
2289.44
2290.35
2291.06
2291.57
2291.84
2291.81
2291.54
2290.98
2290.09
1628.03
1714.45
1797.24
1875.65
1948.95
2016.31
2076.74
2129.32
2173.5
2209.27
2237.17
2258.07
2273.13
2283.58
2290.51
2294.85
2297.49
2298.85
2299.32
2299.53
2299.84
2299.84
2299.54
2299.31
2298.94
2298.54
2298.3
2298.27
2298.42
2298.78
2299.31
2300
2300.81
2301.72
2302.69
2303.7
2304.72
2305.71
2306.65
2307.51
2308.26
2308.85
2309.29
2309.54
2309.52
2309.29
2308.79
2307.98
2306.86
2305.42
2303.63
1921.41
1991.54
2056.01
2113.95
2164.52
2207.22
2242
2269.3
2289.88
2304.77
2315.1
2321.86
2325.97
2328.31
2329.36
2329.26
2328.87
2328.47
2328.03
2327.17
2326.35
2325.48
2324.48
2323.6
2322.94
2322.46
2322.17
2322.1
2322.2
2322.46
2322.85
2323.34
2323.91
2324.53
2325.16
2325.79
2326.37
2326.88
2327.3
2327.6
2327.74
2327.68
2327.44
2326.97
2326.23
2325.2
2323.88
2322.23
2320.25
2317.91
2315.2
2203.51
2244.25
2277.57
2303.83
2323.72
2338.16
2348.14
2354.57
2358.39
2360.37
2360.95
2360.5
2359.59
2358.5
2357.39
2356.12
2354.63
2353.22
2351.72
2350.23
2348.91
2347.8
2346.88
2346.18
2345.69
2345.36
2345.19
2345.16
2345.24
2345.4
2345.62
2345.86
2346.11
2346.34
2346.51
2346.6
2346.56
2346.39
2346.08
2345.57
2344.83
2343.85
2342.61
2341.08
2339.24
2337.07
2334.56
2331.68
2328.43
2324.78
2340.71
2359.57
2373.25
2382.64
2388.63
2392.06
2393.61
2393.68
2392.89
2391.41
2389.68
2387.96
2386.27
2384.17
2382.16
2380.17
2378.08
2376.14
2374.41
2372.88
2371.54
2370.42
2369.5
2368.75
2368.17
2367.72
2367.38
2367.14
2366.96
2366.82
2366.69
2366.54
2366.35
2366.1
2365.76
2365.29
2364.67
2363.87
2362.88
2361.67
2360.2
2358.45
2356.42
2354.07
2351.39
2348.35
2344.95
2341.16
2336.99
2332.4
2418.56
2423.96
2426.86
2427.88
2427.52
2426.31
2424.31
2421.99
2419.67
2417.37
2414.86
2412.24
2409.73
2407.12
2404.57
2402.22
2400.07
2398.12
2396.39
2394.87
2393.53
2392.37
2391.37
2390.51
2389.76
2389.11
2388.53
2387.99
2387.49
2386.97
2386.43
2385.83
2385.15
2384.37
2383.45
2382.38
2381.12
2379.65
2377.95
2375.99
2373.75
2371.22
2368.36
2365.17
2361.62
2357.71
2353.4
2348.7
2343.6
2338.08
2463.14
2462.35
2460.63
2458.13
2455.27
2452.38
2449.52
2446.58
2443.37
2440.28
2437.22
2434.11
2431.17
2428.44
2425.88
2423.53
2421.4
2419.47
2417.73
2416.17
2414.76
2413.49
2412.34
2411.29
2410.31
2409.39
2408.5
2407.61
2406.71
2405.77
2404.75
2403.65
2402.43
2401.06
2399.53
2397.8
2395.86
2393.68
2391.24
2388.51
2385.48
2382.13
2378.43
2374.38
2369.96
2365.15
2359.94
2354.33
2348.3
2341.83
2492.79
2489.42
2486.02
2482.57
2479.11
2475.47
2471.84
2468.3
2464.66
2461.14
2457.85
2454.72
2451.78
2449.06
2446.55
2444.22
2442.09
2440.12
2438.31
2436.65
2435.1
2433.65
2432.28
2430.97
2429.7
2428.44
2427.18
2425.89
2424.54
2423.11
2421.58
2419.92
2418.1
2416.11
2413.93
2411.51
2408.86
2405.93
2402.72
2399.2
2395.36
2391.17
2386.62
2381.71
2376.4
2370.7
2364.59
2358.06
2351.1
2343.7
2516.45
2512.48
2508.42
2504.24
2500.18
2496.12
2492.07
2488.23
2484.56
2481.05
2477.77
2474.69
2471.79
2469.09
2466.57
2464.21
2462.01
2459.95
2458
2456.16
2454.41
2452.72
2451.07
2449.45
2447.82
2446.18
2444.49
2442.74
2440.89
2438.93
2436.83
2434.58
2432.13
2429.48
2426.6
2423.48
2420.08
2416.39
2412.39
2408.06
2403.39
2398.36
2392.95
2387.17
2380.98
2374.38
2367.37
2359.92
2352.1
2343.85
2537.46
2532.88
2528.39
2523.85
2519.47
2515.3
2511.27
2507.43
2503.81
2500.36
2497.11
2494.04
2491.14
2488.41
2485.82
2483.37
2481.04
2478.82
2476.68
2474.61
2472.59
2470.6
2468.62
2466.63
2464.6
2462.51
2460.35
2458.09
2455.7
2453.17
2450.47
2447.58
2444.47
2441.13
2437.54
2433.67
2429.51
2425.03
2420.23
2415.09
2409.58
2403.71
2397.44
2390.78
2383.71
2376.22
2368.36
2360.09
2351.41
2342.3
2551.51
2546.85
2542.33
2537.96
2533.82
2529.86
2526.07
2522.47
2519.04
2515.78
2512.68
2509.72
2506.89
2504.18
2501.58
2499.07
2496.62
2494.23
2491.88
2489.54
2487.2
2484.84
2482.42
2479.94
2477.38
2474.7
2471.89
2468.92
2465.78
2462.44
2458.88
2455.09
2451.04
2446.71
2442.08
2437.15
2431.88
2426.27
2420.3
2413.96
2407.23
2400.1
2392.57
2384.67
2376.38
2367.68
2358.57
2349.03
2339.04
2569.29
2564.65
2560.19
2555.89
2551.78
2547.84
2544.07
2540.45
2536.99
2533.67
2530.48
2527.4
2524.43
2521.54
2518.73
2515.98
2513.27
2510.58
2507.89
2505.19
2502.45
2499.65
2496.77
2493.8
2490.71
2487.47
2484.08
2480.5
2476.72
2472.72
2468.48
2463.98
2459.19
2454.11
2448.72
2443
2436.94
2430.51
2423.72
2416.53
2408.96
2401.02
2392.7
2383.98
2374.87
2365.32
2355.36
2344.98
2334.16
2586.49
2581.89
2577.47
2573.2
2569.09
2565.14
2561.33
2557.65
2554.1
2550.67
2547.33
2544.09
2540.92
2537.81
2534.74
2531.7
2528.67
2525.63
2522.56
2519.45
2516.27
2513
2509.62
2506.12
2502.46
2498.64
2494.64
2490.42
2485.98
2481.3
2476.35
2471.12
2465.6
2459.76
2453.6
2447.08
2440.22
2432.98
2425.35
2417.39
2409.04
2400.31
2391.18
2381.64
2371.68
2361.32
2350.54
2339.36
2327.73
2598.52
2594.09
2589.81
2585.66
2581.64
2577.74
2573.96
2570.27
2566.68
2563.15
2559.69
2556.28
2552.89
2549.52
2546.15
2542.76
2539.32
2535.83
2532.27
2528.61
2524.83
2520.92
2516.85
2512.61
2508.18
2503.54
2498.66
2493.55
2488.16
2482.5
2476.54
2470.26
2463.66
2456.72
2449.41
2441.75
2433.75
2425.37
2416.62
2407.49
2397.95
2388
2377.65
2366.9
2355.74
2344.18
2332.22
2319.83
2614.43
2609.96
2605.61
2601.38
2597.26
2593.23
2589.28
2585.42
2581.61
2577.85
2574.13
2570.43
2566.72
2563.01
2559.26
2555.46
2551.6
2547.65
2543.6
2539.42
2535.1
2530.63
2525.97
2521.12
2516.06
2510.76
2505.22
2499.41
2493.32
2486.93
2480.23
2473.2
2465.83
2458.11
2450.07
2441.67
2432.91
2423.77
2414.23
2404.3
2393.97
2383.24
2372.12
2360.59
2348.68
2336.36
2323.66
2310.53
2624.99
2620.53
2616.17
2611.89
2607.69
2603.55
2599.45
2595.4
2591.36
2587.33
2583.3
2579.23
2575.13
2570.97
2566.73
2562.4
2557.96
2553.4
2548.68
2543.8
2538.74
2533.47
2528
2522.28
2516.32
2510.1
2503.58
2496.78
2489.66
2482.21
2474.44
2466.36
2457.92
2449.14
2440
2430.46
2420.54
2410.23
2399.54
2388.45
2376.96
2365.09
2352.83
2340.18
2327.15
2313.74
2299.93
2639.08
2634.47
2629.94
2625.47
2621.05
2616.67
2612.31
2607.96
2603.6
2599.23
2594.83
2590.37
2585.85
2581.24
2576.53
2571.71
2566.75
2561.64
2556.36
2550.89
2545.23
2539.34
2533.22
2526.85
2520.21
2513.3
2506.07
2498.54
2490.72
2482.58
2474.11
2465.31
2456.15
2446.61
2436.71
2426.42
2415.76
2404.71
2393.27
2381.45
2369.24
2356.65
2343.69
2330.35
2316.64
2302.57
2288.11
2647.37
2642.63
2637.92
2633.24
2628.58
2623.91
2619.24
2614.53
2609.78
2604.97
2600.08
2595.11
2590.03
2584.82
2579.48
2573.98
2568.31
2562.45
2556.38
2550.1
2543.58
2536.8
2529.76
2522.44
2514.82
2506.93
2498.74
2490.23
2481.4
2472.22
2462.68
2452.78
2442.51
2431.88
2420.87
2409.48
2397.71
2385.57
2373.04
2360.15
2346.88
2333.25
2319.26
2304.92
2290.22
2275.15
2659.14
2654.15
2649.18
2644.21
2639.23
2634.22
2629.18
2624.09
2618.93
2613.68
2608.34
2602.89
2597.31
2591.59
2585.71
2579.65
2573.4
2566.94
2560.26
2553.35
2546.18
2538.74
2531.04
2523.08
2514.81
2506.26
2497.39
2488.18
2478.63
2468.74
2458.49
2447.88
2436.91
2425.57
2413.86
2401.78
2389.32
2376.5
2363.31
2349.76
2335.85
2321.59
2306.99
2292.05
2276.76
2261.1
2669.74
2664.47
2659.19
2653.89
2648.56
2643.18
2637.75
2632.24
2626.64
2620.94
2615.12
2609.17
2603.07
2596.81
2590.37
2583.74
2576.9
2569.84
2562.53
2554.98
2547.19
2539.13
2530.8
2522.19
2513.28
2504.04
2494.47
2484.57
2474.34
2463.75
2452.81
2441.52
2429.86
2417.85
2405.46
2392.72
2379.61
2366.14
2352.33
2338.16
2323.65
2308.8
2293.61
2278.1
2262.25
2246.05
2679.1
2673.52
2667.9
2662.25
2656.54
2650.76
2644.91
2638.96
2632.9
2626.72
2620.4
2613.94
2607.3
2600.49
2593.48
2586.26
2578.82
2571.15
2563.25
2555.1
2546.69
2538.02
2529.05
2519.77
2510.18
2500.27
2490.04
2479.47
2468.56
2457.31
2445.71
2433.75
2421.44
2408.77
2395.75
2382.38
2368.66
2354.59
2340.17
2325.42
2310.33
2294.92
2279.19
2263.14
2246.78
2230.07
2687.19
2681.25
2675.28
2669.24
2663.13
2656.93
2650.63
2644.22
2637.68
2631.01
2624.18
2617.18
2610
2602.61
2595.02
2587.24
2579.22
2570.97
2562.48
2553.73
2544.7
2535.37
2525.75
2515.83
2505.59
2495.03
2484.15
2472.93
2461.38
2449.48
2437.24
2424.65
2411.71
2398.43
2384.81
2370.84
2356.53
2341.89
2326.91
2311.6
2295.97
2280.03
2263.79
2247.24
2230.41
2213.24
2693.95
2687.65
2681.28
2674.84
2668.3
2661.66
2654.91
2648.02
2640.98
2633.8
2626.43
2618.89
2611.16
2603.24
2595.1
2586.75
2578.16
2569.33
2560.22
2550.85
2541.18
2531.23
2520.99
2510.43
2499.56
2488.37
2476.85
2465.01
2452.83
2440.32
2427.47
2414.28
2400.76
2386.89
2372.69
2358.16
2343.3
2328.1
2312.59
2296.77
2280.64
2264.21
2247.49
2230.49
2213.22
2195.63
2699.37
2692.68
2685.9
2679.03
2672.05
2664.95
2657.72
2650.33
2642.79
2635.07
2627.2
2619.14
2610.88
2602.42
2593.73
2584.8
2575.61
2566.18
2556.47
2546.48
2536.21
2525.65
2514.79
2503.62
2492.14
2480.34
2468.22
2455.77
2443
2429.91
2416.48
2402.72
2388.63
2374.22
2359.47
2344.4
2329.01
2313.31
2297.3
2280.99
2264.4
2247.52
2230.37
2212.96
2195.28
2177.3
2696.32
2689.11
2681.8
2674.36
2666.78
2659.05
2651.18
2643.15
2634.94
2626.56
2617.97
2609.17
2600.14
2590.87
2581.36
2571.6
2561.57
2551.27
2540.7
2529.83
2518.67
2507.22
2495.46
2483.39
2471.01
2458.31
2445.3
2431.96
2418.31
2404.33
2390.03
2375.4
2360.46
2345.2
2329.62
2313.75
2297.57
2281.1
2264.35
2247.33
2230.04
2212.49
2194.7
2176.65
2158.33
2698.55
2690.9
2683.12
2675.23
2667.19
2658.99
2650.65
2642.12
2633.41
2624.48
2615.35
2605.99
2596.4
2586.58
2576.5
2566.16
2555.56
2544.69
2533.53
2522.09
2510.36
2498.34
2486.01
2473.38
2460.45
2447.2
2433.64
2419.77
2405.58
2391.07
2376.26
2361.13
2345.69
2329.95
2313.91
2297.58
2280.96
2264.07
2246.91
2229.49
2211.83
2193.93
2175.79
2157.42
2138.78
2699.38
2691.31
2683.09
2674.74
2666.24
2657.57
2648.71
2639.67
2630.42
2620.97
2611.29
2601.39
2591.26
2580.88
2570.24
2559.35
2548.19
2536.76
2525.05
2513.06
2500.78
2488.21
2475.35
2462.18
2448.71
2434.94
2420.86
2406.47
2391.77
2376.77
2361.47
2345.87
2329.97
2313.78
2297.31
2280.56
2263.54
2246.27
2228.74
2210.96
2192.96
2174.73
2156.29
2137.63
2118.71
2690.37
2681.71
2672.88
2663.89
2654.72
2645.35
2635.79
2626.03
2616.05
2605.85
2595.42
2584.74
2573.82
2562.65
2551.22
2539.52
2527.56
2515.32
2502.8
2489.99
2476.9
2463.51
2449.83
2435.85
2421.58
2407
2392.13
2376.96
2361.5
2345.74
2329.7
2313.38
2296.78
2279.91
2262.78
2245.39
2227.76
2209.89
2191.8
2173.49
2154.98
2136.26
2117.34
2098.19
2688.06
2678.92
2669.62
2660.14
2650.47
2640.61
2630.55
2620.27
2609.78
2599.06
2588.11
2576.91
2565.47
2553.78
2541.83
2529.62
2517.14
2504.39
2491.36
2478.04
2464.45
2450.56
2436.39
2421.93
2407.18
2392.14
2376.81
2361.2
2345.31
2329.13
2312.69
2295.97
2278.99
2261.76
2244.28
2226.56
2208.61
2190.44
2172.06
2153.49
2134.72
2115.76
2096.62
2077.26
2684.37
2674.77
2664.99
2655.03
2644.88
2634.52
2623.96
2613.19
2602.19
2590.97
2579.52
2567.82
2555.88
2543.69
2531.24
2518.53
2505.55
2492.3
2478.78
2464.99
2450.91
2436.56
2421.92
2407.01
2391.81
2376.34
2360.59
2344.57
2328.27
2311.71
2294.89
2277.81
2260.49
2242.93
2225.13
2207.11
2188.88
2170.44
2151.81
2133
2114.01
2094.85
2075.52
2055.97
2679.35
2669.28
2659.03
2648.6
2637.97
2627.13
2616.09
2604.84
2593.36
2581.65
2569.71
2557.53
2545.1
2532.42
2519.49
2506.3
2492.84
2479.12
2465.13
2450.88
2436.35
2421.55
2406.48
2391.14
2375.53
2359.66
2343.52
2327.11
2310.45
2293.53
2276.37
2258.97
2241.33
2223.47
2205.39
2187.11
2168.62
2149.95
2131.11
2112.09
2092.92
2073.58
2054.09
2034.41
2662.49
2651.79
2640.89
2629.8
2618.5
2606.99
2595.26
2583.31
2571.13
2558.72
2546.06
2533.17
2520.02
2506.62
2492.97
2479.06
2464.9
2450.47
2435.78
2420.83
2405.62
2390.14
2374.4
2358.41
2342.16
2325.65
2308.9
2291.9
2274.66
2257.19
2239.49
2221.58
2203.45
2185.12
2166.6
2147.9
2129.03
2110
2090.81
2071.48
2052
2032.38
2012.6
2654.46
2643.31
2631.96
2620.41
2608.66
2596.69
2584.51
2572.1
2559.46
2546.59
2533.48
2520.13
2506.54
2492.7
2478.62
2464.28
2449.69
2434.85
2419.75
2404.41
2388.8
2372.95
2356.85
2340.5
2323.9
2307.07
2289.99
2272.69
2255.16
2237.41
2219.45
2201.28
2182.92
2164.38
2145.66
2126.77
2107.73
2088.54
2069.21
2049.75
2030.16
2010.46
1990.59
2645.21
2633.62
2621.84
2609.85
2597.65
2585.24
2572.61
2559.76
2546.68
2533.37
2519.83
2506.06
2492.04
2477.79
2463.29
2448.55
2433.56
2418.33
2402.86
2387.14
2371.18
2354.98
2338.53
2321.86
2304.95
2287.81
2270.45
2252.87
2235.07
2217.08
2198.88
2180.5
2161.94
2143.21
2124.32
2105.27
2086.09
2066.78
2047.34
2027.78
2008.11
1988.34
1968.42
2622.77
2610.56
2598.14
2585.51
2572.67
2559.62
2546.35
2532.85
2519.13
2505.17
2490.99
2476.58
2461.93
2447.05
2431.93
2416.57
2400.98
2385.15
2369.09
2352.8
2336.27
2319.52
2302.54
2285.35
2267.94
2250.32
2232.49
2214.47
2196.25
2177.86
2159.29
2140.55
2121.67
2102.63
2083.46
2064.17
2044.76
2025.24
2005.61
1985.9
1966.09
1946.13
2610.8
2598.17
2585.34
2572.3
2559.05
2545.59
2531.92
2518.02
2503.9
2489.56
2475
2460.21
2445.19
2429.94
2414.47
2398.77
2382.84
2366.69
2350.31
2333.71
2316.89
2299.86
2282.61
2265.16
2247.51
2229.66
2211.61
2193.39
2174.99
2156.42
2137.69