/*--------------------------------*- C++ -*----------------------------------*\
| =========                 |                                                 |
| \\      /  F ield         | OpenFOAM: The Open Source CFD Toolbox           |
|  \\    /   O peration     | Version:  v1706                                 |
|   \\  /    A nd           | Web:      www.OpenFOAM.com                      |
|    \\/     M anipulation  |                                                 |
\*---------------------------------------------------------------------------*/
FoamFile
{
    version     2.0;
    format      ascii;
    class       volScalarField;
    location    "8e-06";
    object      Tt;
}
// * * * * * * * * * * * * * * * * * * * * * * * * * * * * * * * * * * * * * //

dimensions      [0 0 0 1 0 0 0];


internalField   nonuniform List<scalar> 
30038
(
144.4
144.4
144.4
144.4
144.4
144.4
144.4
144.4
144.4
144.4
144.4
144.4
144.4
144.4
144.4
144.4
144.4
144.4
144.4
144.4
144.4
144.4
144.4
144.4
144.4
144.4
144.4
144.4
144.4
144.4
144.4
144.4
144.4
144.4
144.4
144.4
144.4
144.4
144.4
144.4
144.4
144.4
144.4
144.4
144.4
144.4
144.4
144.4
144.4
144.4
144.4
144.4
144.4
144.4
144.4
144.4
144.4
144.4
144.4
144.4
144.4
144.4
144.4
144.4
144.4
144.4
144.4
144.4
144.4
144.4
144.4
144.4
144.4
144.4
144.4
144.4
144.4
144.4
144.4
144.4
144.4
144.4
144.4
144.4
144.4
144.4
144.4
144.4
144.4
144.4
144.4
144.4
144.4
144.4
144.4
144.4
144.4
144.4
144.4
144.4
144.4
144.4
144.4
144.4
144.4
144.4
144.4
144.4
144.4
144.4
144.4
144.4
144.4
144.4
144.4
144.4
144.4
144.4
144.4
144.4
144.4
144.4
144.4
144.4
144.4
144.4
144.4
144.4
144.4
144.4
144.4
144.4
144.4
144.4
144.4
144.4
144.4
144.4
144.4
144.4
144.4
144.4
144.4
144.4
144.4
144.4
144.4
144.4
144.4
144.4
144.4
144.4
144.4
144.4
144.4
144.4
144.4
144.4
144.4
144.4
144.4
144.4
144.4
144.4
144.4
144.4
144.4
144.4
144.4
144.4
144.4
144.4
144.4
144.4
144.4
144.4
144.4
144.4
144.4
144.4
144.4
144.4
144.4
144.4
144.4
144.4
144.4
144.4
144.4
144.4
144.4
144.4
144.4
144.4
144.4
144.4
144.4
144.4
144.4
144.4
144.4
144.4
144.4
144.4
144.4
144.4
144.4
144.4
144.4
144.4
144.4
144.4
144.4
144.4
144.4
144.4
144.4
144.4
144.4
144.4
144.4
144.4
144.4
144.4
144.4
144.4
144.4
144.4
144.4
144.4
144.4
144.4
144.4
144.4
144.4
144.4
144.4
144.4
144.4
144.4
144.4
144.4
144.4
144.4
144.4
144.4
144.4
144.4
144.4
144.4
144.4
144.4
144.4
144.4
144.4
144.4
144.4
144.4
144.4
144.4
144.4
144.4
144.4
144.4
144.4
144.4
144.4
144.4
144.4
144.4
144.4
144.4
144.4
144.4
144.4
144.4
144.4
144.4
144.4
144.4
144.4
144.4
144.4
144.4
144.4
144.4
144.4
144.4
144.4
144.4
144.4
144.4
144.4
144.4
144.4
144.4
144.4
144.4
144.4
144.4
144.4
144.4
144.4
144.4
144.4
144.4
144.4
144.4
144.4
144.4
144.4
144.4
144.4
144.4
144.4
144.4
144.4
144.4
144.4
144.4
144.4
144.4
144.4
144.4
144.4
144.4
144.4
144.4
144.4
144.4
144.4
144.4
144.4
144.4
144.4
144.4
144.4
144.4
144.4
144.4
144.4
144.4
144.4
144.4
144.4
144.4
144.4
144.4
144.4
144.4
144.4
144.4
144.4
144.4
144.4
144.4
144.4
144.4
144.4
144.4
144.4
144.4
144.4
144.4
144.4
144.4
144.4
144.4
144.4
144.4
144.4
144.4
144.4
144.4
144.4
144.4
144.4
144.4
144.4
144.4
144.4
144.4
144.4
144.4
144.4
144.4
144.4
144.4
144.4
144.4
144.4
144.4
144.4
144.4
144.4
144.4
144.4
144.4
144.4
144.4
144.4
144.4
144.4
144.4
144.4
144.4
144.4
144.4
144.4
144.4
144.4
144.4
144.4
144.4
144.4
144.4
144.4
144.4
144.4
144.4
144.4
144.4
144.4
144.4
144.4
144.4
144.4
144.4
144.4
144.4
144.4
144.4
144.4
144.4
144.4
144.4
144.4
144.4
144.4
144.4
144.4
144.4
144.4
144.4
144.4
144.4
144.4
144.4
144.4
144.4
144.4
144.4
144.4
144.4
144.4
144.4
144.4
144.4
144.4
144.4
144.4
144.4
144.4
144.4
144.4
144.4
144.4
144.4
144.4
144.4
144.4
144.4
144.4
144.4
144.4
144.4
144.4
144.4
144.4
144.4
144.4
144.4
144.4
144.4
144.4
144.4
144.4
144.4
144.4
144.4
144.4
144.4
144.4
144.4
144.4
144.4
144.4
144.4
144.4
144.4
144.4
144.4
144.4
144.4
144.4
144.4
144.4
144.4
144.4
144.4
144.4
144.4
144.4
144.4
144.4
144.4
144.4
144.4
144.4
144.4
144.4
144.4
144.4
144.4
144.4
144.4
144.4
144.4
144.4
144.4
144.4
144.4
144.4
144.4
144.4
144.4
144.4
144.4
144.4
144.4
144.4
144.4
144.4
144.4
144.4
144.4
144.4
144.4
144.4
144.4
144.4
144.4
144.4
144.4
144.4
144.4
144.4
144.4
144.4
144.4
144.4
144.4
144.4
144.4
144.4
144.4
144.4
144.4
144.4
144.4
144.4
144.4
144.4
144.4
144.4
144.4
144.4
144.4
144.4
144.4
144.4
144.4
144.4
144.4
144.4
144.4
144.4
144.4
144.4
144.4
144.4
144.4
144.4
144.4
144.4
144.4
144.4
144.4
144.4
144.4
144.4
144.4
144.4
144.4
144.4
144.4
144.4
144.4
144.4
144.4
144.4
144.4
144.4
144.4
144.4
144.4
144.4
144.4
144.4
144.4
144.4
144.4
144.4
144.4
144.4
144.4
144.4
144.4
144.4
144.4
144.4
144.4
144.4
144.4
144.4
144.4
144.4
144.4
144.4
144.4
144.4
144.4
144.4
144.4
144.4
144.4
144.4
144.4
144.4
144.4
144.4
144.4
144.4
144.4
144.4
144.4
144.4
144.4
144.4
144.4
144.4
144.4
144.4
144.4
144.4
144.4
144.4
144.4
144.4
144.4
144.4
144.4
144.4
144.4
144.4
144.4
144.4
144.4
144.4
144.4
144.4
144.4
144.4
144.4
144.4
144.4
144.4
144.4
144.4
144.4
144.4
144.4
144.4
144.4
144.4
144.4
144.4
144.4
144.4
144.4
144.4
144.4
144.4
144.4
144.4
144.4
144.4
144.4
144.4
144.4
144.4
144.4
144.4
144.4
144.4
144.4
144.4
144.4
144.4
144.4
144.4
144.4
144.4
144.4
144.4
144.4
144.4
144.4
144.4
144.4
144.4
144.4
144.4
144.4
144.4
144.4
144.4
144.4
144.4
144.4
144.4
144.4
144.4
144.4
144.4
144.4
144.4
144.4
144.4
144.4
144.4
144.4
144.4
144.4
144.4
144.4
144.4
144.4
144.4
144.4
144.4
144.4
144.4
144.4
144.4
144.4
144.4
144.4
144.4
144.4
144.4
144.4
144.4
144.4
144.4
144.4
144.4
144.4
144.4
144.4
144.4
144.4
144.4
144.4
144.4
144.4
144.4
144.4
144.4
144.4
144.4
144.4
144.4
144.4
144.4
144.4
144.4
144.4
144.4
144.4
144.4
144.4
144.4
144.4
144.4
144.4
144.4
144.4
144.4
144.4
144.4
144.4
144.4
144.4
144.4
144.4
144.4
144.4
144.4
144.4
144.4
144.4
144.4
144.4
144.4
144.4
144.4
144.4
144.4
144.4
144.4
144.4
144.4
144.4
144.4
144.4
144.4
144.4
144.4
144.4
144.4
144.4
144.4
144.4
144.4
144.4
144.4
144.4
144.4
144.4
144.4
144.4
144.4
144.4
144.4
144.4
144.4
144.4
144.4
144.4
144.4
144.4
144.4
144.4
144.4
144.4
144.4
144.4
144.4
144.4
144.4
144.4
144.4
144.4
144.4
144.4
144.4
144.4
144.4
144.4
144.4
144.4
144.4
144.4
144.4
144.4
144.4
144.4
144.4
144.4
144.4
144.4
144.4
144.4
144.4
144.4
144.4
144.4
144.4
144.4
144.4
144.4
144.4
144.4
144.4
144.4
144.4
144.4
144.4
144.4
144.4
144.4
144.4
144.4
144.4
144.4
144.4
144.4
144.4
144.4
144.4
144.4
144.4
144.4
144.4
144.4
144.4
144.4
144.4
144.4
144.4
144.4
144.4
144.4
144.4
144.4
144.4
144.4
144.4
144.4
144.4
144.4
144.4
144.4
144.4
144.4
144.4
144.4
144.4
144.4
144.4
144.4
144.4
144.4
144.4
144.4
144.4
144.4
144.4
144.4
144.4
144.4
144.4
144.4
144.4
144.4
144.4
144.4
144.4
144.4
144.4
144.4
144.4
144.4
144.4
144.4
144.4
144.4
144.4
144.4
144.4
144.4
144.4
144.4
144.4
144.4
144.4
144.4
144.4
144.4
144.4
144.4
144.4
144.4
144.4
144.4
144.4
144.4
144.4
144.4
144.4
144.4
144.4
144.4
144.4
144.4
144.4
144.4
144.4
144.4
144.4
144.4
144.4
144.4
144.4
144.4
144.4
144.4
144.4
144.4
144.4
144.4
144.4
144.4
144.4
144.4
144.4
144.4
144.4
144.4
144.4
144.4
144.4
144.4
144.4
144.4
144.4
144.4
144.4
144.4
144.4
144.4
144.4
144.4
144.4
144.401
144.4
144.4
144.4
144.4
144.4
144.4
144.4
144.4
144.4
144.4
144.4
144.4
144.4
144.4
144.4
144.4
144.4
144.4
144.4
144.4
144.4
144.4
144.4
144.4
144.4
144.4
144.4
144.4
144.4
144.4
144.4
144.4
144.4
144.4
144.4
144.4
144.4
144.4
144.4
144.4
144.4
144.4
144.4
144.4
144.401
144.401
144.402
144.404
144.4
144.4
144.4
144.4
144.4
144.4
144.4
144.4
144.4
144.4
144.4
144.4
144.4
144.4
144.4
144.4
144.4
144.4
144.4
144.4
144.4
144.4
144.4
144.4
144.4
144.4
144.4
144.4
144.4
144.4
144.4
144.4
144.4
144.4
144.4
144.4
144.4
144.4
144.4
144.4
144.4
144.401
144.401
144.402
144.404
144.407
144.414
144.427
144.4
144.4
144.4
144.4
144.4
144.4
144.4
144.4
144.4
144.4
144.4
144.4
144.4
144.4
144.4
144.4
144.4
144.4
144.4
144.4
144.4
144.4
144.4
144.4
144.4
144.4
144.4
144.4
144.4
144.4
144.4
144.4
144.4
144.4
144.4
144.4
144.4
144.4
144.4
144.4
144.401
144.401
144.402
144.404
144.407
144.413
144.424
144.444
144.484
144.565
144.4
144.4
144.4
144.4
144.4
144.4
144.4
144.4
144.4
144.4
144.4
144.4
144.4
144.4
144.4
144.4
144.4
144.4
144.4
144.4
144.4
144.4
144.4
144.4
144.4
144.4
144.4
144.4
144.4
144.4
144.4
144.4
144.4
144.4
144.4
144.4
144.4
144.401
144.401
144.402
144.404
144.407
144.412
144.422
144.441
144.477
144.543
144.666
144.9
145.371
144.4
144.4
144.4
144.4
144.4
144.4
144.4
144.4
144.4
144.4
144.4
144.4
144.4
144.4
144.4
144.4
144.4
144.4
144.4
144.4
144.4
144.4
144.4
144.4
144.4
144.4
144.4
144.4
144.4
144.4
144.4
144.4
144.4
144.4
144.401
144.401
144.402
144.404
144.406
144.412
144.421
144.439
144.472
144.532
144.644
144.851
145.235
145.95
147.291
149.912
144.4
144.4
144.4
144.4
144.4
144.4
144.4
144.4
144.4
144.4
144.4
144.4
144.4
144.4
144.4
144.4
144.4
144.4
144.4
144.4
144.4
144.4
144.4
144.4
144.4
144.4
144.4
144.4
144.4
144.4
144.4
144.401
144.401
144.402
144.404
144.406
144.411
144.421
144.438
144.468
144.525
144.628
144.817
145.165
145.805
146.981
149.138
153.073
160.204
173.135
144.4
144.4
144.4
144.4
144.4
144.4
144.4
144.4
144.4
144.4
144.4
144.4
144.4
144.4
144.4
144.4
144.4
144.4
144.4
144.4
144.4
144.4
144.4
144.4
144.4
144.4
144.4
144.4
144.401
144.401
144.402
144.404
144.406
144.411
144.42
144.437
144.466
144.519
144.615
144.79
145.109
145.691
146.752
148.682
152.17
158.402
169.311
187.797
217.783
263.883
144.4
144.4
144.4
144.4
144.4
144.4
144.4
144.4
144.4
144.4
144.4
144.4
144.4
144.4
144.4
144.4
144.4
144.4
144.4
144.4
144.4
144.4
144.4
144.4
144.4
144.401
144.401
144.402
144.404
144.407
144.412
144.42
144.436
144.465
144.515
144.607
144.771
145.068
145.603
146.572
148.319
151.455
157.027
166.741
183.174
209.775
250.448
308.658
386.485
483.778
144.4
144.4
144.4
144.4
144.4
144.4
144.4
144.4
144.4
144.4
144.4
144.4
144.4
144.4
144.4
144.4
144.4
144.4
144.4
144.4
144.4
144.4
144.401
144.401
144.402
144.404
144.407
144.412
144.421
144.437
144.465
144.514
144.602
144.759
145.039
145.541
146.438
148.042
150.897
155.935
164.681
179.454
203.421
240.276
293.441
365.051
455.275
562.336
683.251
814.088
144.4
144.4
144.4
144.4
144.4
144.4
144.4
144.4
144.4
144.4
144.4
144.4
144.4
144.4
144.4
144.4
144.4
144.4
144.401
144.401
144.401
144.403
144.404
144.407
144.413
144.422
144.438
144.466
144.516
144.602
144.755
145.025
145.503
146.349
147.845
150.486
155.107
163.079
176.498
198.273
231.89
280.745
347.199
431.823
533.237
648.579
774.257
906.59
1041.8
1176.55
144.4
144.4
144.4
144.4
144.4
144.4
144.4
144.4
144.4
144.4
144.4
144.4
144.4
144.4
144.4
144.401
144.401
144.402
144.403
144.405
144.408
144.414
144.424
144.441
144.47
144.52
144.608
144.76
145.026
145.491
146.304
147.729
150.215
154.527
161.907
174.261
194.258
225.168
270.303
332.166
411.682
507.939
618.486
739.994
868.865
1001.45
1134.1
1263.79
1387.51
1502.49
144.4
144.4
144.4
144.4
144.4
144.4
144.4
144.4
144.4
144.4
144.4
144.4
144.401
144.401
144.402
144.403
144.406
144.409
144.416
144.426
144.445
144.475
144.528
144.619
144.774
145.042
145.505
146.307
147.692
150.084
154.188
161.146
172.706
191.326
220.059
262.087
319.964
394.872
486.291
592.188
709.559
835.028
965.215
1096.64
1226.04
1350.6
1467.23
1572.31
1662.19
1736.1
144.4
144.4
144.4
144.4
144.4
144.4
144.4
144.4
144.401
144.401
144.402
144.402
144.404
144.407
144.411
144.418
144.43
144.45
144.484
144.541
144.637
144.8
145.078
145.551
146.36
147.741
150.096
154.089
160.787
171.811
189.438
216.514
256.064
310.617
381.512
468.529
570.006
683.269
805.191
932.6
1062.33
1191.16
1316.28
1435
1544.13
1640.06
1719.96
1783.31
1831.35
1867.78
144.4
144.4
144.4
144.4
144.4
144.401
144.401
144.402
144.403
144.405
144.408
144.413
144.422
144.436
144.458
144.496
144.559
144.664
144.84
145.136
145.633
146.471
147.884
150.262
154.243
160.839
171.576
188.579
214.507
252.21
304.132
371.678
454.841
552.258
661.573
779.912
904.298
1031.84
1159.54
1284.56
1404.4
1516.39
1617.24
1703.75
1774.11
1828.7
1869.55
1899.8
1922.19
1939.71
144.4
144.401
144.401
144.402
144.403
144.404
144.407
144.41
144.417
144.427
144.443
144.47
144.514
144.586
144.704
144.899
145.223
145.76
146.653
148.138
150.604
154.676
161.333
172.03
188.772
214.05
250.529
300.526
365.432
445.366
539.192
644.835
759.676
880.945
1005.95
1132
1256.32
1376.47
1490.12
1594.49
1686.4
1763.32
1824.52
1871.18
1905.81
1931.28
1950.27
1965.05
1976.98
1987.08
144.402
144.404
144.405
144.409
144.414
144.421
144.434
144.454
144.486
144.539
144.623
144.76
144.983
145.348
145.945
146.924
148.53
151.158
155.436
162.327
173.241
190.088
215.208
251.08
299.856
362.85
440.226
531.009
633.35
744.883
863.046
985.323
1109.29
1232.4
1352.21
1466.56
1573.14
1669.09
1751.61
1819.04
1871.61
1911.1
1940.25
1961.67
1977.85
1990.5
2000.88
2009.61
2017.92
2025.87
144.412
144.418
144.428
144.444
144.47
144.51
144.574
144.676
144.84
145.103
145.526
146.21
147.315
149.102
151.982
156.598
163.918
175.325
192.658
218.117
253.992
302.242
364.048
439.555
527.883
627.364
735.859
851.018
970.508
1092.1
1213.54
1332.46
1446.77
1554.46
1653.12
1740.01
1812.92
1871.17
1915.78
1948.92
1973.25
1991.19
2004.96
2015.82
2024.7
2032.57
2040.23
2046.99
2052.97
2058.63
144.439
144.46
144.493
144.544
144.625
144.752
144.954
145.272
145.779
146.585
147.869
149.914
153.159
158.276
166.253
178.465
196.691
223
259.486
307.887
369.211
443.527
529.996
627.091
732.869
845.193
961.916
1080.98
1200.38
1317.94
1431.6
1539.54
1639.74
1729.73
1807.11
1870.48
1920.07
1957.43
1984.97
2005.11
2020.11
2031.71
2040.96
2048.65
2055.79
2062.69
2068.47
2073.82
2078.74
2083.37
2088.04
144.595
144.7
144.863
145.118
145.516
146.14
147.118
148.653
151.059
154.816
160.638
169.547
182.924
202.491
230.185
267.89
317.097
378.606
452.37
537.555
632.738
736.147
845.849
959.878
1076.35
1193.44
1309.24
1421.78
1529.28
1630.03
1721.93
1802.62
1870.3
1924.47
1966.05
1996.95
2019.59
2036.11
2048.57
2058.27
2066.11
2072.76
2079.18
2085.18
2090.28
2094.97
2099.28
2103.44
2107.64
2111.95
2116.37
145.027
145.359
145.87
146.66
147.88
149.767
152.676
157.14
163.929
174.111
189.074
210.483
240.124
279.65
330.285
392.592
466.387
550.811
644.524
745.904
853.207
964.652
1078.51
1193.14
1306.87
1417.84
1524.36
1624.88
1717.65
1800.53
1871.54
1929.64
1975.13
2009.43
2034.67
2053.03
2066.5
2076.74
2084.74
2091.19
2097.1
2102.91
2107.78
2112.2
2116.35
2120.17
2123.89
2127.7
2131.6
2135.57
2139.59
2143.68
147.419
148.983
151.363
154.97
160.403
168.499
180.376
197.424
221.231
253.405
295.341
347.974
411.62
485.944
570.056
662.682
762.341
867.46
976.44
1087.71
1199.78
1311.17
1420.22
1525.31
1624.98
1717.76
1801.78
1875.09
1936.31
1985.21
2022.73
2050.57
2070.87
2085.54
2096.4
2104.69
2111.22
2116.54
2121.69
2126.61
2130.7
2134.51
2138
2141.3
2144.64
2148.12
2151.65
2155.23
2158.86
2162.49
2166.11
2169.72
158.251
165.005
174.848
188.94
208.654
235.463
270.763
315.661
370.789
436.218
511.468
595.619
687.464
785.653
888.772
995.395
1104.11
1213.56
1322.43
1429.25
1532.51
1630.83
1722.9
1807.16
1881.78
1945.24
1996.89
2037.21
2067.54
2089.76
2105.8
2117.36
2125.96
2132.52
2137.64
2142.15
2146.66
2150.46
2153.84
2157.05
2159.96
2162.79
2165.73
2168.8
2171.96
2175.21
2178.49
2181.76
2185
2188.17
2191.26
2194.29
200.607
223.64
254.084
293.079
341.418
399.436
466.97
543.419
627.85
719.125
816.021
917.279
1021.63
1127.8
1234.58
1340.79
1445.14
1546.23
1642.77
1733.57
1817.29
1892.32
1957.11
2010.76
2053.35
2085.89
2109.91
2127.28
2139.67
2148.61
2155.27
2160.3
2164.19
2168
2171.72
2174.6
2177.35
2179.89
2182.21
2184.6
2187.16
2189.81
2192.58
2195.45
2198.36
2201.29
2204.2
2207.03
2209.77
2212.39
2214.88
2217.23
321.354
373.5
434.66
504.479
582.265
667.093
757.908
853.611
953.083
1055.2
1158.84
1262.9
1366.33
1468
1566.63
1661.01
1750.05
1832.61
1907.27
1972.54
2027.4
2071.64
2105.92
2131.53
2150.12
2163.37
2172.71
2179.44
2184.37
2188
2191.05
2194.18
2196.78
2199.01
2201.15
2203.03
2204.84
2206.79
2208.91
2211.15
2213.53
2216.01
2218.54
2221.1
2223.64
2226.15
2228.57
2230.87
2233.03
2235.02
2236.82
2238.44
549.329
628.445
713.665
804.027
898.551
996.252
1096.14
1197.21
1298.49
1399.03
1497.83
1593.74
1685.64
1772.52
1853.39
1927
1991.99
2047.29
2092.49
2128
2154.86
2174.5
2188.49
2198.25
2205.07
2209.92
2213.3
2215.75
2218.12
2220.48
2222.13
2223.73
2225.19
2226.46
2227.81
2229.33
2231
2232.83
2234.8
2236.88
2239.02
2241.2
2243.38
2245.53
2247.61
2249.6
2251.45
2253.15
2254.65
2255.94
2257.01
2257.84
857.645
950.923
1046.8
1144.41
1242.86
1341.27
1438.8
1534.56
1627.53
1716.65
1801.02
1879.74
1951.73
2015.77
2070.79
2116.29
2152.46
2180.13
2200.54
2215.12
2225.27
2232.16
2236.88
2240.05
2242.12
2243.72
2245.43
2246.77
2247.74
2248.72
2249.5
2250.23
2251.12
2252.2
2253.43
2254.84
2256.39
2258.05
2259.8
2261.6
2263.4
2265.19
2266.93
2268.58
2270.12
2271.51
2272.73
2273.75
2274.53
2275.07
2275.36
2275.33
1295.65
1391.09
1485.48
1578.05
1667.85
1753.93
1835.47
1911.65
1981.54
2044.03
2098.13
2143.27
2179.53
2207.56
2228.42
2243.37
2253.75
2260.7
2265.26
2268.22
2269.91
2270.9
2271.85
2272.83
2273.19
2273.6
2273.92
2274.06
2274.31
2274.76
2275.38
2276.18
2277.17
2278.3
2279.55
2280.89
2282.29
2283.71
2285.13
2286.51
2287.82
2289.04
2290.12
2291.05
2291.79
2292.31
2292.61
2292.6
2292.35
2291.8
2290.93
1628.06
1714.49
1797.29
1875.7
1949.02
2016.38
2076.82
2129.42
2173.61
2209.39
2237.3
2258.22
2273.29
2283.75
2290.7
2295.05
2297.71
2299.08
2299.57
2299.8
2300.12
2300.14
2299.86
2299.64
2299.29
2298.92
2298.7
2298.69
2298.87
2299.24
2299.8
2300.5
2301.34
2302.27
2303.27
2304.3
2305.34
2306.36
2307.32
2308.2
2308.97
2309.59
2310.05
2310.32
2310.33
2310.11
2309.64
2308.84
2307.74
2306.31
2304.54
1921.48
1991.61
2056.09
2114.04
2164.62
2207.33
2242.13
2269.44
2290.04
2304.94
2315.28
2322.05
2326.18
2328.54
2329.6
2329.52
2329.15
2328.76
2328.35
2327.5
2326.7
2325.85
2324.87
2324.01
2323.37
2322.92
2322.65
2322.6
2322.72
2323
2323.42
2323.93
2324.52
2325.16
2325.82
2326.47
2327.08
2327.62
2328.06
2328.38
2328.54
2328.5
2328.28
2327.84
2327.11
2326.1
2324.8
2323.17
2321.19
2318.87
2316.17
2203.62
2244.38
2277.71
2303.99
2323.89
2338.34
2348.34
2354.78
2358.62
2360.62
2361.21
2360.78
2359.88
2358.8
2357.72
2356.47
2354.99
2353.61
2352.12
2350.65
2349.36
2348.27
2347.37
2346.69
2346.22
2345.91
2345.77
2345.77
2345.87
2346.05
2346.29
2346.56
2346.84
2347.08
2347.28
2347.39
2347.38
2347.23
2346.94
2346.45
2345.73
2344.77
2343.56
2342.04
2340.22
2338.06
2335.56
2332.69
2329.45
2325.82
2340.88
2359.75
2373.44
2382.85
2388.85
2392.3
2393.87
2393.95
2393.18
2391.72
2390
2388.3
2386.63
2384.55
2382.56
2380.59
2378.52
2376.6
2374.9
2373.38
2372.07
2370.97
2370.07
2369.35
2368.79
2368.36
2368.05
2367.83
2367.68
2367.56
2367.45
2367.33
2367.16
2366.94
2366.62
2366.17
2365.57
2364.8
2363.83
2362.63
2361.18
2359.46
2357.44
2355.1
2352.43
2349.41
2346.02
2342.24
2338.07
2333.5
2418.79
2424.2
2427.12
2428.15
2427.81
2426.62
2424.63
2422.34
2420.03
2417.75
2415.26
2412.66
2410.17
2407.58
2405.05
2402.72
2400.6
2398.66
2396.95
2395.46
2394.14
2393.01
2392.03
2391.19
2390.47
2389.84
2389.29
2388.78
2388.29
2387.81
2387.29
2386.71
2386.05
2385.29
2384.4
2383.35
2382.11
2380.66
2378.98
2377.04
2374.82
2372.3
2369.46
2366.28
2362.74
2358.83
2354.54
2349.84
2344.75
2339.22
2463.44
2462.67
2460.97
2458.47
2455.64
2452.77
2449.93
2447.01
2443.81
2440.75
2437.71
2434.61
2431.7
2428.98
2426.45
2424.12
2422.01
2420.11
2418.39
2416.85
2415.47
2414.22
2413.1
2412.07
2411.11
2410.22
2409.35
2408.49
2407.61
2406.69
2405.7
2404.62
2403.42
2402.08
2400.56
2398.86
2396.94
2394.77
2392.34
2389.63
2386.62
2383.28
2379.59
2375.55
2371.14
2366.34
2361.13
2355.52
2349.5
2343.03
2493.17
2489.81
2486.43
2483
2479.56
2475.94
2472.32
2468.81
2465.19
2461.69
2458.42
2455.31
2452.39
2449.7
2447.21
2444.91
2442.8
2440.86
2439.07
2437.42
2435.9
2434.47
2433.13
2431.85
2430.6
2429.37
2428.13
2426.86
2425.54
2424.13
2422.62
2420.98
2419.19
2417.22
2415.05
2412.65
2410.01
2407.1
2403.91
2400.4
2396.57
2392.39
2387.85
2382.94
2377.64
2371.94
2365.83
2359.31
2352.35
2344.94
2516.91
2512.95
2508.92
2504.75
2500.71
2496.68
2492.65
2488.83
2485.18
2481.7
2478.43
2475.37
2472.5
2469.82
2467.33
2465
2462.82
2460.78
2458.86
2457.04
2455.31
2453.65
2452.02
2450.42
2448.82
2447.2
2445.54
2443.81
2441.98
2440.05
2437.97
2435.73
2433.31
2430.67
2427.81
2424.7
2421.31
2417.64
2413.65
2409.33
2404.67
2399.64
2394.25
2388.46
2382.27
2375.68
2368.66
2361.21
2353.39
2345.13
2538.01
2533.45
2528.97
2524.46
2520.1
2515.96
2511.95
2508.13
2504.52
2501.1
2497.87
2494.83
2491.95
2489.24
2486.68
2484.26
2481.95
2479.75
2477.64
2475.59
2473.6
2471.63
2469.67
2467.7
2465.7
2463.64
2461.5
2459.26
2456.89
2454.38
2451.69
2448.82
2445.73
2442.41
2438.83
2434.97
2430.82
2426.36
2421.56
2416.43
2410.93
2405.05
2398.79
2392.13
2385.05
2377.56
2369.69
2361.42
2352.73
2343.61
2552.18
2547.54
2543.04
2538.69
2534.58
2530.63
2526.87
2523.29
2519.89
2516.65
2513.57
2510.63
2507.83
2505.15
2502.57
2500.08
2497.66
2495.3
2492.97
2490.65
2488.34
2485.99
2483.6
2481.14
2478.6
2475.94
2473.15
2470.2
2467.08
2463.75
2460.21
2456.43
2452.39
2448.07
2443.46
2438.53
2433.27
2427.67
2421.7
2415.36
2408.64
2401.5
2393.97
2386.06
2377.76
2369.05
2359.93
2350.38
2340.38
2570.06
2565.44
2561
2556.72
2552.64
2548.73
2544.97
2541.38
2537.95
2534.65
2531.48
2528.43
2525.48
2522.62
2519.83
2517.1
2514.41
2511.75
2509.08
2506.4
2503.68
2500.91
2498.05
2495.1
2492.03
2488.81
2485.43
2481.87
2478.11
2474.12
2469.89
2465.4
2460.62
2455.55
2450.17
2444.45
2438.39
2431.97
2425.18
2417.99
2410.41
2402.47
2394.14
2385.41
2376.28
2366.73
2356.75
2346.36
2335.52
2587.38
2582.8
2578.4
2574.15
2570.06
2566.13
2562.35
2558.69
2555.17
2551.76
2548.45
2545.23
2542.08
2538.99
2535.95
2532.93
2529.92
2526.91
2523.86
2520.77
2517.61
2514.36
2511
2507.51
2503.88
2500.07
2496.08
2491.88
2487.45
2482.78
2477.84
2472.62
2467.1
2461.27
2455.11
2448.6
2441.73
2434.49
2426.86
2418.89
2410.53
2401.79
2392.66
2383.1
2373.13
2362.75
2351.96
2340.75
2329.1
2599.54
2595.13
2590.87
2586.75
2582.75
2578.88
2575.12
2571.46
2567.88
2564.38
2560.94
2557.55
2554.19
2550.84
2547.49
2544.12
2540.71
2537.24
2533.69
2530.04
2526.28
2522.39
2518.34
2514.11
2509.69
2505.06
2500.2
2495.09
2489.72
2484.06
2478.11
2471.83
2465.23
2458.29
2450.98
2443.31
2435.31
2426.92
2418.17
2409.02
2399.47
2389.51
2379.14
2368.37
2357.2
2345.62
2333.63
2321.21
2615.57
2611.12
2606.8
2602.59
2598.48
2594.48
2590.56
2586.72
2582.93
2579.2
2575.5
2571.81
2568.13
2564.43
2560.71
2556.93
2553.08
2549.15
2545.12
2540.96
2536.66
2532.19
2527.55
2522.71
2517.66
2512.37
2506.84
2501.03
2494.95
2488.56
2481.86
2474.83
2467.46
2459.74
2451.69
2443.28
2434.51
2425.36
2415.81
2405.86
2395.52
2384.77
2373.63
2362.08
2350.14
2337.8
2325.07
2311.92
2626.27
2621.84
2617.5
2613.24
2609.06
2604.94
2600.87
2596.83
2592.82
2588.81
2584.79
2580.75
2576.67
2572.52
2568.31
2563.99
2559.57
2555.01
2550.31
2545.44
2540.39
2535.14
2529.67
2523.96
2518.01
2511.78
2505.28
2498.47
2491.35
2483.9
2476.13
2468.04
2459.59
2450.81
2441.65
2432.1
2422.17
2411.84
2401.13
2390.02
2378.51
2366.62
2354.33
2341.66
2328.6
2315.16
2301.32
2640.48
2635.9
2631.39
2626.94
2622.54
2618.18
2613.84
2609.51
2605.18
2600.82
2596.43
2591.99
2587.49
2582.9
2578.2
2573.39
2568.45
2563.35
2558.08
2552.62
2546.97
2541.09
2534.97
2528.6
2521.97
2515.05
2507.83
2500.3
2492.47
2484.33
2475.85
2467.04
2457.86
2448.31
2438.39
2428.09
2417.41
2406.34
2394.88
2383.03
2370.8
2358.19
2345.19
2331.83
2318.09
2303.99
2289.5
2648.92
2644.2
2639.51
2634.85
2630.21
2625.56
2620.9
2616.21
2611.48
2606.68
2601.81
2596.85
2591.79
2586.59
2581.26
2575.77
2570.11
2564.25
2558.19
2551.91
2545.39
2538.62
2531.59
2524.26
2516.64
2508.75
2500.54
2492.03
2483.18
2473.99
2464.44
2454.53
2444.24
2433.59
2422.56
2411.15
2399.36
2387.19
2374.64
2361.71
2348.42
2334.75
2320.74
2306.36
2291.63
2276.52
2660.82
2655.85
2650.89
2645.94
2640.97
2635.98
2630.96
2625.88
2620.73
2615.5
2610.17
2604.73
2599.16
2593.45
2587.57
2581.52
2575.28
2568.83
2562.15
2555.24
2548.07
2540.63
2532.92
2524.95
2516.68
2508.12
2499.24
2490.02
2480.46
2470.55
2460.28
2449.66
2438.67
2427.3
2415.57
2403.46
2390.98
2378.13
2364.91
2351.33
2337.39
2323.1
2308.46
2293.48
2278.16
2262.46
2671.53
2666.28
2661.01
2655.73
2650.42
2645.05
2639.63
2634.13
2628.55
2622.86
2617.05
2611.11
2605.02
2598.76
2592.33
2585.7
2578.86
2571.8
2564.49
2556.93
2549.14
2541.08
2532.74
2524.12
2515.19
2505.94
2496.36
2486.45
2476.2
2465.59
2454.63
2443.32
2431.64
2419.59
2407.18
2394.41
2381.27
2367.78
2353.93
2339.73
2325.18
2310.29
2295.07
2279.52
2263.64
2247.4
2681.01
2675.44
2669.84
2664.2
2658.5
2652.74
2646.89
2640.95
2634.9
2628.73
2622.42
2615.96
2609.33
2602.52
2595.51
2588.29
2580.84
2573.17
2565.27
2557.11
2548.7
2540.01
2531.03
2521.74
2512.14
2502.22
2491.96
2481.38
2470.45
2459.17
2447.55
2435.56
2423.23
2410.53
2397.48
2384.08
2370.32
2356.22
2341.77
2326.98
2311.86
2296.4
2280.63
2264.54
2248.14
2231.4
2689.21
2683.29
2677.32
2671.3
2665.19
2659
2652.71
2646.31
2639.78
2633.11
2626.28
2619.28
2612.1
2604.72
2597.12
2589.33
2581.31
2573.05
2564.56
2555.8
2546.75
2537.41
2527.78
2517.84
2507.58
2497.01
2486.1
2474.86
2463.28
2451.36
2439.09
2426.47
2413.5
2400.19
2386.54
2372.53
2358.19
2343.51
2328.49
2313.15
2297.48
2281.5
2265.22
2248.63
2231.75
2214.54
2696.08
2689.79
2683.44
2677
2670.47
2663.83
2657.08
2650.19
2643.16
2635.98
2628.61
2621.06
2613.33
2605.41
2597.26
2588.9
2580.31
2571.46
2562.34
2552.96
2543.28
2533.31
2523.04
2512.47
2501.58
2490.36
2478.82
2466.95
2454.75
2442.21
2429.32
2416.11
2402.55
2388.65
2374.42
2359.85
2344.94
2329.71
2314.16
2298.3
2282.13
2265.66
2248.9
2231.86
2214.54
2196.9
2701.61
2694.92
2688.15
2681.29
2674.31
2667.21
2659.98
2652.59
2645.04
2637.33
2629.45
2621.39
2613.12
2604.65
2595.95
2587
2577.81
2568.36
2558.63
2548.63
2538.34
2527.76
2516.87
2505.68
2494.18
2482.35
2470.2
2457.73
2444.93
2431.8
2418.34
2404.55
2390.42
2375.97
2361.18
2346.07
2330.65
2314.9
2298.85
2282.5
2265.87
2248.95
2231.75
2214.29
2196.57
2178.55
2698.66
2691.45
2684.14
2676.7
2669.12
2661.39
2653.52
2645.48
2637.26
2628.87
2620.28
2611.46
2602.42
2593.14
2583.62
2573.84
2563.79
2553.47
2542.87
2531.99
2520.81
2509.32
2497.54
2485.44
2473.03
2460.3
2447.26
2433.89
2420.2
2406.18
2391.84
2377.18
2362.2
2346.9
2331.28
2315.36
2299.15
2282.63
2265.84
2248.77
2231.44
2213.85
2196.01
2177.92
2159.55
2700.98
2693.33
2685.55
2677.65
2669.61
2661.4
2653.05
2644.52
2635.79
2626.85
2617.71
2608.34
2598.73
2588.89
2578.79
2568.43
2557.81
2546.91
2535.74
2524.27
2512.51
2500.46
2488.1
2475.44
2462.47
2449.19
2435.6
2421.69
2407.46
2392.92
2378.06
2362.89
2347.41
2331.63
2315.55
2299.17
2282.51
2265.58
2248.37
2230.91
2213.2
2195.25
2177.07
2158.65
2139.97
2701.89
2693.81
2685.59
2677.23
2668.72
2660.04
2651.17
2642.12
2632.86
2623.39
2613.7
2603.78
2593.62
2583.22
2572.57
2561.65
2550.47
2539.01
2527.27
2515.25
2502.94
2490.34
2477.44
2464.24
2450.74
2436.93
2422.81
2408.38
2393.65
2378.61
2363.26
2347.62
2331.67
2315.44
2298.93
2282.13
2265.07
2247.75
2230.17
2212.35
2194.3
2176.03
2157.53
2138.83
2119.87
2692.94
2684.27
2675.43
2666.43
2657.24
2647.87
2638.29
2628.51
2618.51
2608.29
2597.84
2587.14
2576.2
2565
2553.54
2541.82
2529.82
2517.55
2505
2492.16
2479.03
2465.61
2451.89
2437.87
2423.56
2408.94
2394.03
2378.82
2363.31
2347.51
2331.43
2315.06
2298.41
2281.5
2264.32
2246.89
2229.21
2211.29
2193.15
2174.8
2156.24
2137.47
2118.51
2099.31
2690.7
2681.55
2672.23
2662.73
2653.05
2643.17
2633.09
2622.79
2612.27
2601.53
2590.55
2579.33
2567.87
2556.15
2544.17
2531.92
2519.41
2506.62
2493.56
2480.21
2466.57
2452.65
2438.44
2423.94
2409.14
2394.06
2378.69
2363.04
2347.1
2330.88
2314.39
2297.62
2280.6
2263.32
2245.79
2228.02
2210.03
2191.81
2173.38
2154.76
2135.94
2116.94
2097.75
2078.34
2687.07
2677.45
2667.65
2657.67
2647.49
2637.12
2626.54
2615.74
2604.72
2593.47
2581.99
2570.26
2558.29
2546.06
2533.58
2520.83
2507.82
2494.54
2480.98
2467.14
2453.03
2438.63
2423.95
2408.99
2393.76
2378.24
2362.44
2346.37
2330.03
2313.43
2296.56
2279.44
2262.07
2244.45
2226.61
2208.54
2190.26
2171.78
2153.1
2134.24
2115.2
2096
2076.62
2057.02
2682.09
2672
2661.73
2651.27
2640.62
2629.76
2618.69
2607.41
2595.9
2584.16
2572.19
2559.97
2547.51
2534.8
2521.83
2508.6
2495.1
2481.35
2467.32
2453.02
2438.45
2423.61
2408.5
2393.11
2377.46
2361.53
2345.34
2328.89
2312.18
2295.22
2278.01
2260.56
2242.87
2224.96
2206.84
2188.5
2169.97
2151.25
2132.36
2113.29
2094.07
2074.69
2055.14
2035.42
2665.25
2654.52
2643.6
2632.48
2621.15
2609.61
2597.85
2585.87
2573.65
2561.2
2548.51
2535.58
2522.39
2508.96
2495.27
2481.32
2467.11
2452.64
2437.9
2422.91
2407.65
2392.13
2376.35
2360.3
2344.01
2327.45
2310.65
2293.6
2276.32
2258.8
2241.05
2223.08
2204.91
2186.53
2167.96
2149.21
2130.29
2111.21
2091.97
2072.6
2053.07
2033.41
2013.57
2657.24
2646.06
2634.69
2623.11
2611.32
2599.32
2587.1
2574.65
2561.98
2549.07
2535.93
2522.54
2508.91
2495.03
2480.9
2466.52
2451.88
2437
2421.86
2406.46
2390.81
2374.91
2358.76
2342.36
2325.72
2308.83
2291.71
2274.35
2256.77
2238.98
2220.96
2202.75
2184.34
2165.75
2146.98
2128.04
2108.95
2089.71
2070.34
2050.83
2031.19
2011.44
1991.53
2648.02
2636.4
2624.58
2612.55
2600.32
2587.87
2575.2
2562.31
2549.2
2535.85
2522.27
2508.45
2494.39
2480.09
2465.55
2450.76
2435.73
2420.46
2404.93
2389.17
2373.16
2356.91
2340.41
2323.69
2306.73
2289.54
2272.13
2254.49
2236.65
2218.61
2200.36
2181.93
2163.32
2144.54
2125.6
2106.5
2087.27
2067.91
2048.42
2028.82
2009.11
1989.29
1969.32
2625.56
2613.3
2600.85
2588.18
2575.3
2562.21
2548.9
2535.36
2521.59
2507.59
2493.37
2478.91
2464.21
2449.28
2434.11
2418.71
2403.07
2387.19
2371.08
2354.74
2338.17
2321.36
2304.34
2287.09
2269.63
2251.96
2234.08
2216.01
2197.74
2179.3
2160.68
2141.89
2122.95
2103.87
2084.65
2065.31
2045.85
2026.29
2006.61
1986.86
1967
1947
2613.59
2600.92
2588.05
2574.97
2561.68
2548.17
2534.45
2520.51
2506.35
2491.96
2477.35
2462.51
2447.45
2432.15
2416.63
2400.88
2384.9
2368.7
2352.27
2335.62
2318.75
2301.67
2284.37
2266.86
2249.16
2231.26
2213.16
2194.89
2176.43
2157.81
2139.04
2120.11
2101.05
2081.85
2062.54