/*--------------------------------*- C++ -*----------------------------------*\
| =========                 |                                                 |
| \\      /  F ield         | OpenFOAM: The Open Source CFD Toolbox           |
|  \\    /   O peration     | Version:  v1706                                 |
|   \\  /    A nd           | Web:      www.OpenFOAM.com                      |
|    \\/     M anipulation  |                                                 |
\*---------------------------------------------------------------------------*/
FoamFile
{
    version     2.0;
    format      ascii;
    class       volScalarField;
    location    "8e-06";
    object      Tv;
}
// * * * * * * * * * * * * * * * * * * * * * * * * * * * * * * * * * * * * * //

dimensions      [0 0 0 1 0 0 0];


internalField   nonuniform List<scalar> 
30038
(
144.4
144.4
144.4
144.4
144.4
144.4
144.4
144.4
144.4
144.4
144.4
144.4
144.4
144.4
144.4
144.4
144.4
144.4
144.4
144.4
144.4
144.4
144.4
144.4
144.4
144.4
144.4
144.4
144.4
144.4
144.4
144.4
144.4
144.4
144.4
144.4
144.4
144.4
144.4
144.4
144.4
144.4
144.4
144.4
144.4
144.4
144.4
144.4
144.4
144.4
144.4
144.4
144.4
144.4
144.4
144.4
144.4
144.4
144.4
144.4
144.4
144.4
144.4
144.4
144.4
144.4
144.4
144.4
144.4
144.4
144.4
144.4
144.4
144.4
144.4
144.4
144.4
144.4
144.4
144.4
144.4
144.4
144.4
144.4
144.4
144.4
144.4
144.4
144.4
144.4
144.4
144.4
144.4
144.4
144.4
144.4
144.4
144.4
144.4
144.4
144.4
144.4
144.4
144.4
144.4
144.4
144.4
144.4
144.4
144.4
144.4
144.4
144.4
144.4
144.4
144.4
144.4
144.4
144.4
144.4
144.4
144.4
144.4
144.4
144.4
144.4
144.4
144.4
144.4
144.4
144.4
144.4
144.4
144.4
144.4
144.4
144.4
144.4
144.4
144.4
144.4
144.4
144.4
144.4
144.4
144.4
144.4
144.4
144.4
144.4
144.4
144.4
144.4
144.4
144.4
144.4
144.4
144.4
144.4
144.4
144.4
144.4
144.4
144.4
144.4
144.4
144.4
144.4
144.4
144.4
144.4
144.4
144.4
144.4
144.4
144.4
144.4
144.4
144.4
144.4
144.4
144.4
144.4
144.4
144.4
144.4
144.4
144.4
144.4
144.4
144.4
144.4
144.4
144.4
144.4
144.4
144.4
144.4
144.4
144.4
144.4
144.4
144.4
144.4
144.4
144.4
144.4
144.4
144.4
144.4
144.4
144.4
144.4
144.4
144.4
144.4
144.4
144.4
144.4
144.4
144.4
144.4
144.4
144.4
144.4
144.4
144.4
144.4
144.4
144.4
144.4
144.4
144.4
144.4
144.4
144.4
144.4
144.4
144.4
144.4
144.4
144.4
144.4
144.4
144.4
144.4
144.4
144.4
144.4
144.4
144.4
144.4
144.4
144.4
144.4
144.4
144.4
144.4
144.4
144.4
144.4
144.4
144.4
144.4
144.4
144.4
144.4
144.4
144.4
144.4
144.4
144.4
144.4
144.4
144.4
144.4
144.4
144.4
144.4
144.4
144.4
144.4
144.4
144.4
144.4
144.4
144.4
144.4
144.4
144.4
144.4
144.4
144.4
144.4
144.4
144.4
144.4
144.4
144.4
144.4
144.4
144.4
144.4
144.4
144.4
144.4
144.4
144.4
144.4
144.4
144.4
144.4
144.4
144.4
144.4
144.4
144.4
144.4
144.4
144.4
144.4
144.4
144.4
144.4
144.4
144.4
144.4
144.4
144.4
144.4
144.4
144.4
144.4
144.4
144.4
144.4
144.4
144.4
144.4
144.4
144.4
144.4
144.4
144.4
144.4
144.4
144.4
144.4
144.4
144.4
144.4
144.4
144.4
144.4
144.4
144.4
144.4
144.4
144.4
144.4
144.4
144.4
144.4
144.4
144.4
144.4
144.4
144.4
144.4
144.4
144.4
144.4
144.4
144.4
144.4
144.4
144.4
144.4
144.4
144.4
144.4
144.4
144.4
144.4
144.4
144.4
144.4
144.4
144.4
144.4
144.4
144.4
144.4
144.4
144.4
144.4
144.4
144.4
144.4
144.4
144.4
144.4
144.4
144.4
144.4
144.4
144.4
144.4
144.4
144.4
144.4
144.4
144.4
144.4
144.4
144.4
144.4
144.4
144.4
144.4
144.4
144.4
144.4
144.4
144.4
144.4
144.4
144.4
144.4
144.4
144.4
144.4
144.4
144.4
144.4
144.4
144.4
144.4
144.4
144.4
144.4
144.4
144.4
144.4
144.4
144.4
144.4
144.4
144.4
144.4
144.4
144.4
144.4
144.4
144.4
144.4
144.4
144.4
144.4
144.4
144.4
144.4
144.4
144.4
144.4
144.4
144.4
144.4
144.4
144.4
144.4
144.4
144.4
144.4
144.4
144.4
144.4
144.4
144.4
144.4
144.4
144.4
144.4
144.4
144.4
144.4
144.4
144.4
144.4
144.4
144.4
144.4
144.4
144.4
144.4
144.4
144.4
144.4
144.4
144.4
144.4
144.4
144.4
144.4
144.4
144.4
144.4
144.4
144.4
144.4
144.4
144.4
144.4
144.4
144.4
144.4
144.4
144.4
144.4
144.4
144.4
144.4
144.4
144.4
144.4
144.4
144.4
144.4
144.4
144.4
144.4
144.4
144.4
144.4
144.4
144.4
144.4
144.4
144.4
144.4
144.4
144.4
144.4
144.4
144.4
144.4
144.4
144.4
144.4
144.4
144.4
144.4
144.4
144.4
144.4
144.4
144.4
144.4
144.4
144.4
144.4
144.4
144.4
144.4
144.4
144.4
144.4
144.4
144.4
144.4
144.4
144.4
144.4
144.4
144.4
144.4
144.4
144.4
144.4
144.4
144.4
144.4
144.4
144.4
144.4
144.4
144.4
144.4
144.4
144.4
144.4
144.4
144.4
144.4
144.4
144.4
144.4
144.4
144.4
144.4
144.4
144.4
144.4
144.4
144.4
144.4
144.4
144.4
144.4
144.4
144.4
144.4
144.4
144.4
144.4
144.4
144.4
144.4
144.4
144.4
144.4
144.4
144.4
144.4
144.4
144.4
144.4
144.4
144.4
144.4
144.4
144.4
144.4
144.4
144.4
144.4
144.4
144.4
144.4
144.4
144.4
144.4
144.4
144.4
144.4
144.4
144.4
144.4
144.4
144.4
144.4
144.4
144.4
144.4
144.4
144.4
144.4
144.4
144.4
144.4
144.4
144.4
144.4
144.4
144.4
144.4
144.4
144.4
144.4
144.4
144.4
144.4
144.4
144.4
144.4
144.4
144.4
144.4
144.4
144.4
144.4
144.4
144.4
144.4
144.4
144.4
144.4
144.4
144.4
144.4
144.4
144.4
144.4
144.4
144.4
144.4
144.4
144.4
144.4
144.4
144.4
144.4
144.4
144.4
144.4
144.4
144.4
144.4
144.4
144.4
144.4
144.4
144.4
144.4
144.4
144.4
144.4
144.4
144.4
144.4
144.4
144.4
144.4
144.4
144.4
144.4
144.4
144.4
144.4
144.4
144.4
144.4
144.4
144.4
144.4
144.4
144.4
144.4
144.4
144.4
144.4
144.4
144.4
144.4
144.4
144.4
144.4
144.4
144.4
144.4
144.4
144.4
144.4
144.4
144.4
144.4
144.4
144.4
144.4
144.4
144.4
144.4
144.4
144.4
144.4
144.4
144.4
144.4
144.4
144.4
144.4
144.4
144.4
144.4
144.4
144.4
144.4
144.4
144.4
144.4
144.4
144.4
144.4
144.4
144.4
144.4
144.4
144.4
144.4
144.4
144.4
144.4
144.4
144.4
144.4
144.4
144.4
144.4
144.4
144.4
144.4
144.4
144.4
144.4
144.4
144.4
144.4
144.4
144.4
144.4
144.4
144.4
144.4
144.4
144.4
144.4
144.4
144.4
144.4
144.4
144.4
144.4
144.4
144.4
144.4
144.4
144.4
144.4
144.4
144.4
144.4
144.4
144.4
144.4
144.4
144.4
144.4
144.4
144.4
144.4
144.4
144.4
144.4
144.4
144.4
144.4
144.4
144.4
144.4
144.4
144.4
144.4
144.4
144.4
144.4
144.4
144.4
144.4
144.4
144.4
144.4
144.4
144.4
144.4
144.4
144.4
144.4
144.4
144.4
144.4
144.4
144.4
144.4
144.4
144.4
144.4
144.4
144.4
144.4
144.4
144.4
144.4
144.4
144.4
144.4
144.4
144.4
144.4
144.4
144.4
144.4
144.4
144.4
144.4
144.4
144.4
144.4
144.4
144.4
144.4
144.4
144.4
144.4
144.4
144.4
144.4
144.4
144.4
144.4
144.4
144.4
144.4
144.4
144.4
144.4
144.4
144.4
144.4
144.4
144.4
144.4
144.4
144.4
144.4
144.4
144.4
144.4
144.4
144.4
144.4
144.4
144.4
144.4
144.4
144.4
144.4
144.4
144.4
144.4
144.4
144.4
144.4
144.4
144.4
144.4
144.4
144.4
144.4
144.4
144.4
144.4
144.4
144.4
144.4
144.4
144.4
144.4
144.4
144.4
144.4
144.4
144.4
144.4
144.4
144.4
144.4
144.4
144.4
144.4
144.4
144.4
144.4
144.4
144.4
144.4
144.4
144.4
144.4
144.4
144.4
144.4
144.4
144.4
144.4
144.4
144.4
144.4
144.4
144.4
144.4
144.4
144.4
144.4
144.4
144.4
144.4
144.4
144.4
144.4
144.4
144.4
144.4
144.4
144.4
144.4
144.4
144.4
144.4
144.4
144.4
144.4
144.4
144.4
144.4
144.4
144.4
144.4
144.4
144.4
144.4
144.4
144.4
144.4
144.4
144.4
144.4
144.4
144.4
144.4
144.4
144.4
144.4
144.4
144.4
144.4
144.4
144.4
144.4
144.4
144.4
144.4
144.4
144.4
144.4
144.4
144.401
144.4
144.4
144.4
144.4
144.4
144.4
144.4
144.4
144.4
144.4
144.4
144.4
144.4
144.4
144.4
144.4
144.4
144.4
144.4
144.4
144.4
144.4
144.4
144.4
144.4
144.4
144.4
144.4
144.4
144.4
144.4
144.4
144.4
144.4
144.4
144.4
144.4
144.4
144.4
144.4
144.4
144.4
144.4
144.4
144.401
144.401
144.403
144.407
144.4
144.4
144.4
144.4
144.4
144.4
144.4
144.4
144.4
144.4
144.4
144.4
144.4
144.4
144.4
144.4
144.4
144.4
144.4
144.4
144.4
144.4
144.4
144.4
144.4
144.4
144.4
144.4
144.4
144.4
144.4
144.4
144.4
144.4
144.4
144.4
144.4
144.4
144.4
144.4
144.4
144.401
144.401
144.403
144.406
144.413
144.43
144.475
144.4
144.4
144.4
144.4
144.4
144.4
144.4
144.4
144.4
144.4
144.4
144.4
144.4
144.4
144.4
144.4
144.4
144.4
144.4
144.4
144.4
144.4
144.4
144.4
144.4
144.4
144.4
144.4
144.4
144.4
144.4
144.4
144.4
144.4
144.4
144.4
144.4
144.4
144.4
144.4
144.401
144.401
144.403
144.406
144.413
144.428
144.461
144.534
144.697
145.112
144.4
144.4
144.4
144.4
144.4
144.4
144.4
144.4
144.4
144.4
144.4
144.4
144.4
144.4
144.4
144.4
144.4
144.4
144.4
144.4
144.4
144.4
144.4
144.4
144.4
144.4
144.4
144.4
144.4
144.4
144.4
144.4
144.4
144.4
144.4
144.4
144.4
144.401
144.401
144.403
144.406
144.413
144.427
144.459
144.528
144.675
144.986
145.625
146.879
149.349
144.4
144.4
144.4
144.4
144.4
144.4
144.4
144.4
144.4
144.4
144.4
144.4
144.4
144.4
144.4
144.4
144.4
144.4
144.4
144.4
144.4
144.4
144.4
144.4
144.4
144.4
144.4
144.4
144.4
144.4
144.4
144.4
144.4
144.4
144.401
144.401
144.403
144.406
144.413
144.427
144.458
144.523
144.663
144.956
145.551
146.69
148.675
151.728
155.911
161.459
144.4
144.4
144.4
144.4
144.4
144.4
144.4
144.4
144.4
144.4
144.4
144.4
144.4
144.4
144.4
144.4
144.4
144.4
144.4
144.4
144.4
144.4
144.4
144.4
144.4
144.4
144.4
144.4
144.4
144.4
144.4
144.401
144.401
144.403
144.406
144.413
144.427
144.457
144.521
144.655
144.934
145.496
146.571
148.445
151.34
155.286
160.145
165.747
171.994
179.075
144.4
144.4
144.4
144.4
144.4
144.4
144.4
144.4
144.4
144.4
144.4
144.4
144.4
144.4
144.4
144.4
144.4
144.4
144.4
144.4
144.4
144.4
144.4
144.4
144.4
144.4
144.4
144.4
144.401
144.402
144.403
144.407
144.413
144.428
144.458
144.521
144.652
144.922
145.461
146.484
148.267
151.035
154.832
159.535
164.973
171.002
177.509
184.393
191.559
199.013
144.4
144.4
144.4
144.4
144.4
144.4
144.4
144.4
144.4
144.4
144.4
144.4
144.4
144.4
144.4
144.4
144.4
144.4
144.4
144.4
144.4
144.4
144.4
144.4
144.4
144.401
144.402
144.403
144.407
144.414
144.43
144.461
144.524
144.655
144.921
145.446
146.434
148.149
150.81
154.476
159.038
164.332
170.219
176.589
183.336
190.34
197.457
204.54
211.479
218.237
144.4
144.4
144.4
144.4
144.4
144.4
144.4
144.4
144.4
144.4
144.4
144.4
144.4
144.4
144.4
144.4
144.4
144.4
144.4
144.4
144.4
144.401
144.401
144.402
144.404
144.408
144.416
144.432
144.465
144.531
144.665
144.933
145.456
146.427
148.097
150.68
154.235
158.67
163.829
169.578
175.812
182.436
189.334
196.372
203.398
210.274
216.895
223.202
229.196
234.911
144.4
144.4
144.4
144.4
144.4
144.4
144.4
144.4
144.4
144.4
144.4
144.4
144.4
144.4
144.4
144.4
144.4
144.4
144.401
144.401
144.402
144.405
144.409
144.418
144.436
144.472
144.543
144.684
144.961
145.494
146.468
148.123
150.656
154.129
158.455
163.49
169.107
175.207
181.701
188.486
195.434
202.403
209.254
215.874
222.192
228.174
233.823
239.165
244.255
249.151
144.4
144.4
144.4
144.4
144.4
144.4
144.4
144.4
144.4
144.4
144.4
144.4
144.4
144.4
144.4
144.401
144.402
144.403
144.406
144.411
144.422
144.442
144.482
144.56
144.714
145.01
145.567
146.568
148.236
150.755
154.176
158.417
163.343
168.837
174.806
181.169
187.832
194.677
201.57
208.376
214.979
221.302
227.304
232.979
238.34
243.417
248.245
252.861
257.318
261.685
144.4
144.4
144.4
144.4
144.4
144.4
144.4
144.4
144.4
144.4
144.4
144.401
144.401
144.402
144.404
144.407
144.414
144.427
144.451
144.497
144.587
144.759
145.085
145.684
146.737
148.453
150.994
154.395
158.576
163.412
168.795
174.641
180.875
187.412
194.144
200.944
207.682
214.245
220.55
226.553
232.238
237.617
242.711
247.555
252.177
256.611
260.884
265.026
269.08
273.122
144.4
144.4
144.4
144.4
144.4
144.4
144.4
144.4
144.401
144.402
144.403
144.405
144.41
144.418
144.434
144.464
144.52
144.626
144.826
145.195
145.86
146.995
148.794
151.393
154.807
158.955
163.721
169.008
174.741
180.851
187.261
193.871
200.565
207.216
213.716
219.98
225.959
231.635
237.012
242.109
246.956
251.583
256.02
260.293
264.429
268.45
272.373
276.214
279.993
283.788
144.4
144.4
144.4
144.4
144.401
144.401
144.402
144.404
144.407
144.413
144.425
144.445
144.483
144.554
144.684
144.924
145.357
146.114
147.366
149.286
151.979
155.438
159.577
164.293
169.5
175.131
181.124
187.41
193.895
200.471
207.019
213.435
219.634
225.567
231.209
236.564
241.646
246.48
251.097
255.524
259.788
263.913
267.923
271.834
275.661
279.412
283.088
286.687
290.217
293.751
144.401
144.401
144.402
144.403
144.406
144.411
144.419
144.435
144.462
144.513
144.604
144.771
145.068
145.591
146.475
147.884
149.965
152.785
156.314
160.468
165.152
170.294
175.836
181.722
187.887
194.246
200.695
207.126
213.438
219.55
225.412
231
236.31
241.357
246.162
250.753
255.156
259.397
263.501
267.488
271.377
275.183
278.917
282.58
286.173
289.69
293.124
296.472
299.74
303.001
144.405
144.409
144.416
144.429
144.451
144.489
144.559
144.683
144.901
145.283
145.93
146.984
148.594
150.872
153.845
157.467
161.652
166.322
171.414
176.878
182.666
188.716
194.947
201.264
207.566
213.756
219.761
225.531
231.04
236.286
241.277
246.035
250.583
254.947
259.152
263.221
267.175
271.031
274.806
278.51
282.15
285.725
289.232
292.664
296.017
299.283
302.463
305.556
308.571
311.575
144.444
144.477
144.534
144.633
144.805
145.101
145.603
146.422
147.697
149.551
152.055
155.202
158.928
163.158
167.826
172.88
178.279
183.978
189.917
196.021
202.201
208.362
214.416
220.295
225.951
231.361
236.52
241.436
246.128
250.617
254.927
259.082
263.104
267.012
270.825
274.558
278.222
281.826
285.371
288.855
292.273
295.617
298.884
302.069
305.172
308.192
311.128
313.982
316.763
319.53
144.607
144.752
145
145.412
146.084
147.133
148.681
150.818
153.567
156.893
160.73
165.013
169.688
174.715
180.059
185.675
191.508
197.485
203.522
209.532
215.436
221.17
226.694
231.984
237.037
241.859
246.467
250.88
255.121
259.213
263.175
267.027
270.785
274.465
278.08
281.636
285.14
288.588
291.978
295.303
298.558
301.737
304.838
307.862
310.807
313.673
316.463
319.175
321.81
324.376
326.925
145.898
146.805
148.147
150.018
152.459
155.456
158.959
162.905
167.243
171.932
176.941
182.235
187.774
193.502
199.35
205.238
211.087
216.827
222.402
227.775
232.927
237.855
242.565
247.072
251.394
255.552
259.566
263.456
267.241
270.935
274.552
278.107
281.607
285.057
288.459
291.809
295.103
298.332
301.493
304.582
307.598
310.541
313.41
316.205
318.929
321.58
324.158
326.663
329.095
331.461
333.806
149.566
151.787
154.534
157.767
161.433
165.482
169.875
174.582
179.576
184.826
190.289
195.911
201.624
207.355
213.034
218.596
223.996
229.203
234.2
238.985
243.567
247.958
252.175
256.236
260.161
263.968
267.673
271.293
274.839
278.325
281.759
285.147
288.492
291.792
295.041
298.234
301.366
304.431
307.428
310.356
313.216
316.008
318.731
321.387
323.975
326.495
328.946
331.328
333.64
335.882
338.06
340.213
160.534
164.345
168.488
172.933
177.659
182.64
187.845
193.229
198.739
204.309
209.874
215.369
220.742
225.954
230.979
235.806
240.435
244.874
249.134
253.232
257.185
261.009
264.722
268.339
271.875
275.342
278.751
282.111
285.429
288.708
291.947
295.142
298.288
301.378
304.409
307.377
310.281
313.121
315.897
318.609
321.258
323.845
326.368
328.828
331.223
333.554
335.818
338.016
340.147
342.21
344.209
346.179
176.441
181.183
186.148
191.301
196.599
201.985
207.401
212.786
218.086
223.257
228.267
233.098
237.743
242.203
246.486
250.604
254.572
258.406
262.119
265.729
269.249
272.694
276.073
279.398
282.678
285.919
289.124
292.294
295.426
298.515
301.555
304.541
307.469
310.338
313.147
315.897
318.588
321.22
323.793
326.309
328.766
331.163
333.501
335.778
337.994
340.147
342.236
344.26
346.217
348.108
349.936
351.73
195.199
200.395
205.643
210.889
216.08
221.171
226.127
230.924
235.551
240.003
244.284
248.401
252.368
256.196
259.901
263.495
266.994
270.41
273.756
277.042
280.277
283.47
286.627
289.753
292.847
295.908
298.931
301.912
304.843
307.723
310.548
313.318
316.031
318.69
321.294
323.845
326.342
328.785
331.174
333.508
335.786
338.008
340.172
342.278
344.323
346.307
348.229
350.085
351.876
353.601
355.263
356.887
214.754
219.734
224.602
229.332
233.908
238.322
242.573
246.667
250.611
254.418
258.1
261.669
265.138
268.519
271.825
275.066
278.253
281.393
284.494
287.563
290.604
293.616
296.6
299.551
302.464
305.334
308.157
310.929
313.65
316.318
318.937
321.505
324.022
326.49
328.909
331.278
333.598
335.866
338.083
340.248
342.359
344.415
346.415
348.357
350.24
352.062
353.821
355.516
357.146
358.709
360.209
361.668
232.851
237.197
241.391
245.436
249.337
253.104
256.747
260.276
263.704
267.043
270.302
273.492
276.625
279.708
282.749
285.755
288.732
291.683
294.609
297.511
300.384
303.223
306.024
308.783
311.495
314.16
316.777
319.345
321.867
324.343
326.773
329.159
331.499
333.794
336.042
338.244
340.398
342.504
344.559
346.564
348.516
350.414
352.256
354.041
355.767
357.431
359.034
360.572
362.044
363.45
364.792
366.091
248.573
252.28
255.866
259.341
262.715
265.999
269.203
272.337
275.409
278.43
281.406
284.345
287.252
290.134
292.993
295.83
298.645
301.435
304.196
306.923
309.611
312.257
314.86
317.417
319.929
322.398
324.825
327.209
329.552
331.854
334.114
336.333
338.51
340.644
342.734
344.779
346.778
348.729
350.632
352.484
354.283
356.028
357.718
359.35
360.922
362.434
363.883
365.268
366.587
367.839
369.028
370.17
265.404
268.542
271.611
274.617
277.569
280.476
283.344
286.178
288.986
291.77
294.534
297.28
300.006
302.71
305.388
308.036
310.649
313.223
315.757
318.249
320.7
323.109
325.479
327.81
330.103
332.359
334.578
336.758
338.901
341.005
343.07
345.095
347.078
349.019
350.915
352.766
354.569
356.324
358.028
359.679
361.276
362.817
364.3
365.723
367.086
368.385
369.62
370.79
371.893
372.932
373.922
277.133
279.964
282.756
285.515
288.244
290.95
293.636
296.305
298.957
301.592
304.208
306.801
309.366
311.899
314.398
316.858
319.28
321.663
324.008
326.316
328.588
330.825
333.028
335.196
337.331
339.432
341.498
343.529
345.524
347.483
349.403
351.284
353.124
354.922
356.675
358.383
360.044
361.655
363.215
364.721
366.174
367.569
368.907
370.184
371.401
372.554
373.643
374.666
375.624
376.517
377.359
287.912
290.537
293.141
295.728
298.3
300.858
303.401
305.927
308.432
310.912
313.364
315.782
318.166
320.514
322.825
325.101
327.342
329.549
331.724
333.868
335.981
338.064
340.115
342.136
344.126
346.083
348.008
349.9
351.756
353.576
355.359
357.102
358.804
360.464
362.079
363.648
365.168
366.639
368.058
369.424
370.735
371.988
373.183
374.319
375.392
376.403
377.35
378.231
379.046
379.797
380.496
300.515
302.979
305.43
307.865
310.281
312.674
315.041
317.377
319.681
321.951
324.187
326.39
328.56
330.699
332.808
334.888
336.94
338.964
340.961
342.93
344.871
346.784
348.669
350.523
352.347
354.139
355.897
357.621
359.308
360.958
362.568
364.136
365.661
367.141
368.574
369.958
371.291
372.573
373.8
374.972
376.087
377.143
378.14
379.074
379.946
380.754
381.496
382.173
382.786
383.346
310.015
312.342
314.647
316.927
319.179
321.401
323.591
325.749
327.876
329.972
332.039
334.077
336.09
338.077
340.038
341.975
343.887
345.774
347.637
349.474
351.285
353.069
354.825
356.552
358.248
359.912
361.543
363.138
364.697
366.217
367.696
369.134
370.527
371.874
373.174
374.425
375.624
376.771
377.863
378.899
379.879
380.799
381.659
382.458
383.195
383.867
384.475
385.018
385.497
385.921
319.018
321.184
323.323
325.431
327.509
329.557
331.577
333.569
335.535
337.477
339.394
341.289
343.162
345.013
346.841
348.648
350.432
352.194
353.932
355.645
357.333
358.995
360.628
362.233
363.806
365.346
366.853
368.323
369.756
371.149
372.501
373.81
375.074
376.292
377.461
378.581
379.648
380.663
381.623
382.528
383.374
384.162
384.89
385.557
386.162
386.703
387.18
387.593
387.942
388.235
327.465
329.462
331.43
333.371
335.287
337.178
339.046
340.893
342.719
344.524
346.309
348.076
349.822
351.549
353.256
354.943
356.608
358.252
359.872
361.468
363.039
364.582
366.098
367.583
369.036
370.456
371.841
373.189
374.498
375.767
376.994
378.177
379.314
380.405
381.446
382.437
383.376
384.262
385.093
385.868
386.586
387.245
387.844
388.383
388.859
389.273
389.624
389.91
390.133
390.299
335.352
337.19
339.004
340.797
342.571
344.325
346.06
347.778
349.479
351.162
352.828
354.476
356.107
357.72
359.313
360.887
362.44
363.971
365.478
366.961
368.418
369.847
371.247
372.615
373.951
375.253
376.518
377.746
378.934
380.081
381.185
382.245
383.258
384.223
385.14
386.005
386.819
387.579
388.284
388.933
389.525
390.059
390.533
390.947
391.299
391.589
391.817
391.98
392.081
392.122
342.726
344.424
346.105
347.769
349.417
351.05
352.667
354.269
355.856
357.428
358.983
360.523
362.045
363.55
365.036
366.502
367.946
369.368
370.766
372.139
373.484
374.801
376.088
377.342
378.563
379.748
380.896
382.006
383.075
384.102
385.085
386.024
386.915
387.759
388.553
389.296
389.986
390.624
391.206
391.733
392.202
392.614
392.967
393.26
393.492
393.663
393.77
393.816
393.797
393.728
349.647
351.224
352.787
354.336
355.872
357.395
358.904
360.4
361.883
363.35
364.802
366.239
367.658
369.059
370.441
371.803
373.142
374.458
375.749
377.013
378.249
379.456
380.631
381.773
382.88
383.951
384.984
385.977
386.929
387.839
388.704
389.524
390.296
391.021
391.695
392.318
392.89
393.407
393.871
394.278
394.63
394.923
395.158
395.334
395.449
395.505
395.494
395.43
395.302
395.116
357.635
359.092
360.537
361.971
363.393
364.803
366.199
367.583
368.951
370.305
371.642
372.962
374.263
375.543
376.802
378.039
379.25
380.436
381.594
382.722
383.82
384.885
385.917
386.912
387.871
388.79
389.67
390.507
391.302
392.051
392.755
393.412
394.019
394.577
395.084
395.539
395.941
396.288
396.581
396.817
396.996
397.116
397.18
397.178
397.126
397.01
396.833
396.595
396.298
363.693
365.053
366.403
367.741
369.068
370.384
371.686
372.975
374.248
375.506
376.747
377.969
379.172
380.353
381.512
382.646
383.755
384.837
385.89
386.913
387.903
388.861
389.783
390.669
391.517
392.326
393.093
393.819
394.5
395.137
395.728
396.271
396.765
397.21
397.604
397.946
398.235
398.47
398.651
398.774
398.844
398.85
398.807
398.703
398.54
398.317
398.033
397.689
397.287
369.427
370.696
371.955
373.203
374.44
375.665
376.876
378.072
379.253
380.418
381.564
382.69
383.796
384.88
385.939
386.974
387.981
388.961
389.911
390.829
391.714
392.566
393.381
394.159
394.899
395.598
396.257
396.872
397.444
397.971
398.451
398.884
399.268
399.602
399.886
400.118
400.299
400.424
400.498
400.511
400.474
400.381
400.23
400.021
399.753
399.427
399.041
398.595
398.092
376.039
377.212
378.373
379.522
380.659
381.781
382.887
383.977
385.049
386.102
387.135
388.145
389.132
390.094
391.03
391.937
392.816
393.664
394.479
395.261
396.008
396.719
397.391
398.025
398.618
399.169
399.678
400.142
400.561
400.934
401.26
401.537
401.764
401.942
402.067
402.143
402.161
402.13
402.045
401.904
401.708
401.455
401.145
400.777
400.351
399.866
399.323
398.722
381.098
382.186
383.263
384.326
385.376
386.41
387.428
388.428
389.41
390.371
391.31
392.226
393.117
393.983
394.821
395.631
396.41
397.158
397.872
398.553
399.197
399.805
400.374
400.904
401.393
401.84
402.244
402.604
402.919
403.188
403.409
403.582
403.706
403.781
403.802
403.774
403.696
403.564
403.378
403.138
402.842
402.491
402.084
401.62
401.098
400.519
399.881
399.186
386.888
387.882
388.861
389.825
390.773
391.703
392.615
393.506
394.376
395.224
396.047
396.844
397.615
398.357
399.07
399.751
400.4
401.016
401.596
402.141
402.648
403.116
403.545
403.932
404.278
404.58
404.839
405.052
405.22
405.34
405.413
405.435
405.41
405.336
405.21
405.033
404.804
404.521
404.185
403.794
403.349
402.848
402.291
401.678
401.007
400.279
399.493
391.327
392.238
393.134
394.014
394.876
395.72
396.544
397.347
398.127
398.883
399.615
400.319
400.996
401.644
402.261
402.847
403.4
403.918
404.401
404.848
405.256
405.626
405.956
406.245
406.492
406.696
406.856
406.97
407.041
407.062
407.037
406.966
406.845
406.675
406.454
406.182
405.859
405.483
405.055
404.573
404.037
403.446
402.8
402.099
401.34
400.524
399.65
396.34
397.153
397.95
398.727
399.486
400.223
400.938
401.63
402.296
402.937
403.551
404.135
404.69
405.214
405.706
406.164
406.588
406.975
407.326
407.639
407.913
408.147
408.34
408.492
408.599
408.664
408.682
408.657
408.587
408.469
408.304
408.09
407.827
407.515
407.152
406.739
406.274
405.756
405.187
404.564
403.887
403.155
402.368
401.524
400.626
399.676
400.193
400.925
401.639
402.333
403.007
403.658
404.287
404.891
405.47
406.021
406.545
407.04
407.504
407.936
408.336
408.701
409.032
409.327
409.585
409.805
409.985
410.127
410.225
410.285
410.298
410.271
410.2
410.084
409.922
409.713
409.458
409.154
408.803
408.402
407.952
407.452
406.901
406.299
405.644
404.937
404.177
403.362
402.493
401.575
400.602
399.575
403.805
404.456
405.088
405.7
406.29
406.857
407.401
407.919
408.411
408.875
409.311
409.716
410.091
410.434
410.744
411.02
411.26
411.465
411.632
411.761
411.85
411.903
411.909
411.879
411.806
411.689
411.529
411.324
411.074
410.778
410.436
410.047
409.61
409.124
408.59
408.007
407.373
406.689
405.953
405.166
404.324
403.435
402.494
401.501
400.453
399.349
407.181
407.753
408.305
408.835
409.343
409.827
410.286
410.72
411.127
411.505
411.855
412.174
412.462
412.717
412.939
413.127
413.28
413.396
413.475
413.518
413.517
413.482
413.405
413.287
413.127
412.924
412.678
412.388
412.053
411.673
411.247
410.775
410.256
409.69
409.075
408.412
407.698
406.935
406.12
405.257
404.346
403.385
402.372
401.305
400.183
399.006
410.329
410.822
411.294
411.744
412.171
412.574
412.951
413.301
413.625
413.919
414.184
414.419
414.622
414.792
414.93
415.031
415.099
415.13
415.122
415.08
414.998
414.877
414.715
414.513
414.269
413.983
413.655
413.283
412.866
412.406
411.9
411.348
410.75
410.106
409.413
408.673
407.882
407.044
406.16
405.228
404.247
403.214
402.128
400.99
399.799
398.553
413.255
413.67
414.064
414.435
414.782
415.105
415.401
415.671
415.912
416.125
416.308
416.46
416.581
416.667
416.722
416.741
416.724
416.675
416.585
416.46
416.296
416.093
415.85
415.566
415.242
414.876
414.468
414.017
413.523
412.984
412.401
411.774
411.1
410.38
409.612
408.797
407.938
407.033
406.081
405.08
404.028
402.925
401.772
400.567
399.309
397.996
415.964
416.304
416.62
416.914
417.183
417.427
417.645
417.835
417.997
418.13
418.233
418.304
418.345
418.349
418.324
418.264
418.168
418.037
417.869
417.663
417.42
417.138
416.816
416.455
416.053
415.61
415.126
414.599
414.029
413.416
412.759
412.058
411.311
410.517
409.682
408.801
407.877
406.905
405.884
404.814
403.696
402.528
401.31
400.041
398.72
397.344
418.729
418.971
419.188
419.381
419.548
419.689
419.802
419.886
419.941
419.966
419.957
419.921
419.85
419.746
419.608
419.435
419.226
418.98
418.698
418.378
418.02
417.623
417.186
416.71
416.193
415.635
415.035
414.393
413.708
412.98
412.207
411.392
410.535
409.635
408.69
407.698
406.66
405.574
404.44
403.259
402.028
400.748
399.418
398.037
396.602
420.953
421.121
421.264
421.383
421.475
421.54
421.579
421.586
421.565
421.516
421.433
421.32
421.173
420.994
420.78
420.531
420.248
419.928
419.572
419.178
418.747
418.277
417.768
417.22
416.632
416.003
415.333
414.621
413.866
413.071
412.235
411.358
410.438
409.473
408.463
407.407
406.306
405.158
403.964
402.722
401.432
400.094
398.706
397.267
395.775
422.983
423.079
423.15
423.196
423.215
423.205
423.171
423.107
423.013
422.889
422.733
422.546
422.327
422.074
421.788
421.467
421.111
420.719
420.291
419.827
419.325
418.785
418.207
417.59
416.933
416.236
415.498
414.72
413.904
413.047
412.151
411.21
410.227
409.199
408.128
407.012
405.851
404.644
403.392
402.093
400.747
399.353
397.91
396.416
394.87
424.852
424.85
424.826
424.775
424.695
424.589
424.453
424.288
424.093
423.866
423.608
423.318
422.995
422.638
422.247
421.822
421.361
420.865
420.332
419.762
419.155
418.51
417.827
417.103
416.341
415.543
414.705
413.829
412.912
411.952
410.951
409.907
408.821
407.691
406.518
405.3
404.038
402.731
401.377
399.977
398.53
397.035
395.489
393.891
426.445
426.376
426.282
426.162
426.014
425.838
425.633
425.399
425.135
424.839
424.513
424.154
423.763
423.339
422.881
422.388
421.861
421.299
420.7
420.065
419.393
418.683
417.935
417.153
416.332
415.476
414.579
413.642
412.664
411.646
410.587
409.486
408.344
407.159
405.931
404.66
403.345
401.985
400.58
399.129
397.632
396.086
394.492
392.845
427.866
427.731
427.57
427.383
427.168
426.925
426.653
426.352
426.021
425.66
425.267
424.843
424.386
423.897
423.374
422.817
422.226
421.599
420.938
420.239
419.504
418.736
417.931
417.092
416.214
415.298
414.342
413.348
412.314
411.24
410.126
408.971
407.775
406.538
405.258
403.936
402.57
401.161
399.707
398.207
396.662
395.07
393.429
391.736
429.122
428.922
428.696
428.444
428.164
427.857
427.52
427.155
426.76
426.334
425.878
425.39
424.87
424.318
423.733
423.113
422.461
421.772
421.049
420.294
419.503
418.679
417.819
416.921
415.986
415.013
414.002
412.953
411.866
410.739
409.573
408.366
407.12
405.832
404.504
403.133
401.719
400.263
398.762
397.217
395.627
393.99
392.305
390.569
429.957
429.668
429.353
429.01
428.64
428.242
427.814
427.357
426.87
426.352
425.803
425.222
424.609
423.964
423.284
422.571
421.827
421.049
420.24
419.395
418.514
417.598
416.645
415.655
414.629
413.566
412.465
411.326
410.149
408.933
407.678
406.383
405.048
403.673
402.256
400.798
399.296
397.752
396.164
394.531
392.852
391.125
389.348
430.841
430.492
430.116
429.713
429.282
428.823
428.336
427.819
427.272
426.695
426.087
425.447
424.775
424.071
423.338
422.571
421.774
420.944
420.078
419.179
418.244
417.274
416.269
415.228
414.151
413.038
411.888
410.7
409.475
408.212
406.911
405.571
404.191
402.771
401.311
399.81
398.266
396.68
395.051
393.378
391.659
389.894
388.077
431.582
431.174
430.739
430.278
429.789
429.272
428.726
428.152
427.547
426.913
426.247
425.551
424.827
424.07
423.285
422.467
421.616
420.731
419.813
418.861
417.875
416.855
415.8
414.71
413.585
412.424
411.227
409.994
408.723
407.416
406.07
404.687
403.265
401.803
400.302
398.76
397.177
395.552
393.884
392.173
390.417
388.614
386.762
431.72
431.229
430.711
430.166
429.593
428.991
428.361
427.701
427.011
426.295
425.547
424.772
423.966
423.127
422.256
421.353
420.418
419.45
418.448
417.414
416.346
415.243
414.107
412.936
411.73
410.488
409.211
407.898
406.548
405.161
403.737
402.274
400.773
399.233
397.653
396.032
394.37
392.667
390.92
389.128
387.292
385.405
432.138
431.592
431.02
430.42
429.793
429.136
428.453
427.743
427.004
426.237
425.441
424.613
423.755
422.866
421.946
420.994
420.01
418.994
417.946
416.865
415.751
414.604
413.423
412.209
410.96
409.676