/*--------------------------------*- C++ -*----------------------------------*\
| =========                 |                                                 |
| \\      /  F ield         | OpenFOAM: The Open Source CFD Toolbox           |
|  \\    /   O peration     | Version:  v1706                                 |
|   \\  /    A nd           | Web:      www.OpenFOAM.com                      |
|    \\/     M anipulation  |                                                 |
\*---------------------------------------------------------------------------*/
FoamFile
{
    version     2.0;
    format      ascii;
    class       volVectorField;
    location    "8e-06";
    object      U;
}
// * * * * * * * * * * * * * * * * * * * * * * * * * * * * * * * * * * * * * //

dimensions      [0 1 -1 0 0 0 0];


internalField   nonuniform List<vector> 
30038
(
(2764.5 -3.70199e-11 1.11962e-14)
(2764.5 -3.36362e-11 4.46181e-16)
(2764.5 -3.43464e-11 6.03752e-15)
(2764.5 -3.61002e-11 4.97453e-15)
(2764.5 -3.93691e-11 5.21564e-15)
(2764.5 -3.67456e-11 3.89781e-15)
(2764.5 -3.95153e-11 5.26103e-15)
(2764.5 -3.81946e-11 1.06461e-14)
(2764.5 -3.94599e-11 7.22551e-15)
(2764.5 -3.82235e-11 2.16129e-15)
(2764.5 -3.39365e-11 9.13178e-15)
(2764.5 -3.65079e-11 9.13495e-15)
(2764.5 -3.97125e-11 5.2566e-15)
(2764.5 -4.10985e-11 3.50402e-15)
(2764.5 -4.54355e-11 3.33984e-15)
(2764.5 -4.37784e-11 1.0359e-14)
(2764.5 -4.79079e-11 7.41202e-15)
(2764.5 -4.8995e-11 2.29761e-15)
(2764.5 -4.66754e-11 2.50828e-15)
(2764.5 -4.94327e-11 9.33368e-15)
(2764.5 -5.15322e-11 6.51124e-15)
(2764.5 -5.45851e-11 7.9786e-15)
(2764.5 -5.77417e-11 -5.76955e-16)
(2764.5 -6.06742e-11 7.44325e-15)
(2764.5 -6.18496e-11 7.6921e-15)
(2764.5 -6.16556e-11 4.04267e-15)
(2764.5 -5.86182e-11 1.57516e-15)
(2764.5 -6.09735e-11 4.89607e-15)
(2764.5 -6.33502e-11 8.74262e-15)
(2764.5 -6.3936e-11 1.16161e-14)
(2764.5 -6.14773e-11 5.20774e-15)
(2764.5 -6.50506e-11 1.00778e-14)
(2764.5 -6.70797e-11 7.03139e-15)
(2764.5 -6.90235e-11 4.46862e-15)
(2764.5 -7.3411e-11 1.03366e-14)
(2764.5 -7.78899e-11 9.3772e-15)
(2764.5 -7.49811e-11 9.69329e-16)
(2764.5 -7.80577e-11 4.1429e-15)
(2764.5 -1.19561e-10 2.12763e-14)
(2764.5 -1.17903e-10 1.87242e-14)
(2764.5 -1.22085e-10 2.23646e-14)
(2764.5 -1.09601e-10 1.67862e-14)
(2764.5 -1.18011e-10 2.45806e-14)
(2764.5 -1.16996e-10 2.06314e-14)
(2764.5 -1.18046e-10 2.15666e-14)
(2764.5 -1.19547e-10 2.61963e-14)
(2764.5 -1.24465e-10 1.8244e-14)
(2764.5 -1.30239e-10 1.95204e-14)
(2764.5 -1.33772e-10 2.61789e-14)
(2764.5 -1.27765e-10 1.62064e-14)
(2764.5 -1.31499e-10 1.69831e-14)
(2764.5 -1.23841e-10 1.84072e-14)
(2764.5 -1.28391e-10 1.68658e-14)
(2764.5 -1.33435e-10 2.09421e-14)
(2764.5 -1.30585e-10 1.90699e-14)
(2764.5 -1.41633e-10 1.94893e-14)
(2764.5 -1.42007e-10 1.70107e-14)
(2764.5 -1.42007e-10 1.90311e-14)
(2764.5 -1.43175e-10 1.59194e-14)
(2764.5 -1.4538e-10 2.06971e-14)
(2764.5 -1.46712e-10 2.09193e-14)
(2764.5 -1.53082e-10 1.98924e-14)
(2764.5 -1.53629e-10 1.7388e-14)
(2764.5 -1.62713e-10 1.81303e-14)
(2764.5 -1.63123e-10 1.87297e-14)
(2764.5 -1.63744e-10 1.63474e-14)
(2764.5 -1.67428e-10 1.93454e-14)
(2764.5 -1.74694e-10 2.54519e-14)
(2764.5 -1.7712e-10 1.03939e-14)
(2764.5 -1.75618e-10 2.23126e-14)
(2764.5 -1.84507e-10 2.75355e-14)
(2764.5 -1.83195e-10 2.17239e-14)
(2764.5 -1.89307e-10 2.58489e-14)
(2764.5 -1.94019e-10 1.95108e-14)
(2764.5 -2.05927e-10 1.92577e-14)
(2764.5 -2.13266e-10 2.07554e-14)
(2764.5 -1.87027e-10 3.15575e-14)
(2764.5 -1.90512e-10 3.46685e-14)
(2764.5 -1.96726e-10 3.61332e-14)
(2764.5 -1.91618e-10 2.84579e-14)
(2764.5 -1.95878e-10 3.23529e-14)
(2764.5 -1.98053e-10 3.1286e-14)
(2764.5 -1.99104e-10 3.71969e-14)
(2764.5 -1.99762e-10 3.13969e-14)
(2764.5 -2.02182e-10 2.86896e-14)
(2764.5 -2.06706e-10 3.13046e-14)
(2764.5 -2.13944e-10 2.78979e-14)
(2764.5 -2.16937e-10 2.90698e-14)
(2764.5 -2.20448e-10 2.90444e-14)
(2764.5 -2.17695e-10 3.35497e-14)
(2764.5 -2.14861e-10 3.10439e-14)
(2764.5 -2.18453e-10 3.56443e-14)
(2764.5 -2.20294e-10 3.42276e-14)
(2764.5 -2.25555e-10 3.51633e-14)
(2764.5 -2.31397e-10 3.23615e-14)
(2764.5 -2.35201e-10 3.1893e-14)
(2764.5 -2.37929e-10 2.86614e-14)
(2764.5 -2.40765e-10 3.36263e-14)
(2764.5 -2.42471e-10 2.91357e-14)
(2764.5 -2.47951e-10 2.64703e-14)
(2764.5 -2.54302e-10 3.21135e-14)
(2764.5 -2.61733e-10 3.41498e-14)
(2764.5 -2.66517e-10 3.12013e-14)
(2764.5 -2.69837e-10 2.7142e-14)
(2764.5 -2.72672e-10 2.82601e-14)
(2764.5 -2.79699e-10 3.22559e-14)
(2764.5 -2.87579e-10 3.00932e-14)
(2764.5 -2.87327e-10 3.33062e-14)
(2764.5 -2.90829e-10 3.17591e-14)
(2764.5 -2.94208e-10 3.30285e-14)
(2764.5 -2.99528e-10 3.41363e-14)
(2764.5 -3.00339e-10 3.73859e-14)
(2764.5 -3.09835e-10 3.08665e-14)
(2764.5 -3.1796e-10 3.21342e-14)
(2764.5 -2.43848e-10 4.37745e-14)
(2764.5 -2.53255e-10 4.49203e-14)
(2764.5 -2.61506e-10 4.61137e-14)
(2764.5 -2.63013e-10 4.06947e-14)
(2764.5 -2.66064e-10 4.8709e-14)
(2764.5 -2.69635e-10 4.21221e-14)
(2764.5 -2.72975e-10 4.23458e-14)
(2764.5 -2.7526e-10 4.05197e-14)
(2764.5 -2.77583e-10 4.54137e-14)
(2764.5 -2.80179e-10 3.92011e-14)
(2764.5 -2.88437e-10 4.41646e-14)
(2764.5 -2.93985e-10 4.27296e-14)
(2764.5 -3.0003e-10 4.61429e-14)
(2764.5 -3.03459e-10 4.22243e-14)
(2764.5 -3.02806e-10 4.04009e-14)
(2764.5 -3.03596e-10 4.45954e-14)
(2764.5 -3.0383e-10 3.80462e-14)
(2764.5 -3.07755e-10 4.21034e-14)
(2764.5 -3.09836e-10 4.51631e-14)
(2764.5 -3.15651e-10 4.46193e-14)
(2764.5 -3.21357e-10 4.28667e-14)
(2764.5 -3.25937e-10 4.04924e-14)
(2764.5 -3.28045e-10 4.34182e-14)
(2764.5 -3.32205e-10 4.74816e-14)
(2764.5 -3.36e-10 4.41393e-14)
(2764.5 -3.43168e-10 4.47915e-14)
(2764.5 -3.52832e-10 4.4593e-14)
(2764.5 -3.618e-10 4.27383e-14)
(2764.5 -3.68693e-10 4.19999e-14)
(2764.5 -3.74577e-10 4.82768e-14)
(2764.5 -3.86431e-10 4.53397e-14)
(2764.5 -3.95148e-10 4.70229e-14)
(2764.5 -4.00041e-10 4.61924e-14)
(2764.5 -4.03584e-10 4.52158e-14)
(2764.5 -4.11296e-10 4.61945e-14)
(2764.5 -4.14705e-10 4.96002e-14)
(2764.5 -4.25001e-10 4.82722e-14)
(2764.5 -4.35668e-10 4.90122e-14)
(2764.5 -3.06488e-10 5.5858e-14)
(2764.5 -3.10232e-10 5.69845e-14)
(2764.5 -3.17856e-10 5.94376e-14)
(2764.5 -3.21709e-10 5.81444e-14)
(2764.5 -3.25634e-10 5.66319e-14)
(2764.5 -3.33566e-10 5.35498e-14)
(2764.5 -3.39687e-10 5.85533e-14)
(2764.5 -3.42833e-10 5.8832e-14)
(2764.5 -3.45667e-10 6.00028e-14)
(2764.5 -3.48563e-10 5.75947e-14)
(2764.5 -3.55384e-10 5.65696e-14)
(2764.5 -3.62178e-10 5.43395e-14)
(2764.5 -3.68276e-10 5.37053e-14)
(2764.5 -3.7608e-10 5.14235e-14)
(2764.5 -3.78334e-10 5.40105e-14)
(2764.5 -3.8262e-10 5.73591e-14)
(2764.5 -3.86249e-10 6.05539e-14)
(2764.5 -3.9091e-10 5.9282e-14)
(2764.5 -3.93409e-10 5.3798e-14)
(2764.5 -3.97632e-10 6.03552e-14)
(2764.5 -4.03063e-10 5.78588e-14)
(2764.5 -4.10842e-10 4.92148e-14)
(2764.5 -4.15061e-10 5.88533e-14)
(2764.5 -4.20213e-10 5.73931e-14)
(2764.5 -4.24717e-10 5.81444e-14)
(2764.5 -4.29531e-10 6.00268e-14)
(2764.5 -4.35224e-10 6.43588e-14)
(2764.5 -4.441e-10 5.57921e-14)
(2764.5 -4.51404e-10 5.07371e-14)
(2764.5 -4.58529e-10 4.94545e-14)
(2764.5 -4.69618e-10 5.12728e-14)
(2764.5 -4.81017e-10 6.0931e-14)
(2764.5 -4.89327e-10 6.02822e-14)
(2764.5 -4.96947e-10 5.92759e-14)
(2764.5 -5.05987e-10 5.72251e-14)
(2764.5 -5.12154e-10 5.81946e-14)
(2764.5 -5.2269e-10 6.23853e-14)
(2764.5 -5.34394e-10 6.275e-14)
(2764.5 -3.7031e-10 7.17124e-14)
(2764.5 -3.7238e-10 7.39366e-14)
(2764.5 -3.78492e-10 7.15088e-14)
(2764.5 -3.83128e-10 6.2667e-14)
(2764.5 -3.87264e-10 6.426e-14)
(2764.5 -3.94442e-10 6.62514e-14)
(2764.5 -4.03506e-10 6.06816e-14)
(2764.5 -4.0876e-10 7.11748e-14)
(2764.5 -4.12658e-10 7.60557e-14)
(2764.5 -4.14436e-10 7.06622e-14)
(2764.5 -4.19366e-10 7.16411e-14)
(2764.5 -4.26468e-10 6.95084e-14)
(2764.5 -4.33779e-10 6.76743e-14)
(2764.5 -4.43423e-10 7.00293e-14)
(2764.5 -4.51368e-10 7.03573e-14)
(2764.5 -4.53942e-10 6.77009e-14)
(2764.5 -4.59265e-10 7.299e-14)
(2764.5 -4.65085e-10 7.24757e-14)
(2764.5 -4.69297e-10 6.59656e-14)
(2764.5 -4.753e-10 6.9686e-14)
(2764.5 -4.79824e-10 7.09039e-14)
(2764.5 -4.8668e-10 7.3101e-14)
(2764.5 -4.9325e-10 7.33266e-14)
(2764.5 -5.03548e-10 6.76883e-14)
(2764.5 -5.1247e-10 6.57552e-14)
(2764.5 -5.16218e-10 6.86977e-14)
(2764.5 -5.20935e-10 7.74997e-14)
(2764.5 -5.27841e-10 6.74565e-14)
(2764.5 -5.38124e-10 7.18531e-14)
(2764.5 -5.44203e-10 7.49754e-14)
(2764.5 -5.51982e-10 6.70848e-14)
(2764.5 -5.62557e-10 6.89065e-14)
(2764.5 -5.72269e-10 7.03919e-14)
(2764.5 -5.80082e-10 7.48129e-14)
(2764.5 -5.90067e-10 7.58738e-14)
(2764.5 -5.96563e-10 6.91862e-14)
(2764.5 -6.10125e-10 6.88165e-14)
(2764.5 -6.2707e-10 7.28095e-14)
(2764.5 -4.35266e-10 8.0322e-14)
(2764.5 -4.36308e-10 7.62529e-14)
(2764.5 -4.41623e-10 8.00629e-14)
(2764.5 -4.47807e-10 8.59971e-14)
(2764.5 -4.5562e-10 8.32347e-14)
(2764.5 -4.61991e-10 7.79449e-14)
(2764.5 -4.68685e-10 7.91611e-14)
(2764.5 -4.73034e-10 8.69245e-14)
(2764.5 -4.77458e-10 7.5766e-14)
(2764.5 -4.81761e-10 8.06676e-14)
(2764.5 -4.87289e-10 8.5379e-14)
(2764.5 -4.94826e-10 8.16025e-14)
(2764.5 -5.05133e-10 8.12051e-14)
(2764.5 -5.13767e-10 8.00197e-14)
(2764.5 -5.22091e-10 7.76729e-14)
(2764.5 -5.25374e-10 8.18847e-14)
(2764.5 -5.30031e-10 7.92225e-14)
(2764.5 -5.35685e-10 8.52241e-14)
(2764.5 -5.43947e-10 8.21076e-14)
(2764.5 -5.51643e-10 8.3811e-14)
(2764.5 -5.59944e-10 8.33092e-14)
(2764.5 -5.65596e-10 8.09511e-14)
(2764.5 -5.69835e-10 8.00482e-14)
(2764.5 -5.76763e-10 8.41212e-14)
(2764.5 -5.84699e-10 8.24917e-14)
(2764.5 -5.90857e-10 8.32524e-14)
(2764.5 -5.96534e-10 8.9559e-14)
(2764.5 -6.02224e-10 7.90488e-14)
(2764.5 -6.13585e-10 7.71469e-14)
(2764.5 -6.24518e-10 8.02264e-14)
(2764.5 -6.34275e-10 8.0782e-14)
(2764.5 -6.42566e-10 8.01548e-14)
(2764.5 -6.5099e-10 8.31002e-14)
(2764.5 -6.61806e-10 8.57118e-14)
(2764.5 -6.7246e-10 9.06178e-14)
(2764.5 -6.80512e-10 8.64182e-14)
(2764.5 -6.91834e-10 8.4885e-14)
(2764.5 -7.0931e-10 8.77749e-14)
(2764.5 -4.99855e-10 9.57791e-14)
(2764.5 -4.99326e-10 9.40967e-14)
(2764.5 -5.02126e-10 9.30283e-14)
(2764.5 -5.09363e-10 9.87173e-14)
(2764.5 -5.18487e-10 9.83002e-14)
(2764.5 -5.2941e-10 9.06741e-14)
(2764.5 -5.34966e-10 9.17138e-14)
(2764.5 -5.37307e-10 9.41041e-14)
(2764.5 -5.39105e-10 9.53846e-14)
(2764.5 -5.44318e-10 9.63658e-14)
(2764.5 -5.54985e-10 9.00821e-14)
(2764.5 -5.65678e-10 9.42933e-14)
(2764.5 -5.76312e-10 9.08177e-14)
(2764.5 -5.84448e-10 9.46308e-14)
(2764.5 -5.90032e-10 9.21309e-14)
(2764.5 -5.94236e-10 9.6323e-14)
(2764.5 -5.98995e-10 9.89879e-14)
(2764.5 -6.06921e-10 9.77847e-14)
(2764.5 -6.16844e-10 9.39922e-14)
(2764.5 -6.25765e-10 9.84419e-14)
(2764.5 -6.36186e-10 9.06721e-14)
(2764.5 -6.44352e-10 9.68571e-14)
(2764.5 -6.49004e-10 9.20171e-14)
(2764.5 -6.54284e-10 9.23302e-14)
(2764.5 -6.5908e-10 8.92592e-14)
(2764.5 -6.64325e-10 9.55354e-14)
(2764.5 -6.70998e-10 9.46303e-14)
(2764.5 -6.78888e-10 9.17379e-14)
(2764.5 -6.88591e-10 9.74848e-14)
(2764.5 -6.98859e-10 9.77153e-14)
(2764.5 -7.09882e-10 1.01093e-13)
(2764.5 -7.20337e-10 9.98527e-14)
(2764.5 -7.26853e-10 1.02441e-13)
(2764.5 -7.33724e-10 9.73713e-14)
(2764.5 -7.45157e-10 9.63293e-14)
(2764.5 -7.55967e-10 1.05933e-13)
(2764.5 -7.68337e-10 1.00611e-13)
(2764.5 -7.8596e-10 9.51133e-14)
(2764.5 -5.67055e-10 1.07224e-13)
(2764.5 -5.67355e-10 1.06717e-13)
(2764.5 -5.66408e-10 1.12239e-13)
(2764.5 -5.67342e-10 1.10768e-13)
(2764.5 -5.72789e-10 1.09228e-13)
(2764.5 -5.78598e-10 1.08384e-13)
(2764.5 -5.89161e-10 1.13909e-13)
(2764.5 -5.98584e-10 1.08782e-13)
(2764.5 -6.01686e-10 1.08015e-13)
(2764.5 -6.05024e-10 1.08953e-13)
(2764.5 -6.10847e-10 9.83788e-14)
(2764.5 -6.22216e-10 1.09704e-13)
(2764.5 -6.34458e-10 1.00136e-13)
(2764.5 -6.43569e-10 1.07152e-13)
(2764.5 -6.53872e-10 1.09537e-13)
(2764.5 -6.5961e-10 1.0909e-13)
(2764.5 -6.65527e-10 1.11464e-13)
(2764.5 -6.69768e-10 1.0497e-13)
(2764.5 -6.7865e-10 1.04565e-13)
(2764.5 -6.87361e-10 1.05669e-13)
(2764.5 -6.94601e-10 1.06751e-13)
(2764.5 -7.02025e-10 1.06615e-13)
(2764.5 -7.11684e-10 1.05308e-13)
(2764.5 -7.20012e-10 1.02729e-13)
(2764.5 -7.26478e-10 1.06009e-13)
(2764.5 -7.33229e-10 1.07092e-13)
(2764.5 -7.39412e-10 1.1053e-13)
(2764.5 -7.46664e-10 1.07096e-13)
(2764.5 -7.56127e-10 1.08536e-13)
(2764.5 -7.65447e-10 1.07195e-13)
(2764.5 -7.73757e-10 1.09632e-13)
(2764.5 -7.83242e-10 1.09912e-13)
(2764.5 -7.94591e-10 1.1268e-13)
(2764.5 -8.05742e-10 1.09291e-13)
(2764.5 -8.14384e-10 1.1581e-13)
(2764.5 -8.23576e-10 1.16135e-13)
(2764.5 -8.30892e-10 1.12845e-13)
(2764.5 -8.44832e-10 1.09746e-13)
(2764.5 -8.66619e-10 1.10201e-13)
(2764.5 -6.18928e-10 1.21679e-13)
(2764.5 -6.24718e-10 1.16978e-13)
(2764.5 -6.26407e-10 1.16828e-13)
(2764.5 -6.30185e-10 1.23963e-13)
(2764.5 -6.34485e-10 1.24079e-13)
(2764.5 -6.37558e-10 1.24108e-13)
(2764.5 -6.44576e-10 1.25885e-13)
(2764.5 -6.55666e-10 1.17687e-13)
(2764.5 -6.60456e-10 1.17033e-13)
(2764.5 -6.65914e-10 1.14324e-13)
(2764.5 -6.75615e-10 1.20708e-13)
(2764.5 -6.85323e-10 1.16201e-13)
(2764.5 -6.95867e-10 1.11499e-13)
(2764.5 -7.04652e-10 1.22041e-13)
(2764.5 -7.14242e-10 1.20293e-13)
(2764.5 -7.22643e-10 1.21228e-13)
(2764.5 -7.31754e-10 1.12812e-13)
(2764.5 -7.35465e-10 1.19662e-13)
(2764.5 -7.42554e-10 1.18449e-13)
(2764.5 -7.51959e-10 1.2013e-13)
(2764.5 -7.61046e-10 1.17278e-13)
(2764.5 -7.6838e-10 1.15678e-13)
(2764.5 -7.77531e-10 1.15458e-13)
(2764.5 -7.88543e-10 1.17822e-13)
(2764.5 -8.00005e-10 1.21802e-13)
(2764.5 -8.11547e-10 1.19502e-13)
(2764.5 -8.1892e-10 1.22872e-13)
(2764.5 -8.25386e-10 1.18631e-13)
(2764.5 -8.33424e-10 1.15965e-13)
(2764.5 -8.42321e-10 1.21905e-13)
(2764.5 -8.50568e-10 1.2284e-13)
(2764.5 -8.58982e-10 1.22955e-13)
(2764.5 -8.67478e-10 1.24123e-13)
(2764.5 -8.78841e-10 1.23068e-13)
(2764.5 -8.89306e-10 1.25738e-13)
(2764.5 -9.01693e-10 1.24435e-13)
(2764.5 -9.12561e-10 1.18703e-13)
(2764.5 -9.26368e-10 1.23099e-13)
(2764.5 -9.45486e-10 1.25589e-13)
(2764.5 -6.67501e-10 1.34689e-13)
(2764.5 -6.75589e-10 1.37527e-13)
(2764.5 -6.81704e-10 1.33026e-13)
(2764.5 -6.91584e-10 1.34546e-13)
(2764.5 -7.00513e-10 1.29755e-13)
(2764.5 -7.04809e-10 1.28959e-13)
(2764.5 -7.07251e-10 1.33304e-13)
(2764.5 -7.06762e-10 1.36622e-13)
(2764.5 -7.07071e-10 1.29117e-13)
(2764.5 -7.12403e-10 1.30427e-13)
(2764.5 -7.26425e-10 1.2969e-13)
(2764.5 -7.35316e-10 1.31395e-13)
(2764.5 -7.44786e-10 1.30056e-13)
(2764.5 -7.55363e-10 1.2483e-13)
(2764.5 -7.66128e-10 1.32326e-13)
(2764.5 -7.77652e-10 1.37336e-13)
(2764.5 -7.88192e-10 1.39447e-13)
(2764.5 -7.9573e-10 1.36779e-13)
(2764.5 -8.04926e-10 1.29063e-13)
(2764.5 -8.14897e-10 1.29468e-13)
(2764.5 -8.2635e-10 1.32194e-13)
(2764.5 -8.36018e-10 1.34012e-13)
(2764.5 -8.45723e-10 1.32003e-13)
(2764.5 -8.53732e-10 1.3202e-13)
(2764.5 -8.64029e-10 1.31642e-13)
(2764.5 -8.75361e-10 1.36255e-13)
(2764.5 -8.84412e-10 1.30378e-13)
(2764.5 -8.92344e-10 1.27974e-13)
(2764.5 -9.02212e-10 1.34469e-13)
(2764.5 -9.13091e-10 1.3753e-13)
(2764.5 -9.19901e-10 1.38041e-13)
(2764.5 -9.27385e-10 1.33277e-13)
(2764.5 -9.35998e-10 1.33587e-13)
(2764.5 -9.46169e-10 1.33603e-13)
(2764.5 -9.58002e-10 1.3435e-13)
(2764.5 -9.74635e-10 1.34315e-13)
(2764.5 -9.8639e-10 1.35734e-13)
(2764.5 -1.00462e-09 1.38884e-13)
(2764.5 -1.02527e-09 1.34977e-13)
(2764.5 -7.04091e-10 1.49912e-13)
(2764.5 -7.11976e-10 1.45463e-13)
(2764.5 -7.21821e-10 1.41424e-13)
(2764.5 -7.33512e-10 1.46212e-13)
(2764.5 -7.46642e-10 1.46121e-13)
(2764.5 -7.58399e-10 1.48802e-13)
(2764.5 -7.64388e-10 1.4641e-13)
(2764.5 -7.69085e-10 1.46699e-13)
(2764.5 -7.66911e-10 1.44833e-13)
(2764.5 -7.63505e-10 1.48142e-13)
(2764.5 -7.62474e-10 1.46375e-13)
(2764.5 -7.7099e-10 1.46217e-13)
(2764.5 -7.79741e-10 1.44474e-13)
(2764.5 -7.90388e-10 1.38915e-13)
(2764.5 -8.0365e-10 1.44509e-13)
(2764.5 -8.13655e-10 1.47581e-13)
(2764.5 -8.26884e-10 1.44235e-13)
(2764.5 -8.40634e-10 1.44445e-13)
(2764.5 -8.50682e-10 1.45214e-13)
(2764.5 -8.61026e-10 1.45415e-13)
(2764.5 -8.73873e-10 1.39504e-13)
(2764.5 -8.85099e-10 1.40148e-13)
(2764.5 -8.95089e-10 1.41642e-13)
(2764.5 -9.07079e-10 1.39515e-13)
(2764.5 -9.164e-10 1.40503e-13)
(2764.5 -9.25914e-10 1.50292e-13)
(2764.5 -9.36905e-10 1.46734e-13)
(2764.5 -9.4557e-10 1.3926e-13)
(2764.5 -9.54476e-10 1.46278e-13)
(2764.5 -9.65566e-10 1.45445e-13)
(2764.5 -9.80038e-10 1.4835e-13)
(2764.5 -9.90945e-10 1.44747e-13)
(2764.5 -1.00037e-09 1.44743e-13)
(2764.5 -1.01148e-09 1.46619e-13)
(2764.5 -1.02126e-09 1.50147e-13)
(2764.5 -1.03287e-09 1.51748e-13)
(2764.5 -1.04972e-09 1.48046e-13)
(2764.5 -1.06109e-09 1.52014e-13)
(2764.5 -1.07892e-09 1.4539e-13)
(2764.5 -1.09462e-09 1.49626e-13)
(2764.5 -7.54148e-10 1.61388e-13)
(2764.5 -7.5898e-10 1.62228e-13)
(2764.5 -7.66526e-10 1.63933e-13)
(2764.5 -7.78473e-10 1.57987e-13)
(2764.5 -7.93953e-10 1.59188e-13)
(2764.5 -8.06923e-10 1.59514e-13)
(2764.5 -8.17017e-10 1.61153e-13)
(2764.5 -8.24733e-10 1.60842e-13)
(2764.5 -8.26871e-10 1.58241e-13)
(2764.5 -8.24849e-10 1.64914e-13)
(2764.5 -8.25234e-10 1.55225e-13)
(2764.5 -8.25417e-10 1.55655e-13)
(2764.5 -8.28333e-10 1.54975e-13)
(2764.5 -8.33321e-10 1.54259e-13)
(2764.5 -8.45196e-10 1.5537e-13)
(2764.5 -8.60564e-10 1.56842e-13)
(2764.5 -8.72873e-10 1.54517e-13)
(2764.5 -8.86337e-10 1.49293e-13)
(2764.5 -8.98768e-10 1.52797e-13)
(2764.5 -9.0823e-10 1.50056e-13)
(2764.5 -9.2162e-10 1.54103e-13)
(2764.5 -9.36046e-10 1.56271e-13)
(2764.5 -9.4994e-10 1.59419e-13)
(2764.5 -9.62387e-10 1.58581e-13)
(2764.5 -9.72833e-10 1.54536e-13)
(2764.5 -9.80951e-10 1.56188e-13)
(2764.5 -9.91034e-10 1.55665e-13)
(2764.5 -9.99896e-10 1.56177e-13)
(2764.5 -1.00958e-09 1.54758e-13)
(2764.5 -1.02374e-09 1.56709e-13)
(2764.5 -1.04179e-09 1.58473e-13)
(2764.5 -1.05806e-09 1.58592e-13)
(2764.5 -1.07152e-09 1.58982e-13)
(2764.5 -1.08488e-09 1.59684e-13)
(2764.5 -1.09588e-09 1.64136e-13)
(2764.5 -1.1051e-09 1.56176e-13)
(2764.5 -1.11611e-09 1.56424e-13)
(2764.5 -1.11981e-09 1.60956e-13)
(2764.5 -1.13636e-09 1.59285e-13)
(2764.5 -1.13941e-09 1.59623e-13)
(2764.5 -8.06307e-10 1.7667e-13)
(2764.5 -8.09984e-10 1.70741e-13)
(2764.5 -8.16276e-10 1.71151e-13)
(2764.5 -8.25191e-10 1.72927e-13)
(2764.5 -8.40165e-10 1.74848e-13)
(2764.5 -8.54104e-10 1.79019e-13)
(2764.5 -8.65139e-10 1.73327e-13)
(2764.5 -8.73363e-10 1.66818e-13)
(2764.5 -8.81566e-10 1.71791e-13)
(2764.5 -8.86586e-10 1.76901e-13)
(2764.5 -8.89234e-10 1.67618e-13)
(2764.5 -8.90055e-10 1.7315e-13)
(2764.5 -8.88534e-10 1.75295e-13)
(2764.5 -8.88055e-10 1.69974e-13)
(2764.5 -8.90271e-10 1.71218e-13)
(2764.5 -9.00069e-10 1.65467e-13)
(2764.5 -9.12171e-10 1.61884e-13)
(2764.5 -9.26823e-10 1.63852e-13)
(2764.5 -9.40549e-10 1.6601e-13)
(2764.5 -9.52828e-10 1.64602e-13)
(2764.5 -9.67185e-10 1.75579e-13)
(2764.5 -9.82014e-10 1.71989e-13)
(2764.5 -9.99222e-10 1.68849e-13)
(2764.5 -1.01476e-09 1.6883e-13)
(2764.5 -1.02875e-09 1.69567e-13)
(2764.5 -1.03904e-09 1.67877e-13)
(2764.5 -1.04898e-09 1.69755e-13)
(2764.5 -1.05888e-09 1.62816e-13)
(2764.5 -1.06944e-09 1.75053e-13)
(2764.5 -1.0832e-09 1.75607e-13)
(2764.5 -1.09909e-09 1.68526e-13)
(2764.5 -1.11608e-09 1.66579e-13)
(2764.5 -1.13004e-09 1.64756e-13)
(2764.5 -1.14204e-09 1.67569e-13)
(2764.5 -1.15199e-09 1.71448e-13)
(2764.5 -1.158e-09 1.72767e-13)
(2764.5 -1.16947e-09 1.70414e-13)
(2764.5 -1.17553e-09 1.68421e-13)
(2764.5 -1.19398e-09 1.75393e-13)
(2764.5 -1.19644e-09 1.82347e-13)
(2764.5 -8.58454e-10 1.89274e-13)
(2764.5 -8.6137e-10 1.89908e-13)
(2764.5 -8.66571e-10 1.91096e-13)
(2764.5 -8.72405e-10 1.8535e-13)
(2764.5 -8.82255e-10 1.83716e-13)
(2764.5 -8.97869e-10 1.87941e-13)
(2764.5 -9.1203e-10 1.91945e-13)
(2764.5 -9.22155e-10 1.81374e-13)
(2764.5 -9.31117e-10 1.80833e-13)
(2764.5 -9.41336e-10 1.87736e-13)
(2764.5 -9.49025e-10 1.81111e-13)
(2764.5 -9.53473e-10 1.87396e-13)
(2764.5 -9.54763e-10 1.86732e-13)
(2764.5 -9.4942e-10 1.78129e-13)
(2764.5 -9.46333e-10 1.81198e-13)
(2764.5 -9.49184e-10 1.82385e-13)
(2764.5 -9.56083e-10 1.76106e-13)
(2764.5 -9.6863e-10 1.78763e-13)
(2764.5 -9.82414e-10 1.79758e-13)
(2764.5 -9.96467e-10 1.82826e-13)
(2764.5 -1.00984e-09 1.86313e-13)
(2764.5 -1.02644e-09 1.79124e-13)
(2764.5 -1.04678e-09 1.82368e-13)
(2764.5 -1.06664e-09 1.8574e-13)
(2764.5 -1.08292e-09 1.78398e-13)
(2764.5 -1.09594e-09 1.86071e-13)
(2764.5 -1.10686e-09 1.80102e-13)
(2764.5 -1.11586e-09 1.7922e-13)
(2764.5 -1.12511e-09 1.83295e-13)
(2764.5 -1.13818e-09 1.77058e-13)
(2764.5 -1.15118e-09 1.80949e-13)
(2764.5 -1.16721e-09 1.82708e-13)
(2764.5 -1.18115e-09 1.82605e-13)
(2764.5 -1.19174e-09 1.76039e-13)
(2764.5 -1.20235e-09 1.81834e-13)
(2764.5 -1.20728e-09 1.8234e-13)
(2764.5 -1.21923e-09 1.8282e-13)
(2764.5 -1.22863e-09 1.84344e-13)
(2764.5 -1.25111e-09 1.83414e-13)
(2764.5 -1.26034e-09 1.78441e-13)
(2764.5 -9.00441e-10 2.00314e-13)
(2764.5 -9.07746e-10 2.02009e-13)
(2764.5 -9.14801e-10 2.00084e-13)
(2764.5 -9.20682e-10 1.99868e-13)
(2764.5 -9.2863e-10 1.98592e-13)
(2764.5 -9.41285e-10 1.93761e-13)
(2764.5 -9.5332e-10 1.96725e-13)
(2764.5 -9.63946e-10 1.96172e-13)
(2764.5 -9.73415e-10 1.96466e-13)
(2764.5 -9.839e-10 1.96981e-13)
(2764.5 -9.92927e-10 1.93964e-13)
(2764.5 -1.00048e-09 1.96968e-13)
(2764.5 -1.00532e-09 1.92958e-13)
(2764.5 -1.01085e-09 1.90133e-13)
(2764.5 -1.01018e-09 1.93479e-13)
(2764.5 -1.00896e-09 1.94227e-13)
(2764.5 -1.01007e-09 1.94385e-13)
(2764.5 -1.01784e-09 1.95382e-13)
(2764.5 -1.02914e-09 1.90264e-13)
(2764.5 -1.0421e-09 1.91431e-13)
(2764.5 -1.05498e-09 1.92515e-13)
(2764.5 -1.07041e-09 1.91975e-13)
(2764.5 -1.0911e-09 1.91337e-13)
(2764.5 -1.11465e-09 1.9239e-13)
(2764.5 -1.13543e-09 1.91375e-13)
(2764.5 -1.15312e-09 1.90568e-13)
(2764.5 -1.16529e-09 1.9118e-13)
(2764.5 -1.17411e-09 1.95005e-13)
(2764.5 -1.18117e-09 1.88921e-13)
(2764.5 -1.19161e-09 1.94804e-13)
(2764.5 -1.20174e-09 1.92758e-13)
(2764.5 -1.21485e-09 2.00024e-13)
(2764.5 -1.22894e-09 1.95972e-13)
(2764.5 -1.24341e-09 1.90484e-13)
(2764.5 -1.25964e-09 1.9363e-13)
(2764.5 -1.26918e-09 1.98315e-13)
(2764.5 -1.27937e-09 1.98502e-13)
(2764.5 -1.28754e-09 1.97117e-13)
(2764.5 -1.30831e-09 1.94402e-13)
(2764.5 -1.31749e-09 1.98037e-13)
(2764.5 -9.43934e-10 2.13421e-13)
(2764.5 -9.4893e-10 2.12182e-13)
(2764.5 -9.57013e-10 2.13298e-13)
(2764.5 -9.64327e-10 2.09994e-13)
(2764.5 -9.74295e-10 2.08232e-13)
(2764.5 -9.85723e-10 2.14335e-13)
(2764.5 -9.96741e-10 2.16048e-13)
(2764.5 -1.0046e-09 2.10081e-13)
(2764.5 -1.01292e-09 2.09422e-13)
(2764.5 -1.02443e-09 2.12289e-13)
(2764.5 -1.03543e-09 2.10059e-13)
(2764.5 -1.04462e-09 2.11576e-13)
(2764.5 -1.05081e-09 2.06871e-13)
(2764.5 -1.06064e-09 2.03351e-13)
(2764.5 -1.06921e-09 2.09674e-13)
(2764.5 -1.07384e-09 2.04124e-13)
(2764.5 -1.07731e-09 2.027e-13)
(2764.5 -1.0826e-09 2.0984e-13)
(2764.5 -1.08812e-09 2.08608e-13)
(2764.5 -1.09654e-09 2.03278e-13)
(2764.5 -1.10853e-09 2.04377e-13)
(2764.5 -1.12141e-09 1.98164e-13)
(2764.5 -1.1353e-09 2.03743e-13)
(2764.5 -1.15396e-09 2.07183e-13)
(2764.5 -1.17499e-09 2.09743e-13)
(2764.5 -1.1971e-09 2.10347e-13)
(2764.5 -1.21606e-09 2.03848e-13)
(2764.5 -1.22931e-09 2.04766e-13)
(2764.5 -1.23901e-09 2.01273e-13)
(2764.5 -1.24858e-09 2.07262e-13)
(2764.5 -1.25745e-09 2.05929e-13)
(2764.5 -1.26888e-09 2.03408e-13)
(2764.5 -1.28203e-09 2.04863e-13)
(2764.5 -1.29653e-09 2.07146e-13)
(2764.5 -1.31261e-09 2.01218e-13)
(2764.5 -1.32664e-09 2.03548e-13)
(2764.5 -1.34095e-09 2.05697e-13)
(2764.5 -1.35073e-09 2.03889e-13)
(2764.5 -1.36529e-09 2.03894e-13)
(2764.5 -1.37759e-09 2.07027e-13)
(2764.5 -9.93461e-10 2.30857e-13)
(2764.5 -9.96838e-10 2.2921e-13)
(2764.5 -1.00174e-09 2.26391e-13)
(2764.5 -1.00737e-09 2.21783e-13)
(2764.5 -1.01618e-09 2.25226e-13)
(2764.5 -1.02726e-09 2.20695e-13)
(2764.5 -1.03775e-09 2.23595e-13)
(2764.5 -1.04833e-09 2.2334e-13)
(2764.5 -1.05759e-09 2.28457e-13)
(2764.5 -1.06803e-09 2.25935e-13)
(2764.5 -1.0794e-09 2.18381e-13)
(2764.5 -1.09382e-09 2.21566e-13)
(2764.5 -1.10312e-09 2.18678e-13)
(2764.5 -1.11127e-09 2.21123e-13)
(2764.5 -1.12167e-09 2.20583e-13)
(2764.5 -1.1286e-09 2.24028e-13)
(2764.5 -1.13305e-09 2.26597e-13)
(2764.5 -1.13737e-09 2.21168e-13)
(2764.5 -1.14132e-09 2.21705e-13)
(2764.5 -1.14493e-09 2.26252e-13)
(2764.5 -1.15044e-09 2.2076e-13)
(2764.5 -1.16003e-09 2.17043e-13)
(2764.5 -1.17252e-09 2.19619e-13)
(2764.5 -1.18881e-09 2.15458e-13)
(2764.5 -1.20717e-09 2.18079e-13)
(2764.5 -1.22837e-09 2.14984e-13)
(2764.5 -1.24935e-09 2.14293e-13)
(2764.5 -1.26885e-09 2.19233e-13)
(2764.5 -1.28534e-09 2.13687e-13)
(2764.5 -1.29922e-09 2.16089e-13)
(2764.5 -1.30976e-09 2.18414e-13)
(2764.5 -1.31942e-09 2.18548e-13)
(2764.5 -1.33091e-09 2.20766e-13)
(2764.5 -1.34365e-09 2.16455e-13)
(2764.5 -1.36046e-09 2.14617e-13)
(2764.5 -1.37333e-09 2.17763e-13)
(2764.5 -1.3926e-09 2.19623e-13)
(2764.5 -1.39303e-09 2.19923e-13)
(2764.5 -1.39776e-09 2.1902e-13)
(2764.5 -1.38487e-09 2.22119e-13)
(2764.5 -1.04476e-09 2.41429e-13)
(2764.5 -1.04794e-09 2.44079e-13)
(2764.5 -1.05252e-09 2.40578e-13)
(2764.5 -1.0563e-09 2.38311e-13)
(2764.5 -1.05958e-09 2.42721e-13)
(2764.5 -1.06602e-09 2.34978e-13)
(2764.5 -1.07574e-09 2.38809e-13)
(2764.5 -1.0844e-09 2.37794e-13)
(2764.5 -1.0946e-09 2.31797e-13)
(2764.5 -1.10776e-09 2.36375e-13)
(2764.5 -1.11871e-09 2.3482e-13)
(2764.5 -1.128e-09 2.31642e-13)
(2764.5 -1.1383e-09 2.30123e-13)
(2764.5 -1.15106e-09 2.33267e-13)
(2764.5 -1.16025e-09 2.34519e-13)
(2764.5 -1.16841e-09 2.31732e-13)
(2764.5 -1.17554e-09 2.37276e-13)
(2764.5 -1.18352e-09 2.31678e-13)
(2764.5 -1.18784e-09 2.29169e-13)
(2764.5 -1.1919e-09 2.29644e-13)
(2764.5 -1.19566e-09 2.32731e-13)
(2764.5 -1.20153e-09 2.29141e-13)
(2764.5 -1.20673e-09 2.29894e-13)
(2764.5 -1.21703e-09 2.30006e-13)
(2764.5 -1.23162e-09 2.25885e-13)
(2764.5 -1.24683e-09 2.32368e-13)
(2764.5 -1.2622e-09 2.32741e-13)
(2764.5 -1.28209e-09 2.28955e-13)
(2764.5 -1.30242e-09 2.29303e-13)
(2764.5 -1.32155e-09 2.31751e-13)
(2764.5 -1.33646e-09 2.36352e-13)
(2764.5 -1.34984e-09 2.26386e-13)
(2764.5 -1.36189e-09 2.26957e-13)
(2764.5 -1.37568e-09 2.34941e-13)
(2764.5 -1.39047e-09 2.28244e-13)
(2764.5 -1.39259e-09 2.29372e-13)
(2764.5 -1.38588e-09 2.32501e-13)
(2764.5 -1.36554e-09 2.33752e-13)
(2764.5 -1.40136e-09 2.31146e-13)
(2764.5 -1.36812e-09 2.32574e-13)
(2764.5 -1.08525e-09 2.31853e-13)
(2764.5 -1.10407e-09 2.58821e-13)
(2764.5 -1.10518e-09 2.64509e-13)
(2764.5 -1.10849e-09 2.55167e-13)
(2764.5 -1.11353e-09 2.53283e-13)
(2764.5 -1.11642e-09 2.55221e-13)
(2764.5 -1.12129e-09 2.50767e-13)
(2764.5 -1.12856e-09 2.49631e-13)
(2764.5 -1.13737e-09 2.46531e-13)
(2764.5 -1.1458e-09 2.49369e-13)
(2764.5 -1.1607e-09 2.52173e-13)
(2764.5 -1.17161e-09 2.4787e-13)
(2764.5 -1.18096e-09 2.46188e-13)
(2764.5 -1.18874e-09 2.47161e-13)
(2764.5 -1.19912e-09 2.48672e-13)
(2764.5 -1.21029e-09 2.44383e-13)
(2764.5 -1.2207e-09 2.43441e-13)
(2764.5 -1.22753e-09 2.46809e-13)
(2764.5 -1.23648e-09 2.45302e-13)
(2764.5 -1.24288e-09 2.44674e-13)
(2764.5 -1.24868e-09 2.44601e-13)
(2764.5 -1.25476e-09 2.42366e-13)
(2764.5 -1.26241e-09 2.46689e-13)
(2764.5 -1.26591e-09 2.42894e-13)
(2764.5 -1.26887e-09 2.34246e-13)
(2764.5 -1.27758e-09 2.39301e-13)
(2764.5 -1.28871e-09 2.45345e-13)
(2764.5 -1.30356e-09 2.40154e-13)
(2764.5 -1.31794e-09 2.4066e-13)
(2764.5 -1.33528e-09 2.3913e-13)
(2764.5 -1.35187e-09 2.41752e-13)
(2764.5 -1.37277e-09 2.38708e-13)
(2764.5 -1.39292e-09 2.39107e-13)
(2764.5 -1.39331e-09 2.45115e-13)
(2764.5 -1.38443e-09 2.4291e-13)
(2764.5 -1.35914e-09 2.4882e-13)
(2764.5 -1.41617e-09 2.45233e-13)
(2764.5 -1.39162e-09 2.43356e-13)
(2764.5 -1.15018e-09 2.47384e-13)
(2764.5 -4.75569e-10 2.5267e-13)
(2764.5 1.32701e-09 2.48956e-13)
(2764.5 4.53748e-09 2.47701e-13)
(2764.5 -1.14745e-09 2.73765e-13)
(2764.5 -1.15096e-09 2.84084e-13)
(2764.5 -1.15484e-09 2.67537e-13)
(2764.5 -1.15834e-09 2.66009e-13)
(2764.5 -1.16406e-09 2.67921e-13)
(2764.5 -1.16938e-09 2.65297e-13)
(2764.5 -1.17458e-09 2.62819e-13)
(2764.5 -1.17932e-09 2.65734e-13)
(2764.5 -1.18792e-09 2.63048e-13)
(2764.5 -1.19632e-09 2.66534e-13)
(2764.5 -1.21008e-09 2.69034e-13)
(2764.5 -1.22164e-09 2.59831e-13)
(2764.5 -1.2283e-09 2.58731e-13)
(2764.5 -1.2365e-09 2.58319e-13)
(2764.5 -1.2486e-09 2.57982e-13)
(2764.5 -1.26213e-09 2.59366e-13)
(2764.5 -1.27243e-09 2.6807e-13)
(2764.5 -1.27947e-09 2.59388e-13)
(2764.5 -1.2866e-09 2.5217e-13)
(2764.5 -1.29426e-09 2.50776e-13)
(2764.5 -1.30111e-09 2.53154e-13)
(2764.5 -1.30952e-09 2.55173e-13)
(2764.5 -1.31439e-09 2.53579e-13)
(2764.5 -1.31882e-09 2.52088e-13)
(2764.5 -1.32143e-09 2.59203e-13)
(2764.5 -1.32338e-09 2.57004e-13)
(2764.5 -1.33139e-09 2.56826e-13)
(2764.5 -1.33932e-09 2.55623e-13)
(2764.5 -1.36348e-09 2.55985e-13)
(2764.5 -1.38012e-09 2.53546e-13)
(2764.5 -1.38218e-09 2.53325e-13)
(2764.5 -1.37566e-09 2.61769e-13)
(2764.5 -1.34979e-09 2.61529e-13)
(2764.5 -1.42139e-09 2.47969e-13)
(2764.5 -1.38905e-09 2.50164e-13)
(2764.5 -1.10335e-09 2.53537e-13)
(2764.5 -3.76087e-10 2.55425e-13)
(2764.5 1.47572e-09 2.56882e-13)
(2764.5 4.32372e-09 2.61953e-13)
(2764.5 8.29415e-09 2.62526e-13)
(2764.5 1.58749e-08 2.58418e-13)
(2764.5 3.34186e-08 2.58417e-13)
(2764.5 -1.1843e-09 2.84314e-13)
(2764.5 -1.18995e-09 2.81619e-13)
(2764.5 -1.19761e-09 2.81421e-13)
(2764.5 -1.20284e-09 2.8261e-13)
(2764.5 -1.20621e-09 2.84082e-13)
(2764.5 -1.2113e-09 2.80627e-13)
(2764.5 -1.21649e-09 2.79592e-13)
(2764.5 -1.22286e-09 2.8147e-13)
(2764.5 -1.22748e-09 2.79425e-13)
(2764.5 -1.23488e-09 2.77232e-13)
(2764.5 -1.24488e-09 2.79612e-13)
(2764.5 -1.25813e-09 2.7781e-13)
(2764.5 -1.26895e-09 2.69444e-13)
(2764.5 -1.27637e-09 2.68141e-13)
(2764.5 -1.28398e-09 2.71867e-13)
(2764.5 -1.29352e-09 2.68236e-13)
(2764.5 -1.30767e-09 2.71832e-13)
(2764.5 -1.32086e-09 2.68624e-13)
(2764.5 -1.33075e-09 2.63244e-13)
(2764.5 -1.33735e-09 2.59689e-13)
(2764.5 -1.34238e-09 2.64373e-13)
(2764.5 -1.35017e-09 2.71267e-13)
(2764.5 -1.35983e-09 2.6986e-13)
(2764.5 -1.36806e-09 2.60965e-13)
(2764.5 -1.37141e-09 2.66994e-13)
(2764.5 -1.37701e-09 2.68825e-13)
(2764.5 -1.3911e-09 2.65457e-13)
(2764.5 -1.38921e-09 2.65668e-13)
(2764.5 -1.38125e-09 2.67829e-13)
(2764.5 -1.34404e-09 2.63131e-13)
(2764.5 -1.38666e-09 2.6362e-13)
(2764.5 -1.42248e-09 2.66145e-13)
(2764.5 -1.35507e-09 2.6508e-13)
(2764.5 -1.02745e-09 2.63666e-13)
(2764.5 -1.81553e-10 2.66645e-13)
(2764.5 1.80703e-09 2.68057e-13)
(2764.5 4.60288e-09 2.67778e-13)