/*--------------------------------*- C++ -*----------------------------------*\
| =========                 |                                                 |
| \\      /  F ield         | OpenFOAM: The Open Source CFD Toolbox           |
|  \\    /   O peration     | Version:  v1706                                 |
|   \\  /    A nd           | Web:      www.OpenFOAM.com                      |
|    \\/     M anipulation  |                                                 |
\*---------------------------------------------------------------------------*/
FoamFile
{
    version     2.0;
    format      ascii;
    class       volScalarField;
    location    "8e-06";
    object      wallHeatFlux;
}
// * * * * * * * * * * * * * * * * * * * * * * * * * * * * * * * * * * * * * //

dimensions      [1 0 -3 0 0 0 0];


internalField   uniform 0;

boundaryField
{
    cone
    {
        type            calculated;
        value           nonuniform List<scalar> 
153
(
296998
292328
287707
283140
278628
274172
269777
265443
261174
256972
252838
248777
244790
240880
237049
233300
229635
226057
222569
219172
215869
212662
209553
206543
203634
200827
198121
195517
193015
190612
188307
186098
183981
181952
180005
178135
176333
174590
172894
171241
169616
168004
166393
164767
163111
161394
159589
157562
155416
153334
151250
149074
146727
144152
141307
138164
134710
130945
126888
122572
118043
113359
108586
103794
99051.8
94422.6
89963.7
85722.7
81736.7
78031.9
74624.8
71522.3
68723.5
66221
64001.8
62048.9
60342
58858.3
57573.6
56462.8
55499.8
54663.9
53934.5
53291.5
52718
52198.1
51717.7
51265.6
50833.7
50416.5
50011.3
49617.7
49237.1
48872.1
48525.3
48197.8
47891.4
47597
47318
47048.2
46749.6
46392.7
45945.6
45371.2
44633.5
43702.5
42560.8
41207.3
39660
37955.9
36146.9
34293.3
32456.7
30693.3
29050.4
27564.3
26260
25150.6
24238.2
23515.7
22970.5
22587.2
22358.3
22277.8
22332.9
22517
22826.9
23260.9
23819.8
24507.6
25329.9
26294.3
27409.5
28685.4
30133.3
31765.8
33596.9
35642.4
37919.8
40448.8
43251.7
46353
49779.8
53561.5
57728.9
62313.5
67345.5
72851.1
78848.5
85342.2
92314.7
99715.7
107447
)
;
    }
    inlet
    {
        type            calculated;
        value           uniform 0;
    }
    rWedge
    {
        type            wedge;
    }
    lWedge
    {
        type            wedge;
    }
    outlet
    {
        type            calculated;
        value           nonuniform 0();
    }
    procBoundary2to0
    {
        type            processor;
        value           uniform 0;
    }
    procBoundary2to1
    {
        type            processor;
        value           uniform 0;
    }
    procBoundary2to3
    {
        type            processor;
        value           uniform 0;
    }
}


// ************************************************************************* //
