/*--------------------------------*- C++ -*----------------------------------*\
| =========                 |                                                 |
| \\      /  F ield         | OpenFOAM: The Open Source CFD Toolbox           |
|  \\    /   O peration     | Version:  v1706                                 |
|   \\  /    A nd           | Web:      www.OpenFOAM.com                      |
|    \\/     M anipulation  |                                                 |
\*---------------------------------------------------------------------------*/
FoamFile
{
    version     2.0;
    format      ascii;
    class       volScalarField;
    location    "1.1e-05";
    object      alpha;
}
// * * * * * * * * * * * * * * * * * * * * * * * * * * * * * * * * * * * * * //

dimensions      [1 -1 -1 0 0 0 0];


internalField   nonuniform List<scalar> 
30038
(
1.40478e-05
1.40478e-05
1.40478e-05
1.40478e-05
1.40478e-05
1.40478e-05
1.40478e-05
1.40478e-05
1.40478e-05
1.40478e-05
1.40478e-05
1.40478e-05
1.40478e-05
1.40478e-05
1.40478e-05
1.40478e-05
1.40478e-05
1.40478e-05
1.40478e-05
1.40478e-05
1.40478e-05
1.40478e-05
1.40478e-05
1.40478e-05
1.40478e-05
1.40478e-05
1.40478e-05
1.40478e-05
1.40478e-05
1.40478e-05
1.40478e-05
1.40478e-05
1.40478e-05
1.40478e-05
1.40478e-05
1.40478e-05
1.40478e-05
1.40478e-05
1.40478e-05
1.40478e-05
1.40478e-05
1.40478e-05
1.40478e-05
1.40478e-05
1.40478e-05
1.40478e-05
1.40478e-05
1.40478e-05
1.40478e-05
1.40478e-05
1.40478e-05
1.40478e-05
1.40478e-05
1.40478e-05
1.40478e-05
1.40478e-05
1.40478e-05
1.40478e-05
1.40478e-05
1.40478e-05
1.40478e-05
1.40478e-05
1.40478e-05
1.40478e-05
1.40478e-05
1.40478e-05
1.40478e-05
1.40478e-05
1.40478e-05
1.40478e-05
1.40478e-05
1.40478e-05
1.40478e-05
1.40478e-05
1.40478e-05
1.40478e-05
1.40478e-05
1.40478e-05
1.40478e-05
1.40478e-05
1.40478e-05
1.40478e-05
1.40478e-05
1.40478e-05
1.40478e-05
1.40478e-05
1.40478e-05
1.40478e-05
1.40478e-05
1.40478e-05
1.40478e-05
1.40478e-05
1.40478e-05
1.40478e-05
1.40478e-05
1.40478e-05
1.40478e-05
1.40478e-05
1.40478e-05
1.40478e-05
1.40478e-05
1.40478e-05
1.40478e-05
1.40478e-05
1.40478e-05
1.40478e-05
1.40478e-05
1.40478e-05
1.40478e-05
1.40478e-05
1.40478e-05
1.40478e-05
1.40478e-05
1.40478e-05
1.40478e-05
1.40478e-05
1.40478e-05
1.40478e-05
1.40478e-05
1.40478e-05
1.40478e-05
1.40478e-05
1.40478e-05
1.40478e-05
1.40478e-05
1.40478e-05
1.40478e-05
1.40478e-05
1.40478e-05
1.40478e-05
1.40478e-05
1.40478e-05
1.40478e-05
1.40478e-05
1.40478e-05
1.40478e-05
1.40478e-05
1.40478e-05
1.40478e-05
1.40478e-05
1.40478e-05
1.40478e-05
1.40478e-05
1.40478e-05
1.40478e-05
1.40478e-05
1.40478e-05
1.40478e-05
1.40478e-05
1.40478e-05
1.40478e-05
1.40478e-05
1.40478e-05
1.40478e-05
1.40478e-05
1.40478e-05
1.40478e-05
1.40478e-05
1.40478e-05
1.40478e-05
1.40478e-05
1.40478e-05
1.40478e-05
1.40478e-05
1.40478e-05
1.40478e-05
1.40478e-05
1.40478e-05
1.40478e-05
1.40478e-05
1.40478e-05
1.40478e-05
1.40478e-05
1.40478e-05
1.40478e-05
1.40478e-05
1.40478e-05
1.40478e-05
1.40478e-05
1.40478e-05
1.40478e-05
1.40478e-05
1.40478e-05
1.40478e-05
1.40478e-05
1.40478e-05
1.40478e-05
1.40478e-05
1.40478e-05
1.40478e-05
1.40478e-05
1.40478e-05
1.40478e-05
1.40478e-05
1.40478e-05
1.40478e-05
1.40478e-05
1.40478e-05
1.40478e-05
1.40478e-05
1.40478e-05
1.40478e-05
1.40478e-05
1.40478e-05
1.40478e-05
1.40478e-05
1.40478e-05
1.40478e-05
1.40478e-05
1.40478e-05
1.40478e-05
1.40478e-05
1.40478e-05
1.40478e-05
1.40478e-05
1.40478e-05
1.40478e-05
1.40478e-05
1.40478e-05
1.40478e-05
1.40478e-05
1.40478e-05
1.40478e-05
1.40478e-05
1.40478e-05
1.40478e-05
1.40478e-05
1.40478e-05
1.40478e-05
1.40478e-05
1.40478e-05
1.40478e-05
1.40478e-05
1.40478e-05
1.40478e-05
1.40478e-05
1.40478e-05
1.40478e-05
1.40478e-05
1.40478e-05
1.40478e-05
1.40478e-05
1.40478e-05
1.40478e-05
1.40478e-05
1.40478e-05
1.40478e-05
1.40478e-05
1.40478e-05
1.40478e-05
1.40478e-05
1.40478e-05
1.40478e-05
1.40478e-05
1.40478e-05
1.40478e-05
1.40478e-05
1.40478e-05
1.40478e-05
1.40478e-05
1.40478e-05
1.40478e-05
1.40478e-05
1.40478e-05
1.40478e-05
1.40478e-05
1.40478e-05
1.40478e-05
1.40478e-05
1.40478e-05
1.40478e-05
1.40478e-05
1.40478e-05
1.40478e-05
1.40478e-05
1.40478e-05
1.40478e-05
1.40478e-05
1.40478e-05
1.40478e-05
1.40478e-05
1.40478e-05
1.40478e-05
1.40478e-05
1.40478e-05
1.40478e-05
1.40478e-05
1.40478e-05
1.40478e-05
1.40478e-05
1.40478e-05
1.40478e-05
1.40478e-05
1.40478e-05
1.40478e-05
1.40478e-05
1.40478e-05
1.40478e-05
1.40478e-05
1.40478e-05
1.40478e-05
1.40478e-05
1.40478e-05
1.40478e-05
1.40478e-05
1.40478e-05
1.40478e-05
1.40478e-05
1.40478e-05
1.40478e-05
1.40478e-05
1.40478e-05
1.40478e-05
1.40478e-05
1.40478e-05
1.40478e-05
1.40478e-05
1.40478e-05
1.40478e-05
1.40478e-05
1.40478e-05
1.40478e-05
1.40478e-05
1.40478e-05
1.40478e-05
1.40478e-05
1.40478e-05
1.40478e-05
1.40478e-05
1.40478e-05
1.40478e-05
1.40478e-05
1.40478e-05
1.40478e-05
1.40478e-05
1.40478e-05
1.40478e-05
1.40478e-05
1.40478e-05
1.40478e-05
1.40478e-05
1.40478e-05
1.40478e-05
1.40478e-05
1.40478e-05
1.40478e-05
1.40478e-05
1.40478e-05
1.40478e-05
1.40478e-05
1.40478e-05
1.40478e-05
1.40478e-05
1.40478e-05
1.40478e-05
1.40478e-05
1.40478e-05
1.40478e-05
1.40478e-05
1.40478e-05
1.40478e-05
1.40478e-05
1.40478e-05
1.40478e-05
1.40478e-05
1.40478e-05
1.40478e-05
1.40478e-05
1.40478e-05
1.40478e-05
1.40478e-05
1.40478e-05
1.40478e-05
1.40478e-05
1.40478e-05
1.40478e-05
1.40478e-05
1.40478e-05
1.40478e-05
1.40478e-05
1.40478e-05
1.40478e-05
1.40478e-05
1.40478e-05
1.40478e-05
1.40478e-05
1.40478e-05
1.40478e-05
1.40478e-05
1.40478e-05
1.40478e-05
1.40478e-05
1.40478e-05
1.40478e-05
1.40478e-05
1.40478e-05
1.40478e-05
1.40478e-05
1.40478e-05
1.40478e-05
1.40478e-05
1.40478e-05
1.40478e-05
1.40478e-05
1.40478e-05
1.40478e-05
1.40478e-05
1.40478e-05
1.40478e-05
1.40478e-05
1.40478e-05
1.40478e-05
1.40478e-05
1.40478e-05
1.40478e-05
1.40478e-05
1.40478e-05
1.40478e-05
1.40478e-05
1.40478e-05
1.40478e-05
1.40478e-05
1.40478e-05
1.40478e-05
1.40478e-05
1.40478e-05
1.40478e-05
1.40478e-05
1.40478e-05
1.40478e-05
1.40478e-05
1.40478e-05
1.40478e-05
1.40478e-05
1.40478e-05
1.40478e-05
1.40478e-05
1.40478e-05
1.40478e-05
1.40478e-05
1.40478e-05
1.40478e-05
1.40478e-05
1.40478e-05
1.40478e-05
1.40478e-05
1.40478e-05
1.40478e-05
1.40478e-05
1.40478e-05
1.40478e-05
1.40478e-05
1.40478e-05
1.40478e-05
1.40478e-05
1.40478e-05
1.40478e-05
1.40478e-05
1.40478e-05
1.40478e-05
1.40478e-05
1.40478e-05
1.40478e-05
1.40478e-05
1.40478e-05
1.40478e-05
1.40478e-05
1.40478e-05
1.40478e-05
1.40478e-05
1.40478e-05
1.40478e-05
1.40478e-05
1.40478e-05
1.40478e-05
1.40478e-05
1.40478e-05
1.40478e-05
1.40478e-05
1.40478e-05
1.40478e-05
1.40478e-05
1.40478e-05
1.40478e-05
1.40478e-05
1.40478e-05
1.40478e-05
1.40478e-05
1.40478e-05
1.40478e-05
1.40478e-05
1.40478e-05
1.40478e-05
1.40478e-05
1.40478e-05
1.40478e-05
1.40478e-05
1.40478e-05
1.40478e-05
1.40478e-05
1.40478e-05
1.40478e-05
1.40478e-05
1.40478e-05
1.40478e-05
1.40478e-05
1.40478e-05
1.40478e-05
1.40478e-05
1.40478e-05
1.40478e-05
1.40478e-05
1.40478e-05
1.40478e-05
1.40478e-05
1.40478e-05
1.40478e-05
1.40478e-05
1.40478e-05
1.40478e-05
1.40478e-05
1.40478e-05
1.40478e-05
1.40478e-05
1.40478e-05
1.40478e-05
1.40478e-05
1.40478e-05
1.40478e-05
1.40478e-05
1.40478e-05
1.40478e-05
1.40478e-05
1.40478e-05
1.40478e-05
1.40478e-05
1.40478e-05
1.40478e-05
1.40478e-05
1.40478e-05
1.40478e-05
1.40478e-05
1.40478e-05
1.40478e-05
1.40478e-05
1.40478e-05
1.40478e-05
1.40478e-05
1.40478e-05
1.40478e-05
1.40478e-05
1.40478e-05
1.40478e-05
1.40478e-05
1.40478e-05
1.40478e-05
1.40478e-05
1.40478e-05
1.40478e-05
1.40478e-05
1.40478e-05
1.40478e-05
1.40478e-05
1.40478e-05
1.40478e-05
1.40478e-05
1.40478e-05
1.40478e-05
1.40478e-05
1.40478e-05
1.40478e-05
1.40478e-05
1.40478e-05
1.40478e-05
1.40478e-05
1.40478e-05
1.40478e-05
1.40478e-05
1.40478e-05
1.40478e-05
1.40478e-05
1.40478e-05
1.40478e-05
1.40478e-05
1.40478e-05
1.40478e-05
1.40478e-05
1.40478e-05
1.40478e-05
1.40478e-05
1.40478e-05
1.40478e-05
1.40478e-05
1.40478e-05
1.40478e-05
1.40478e-05
1.40478e-05
1.40478e-05
1.40478e-05
1.40478e-05
1.40478e-05
1.40478e-05
1.40478e-05
1.40478e-05
1.40478e-05
1.40478e-05
1.40478e-05
1.40478e-05
1.40478e-05
1.40478e-05
1.40478e-05
1.40478e-05
1.40478e-05
1.40478e-05
1.40478e-05
1.40478e-05
1.40478e-05
1.40478e-05
1.40478e-05
1.40478e-05
1.40478e-05
1.40478e-05
1.40478e-05
1.40478e-05
1.40478e-05
1.40478e-05
1.40478e-05
1.40478e-05
1.40478e-05
1.40478e-05
1.40478e-05
1.40478e-05
1.40478e-05
1.40478e-05
1.40478e-05
1.40478e-05
1.40478e-05
1.40478e-05
1.40478e-05
1.40478e-05
1.40478e-05
1.40478e-05
1.40478e-05
1.40478e-05
1.40478e-05
1.40478e-05
1.40478e-05
1.40478e-05
1.40478e-05
1.40478e-05
1.40478e-05
1.40478e-05
1.40478e-05
1.40478e-05
1.40478e-05
1.40478e-05
1.40478e-05
1.40478e-05
1.40478e-05
1.40478e-05
1.40478e-05
1.40478e-05
1.40478e-05
1.40478e-05
1.40478e-05
1.40478e-05
1.40478e-05
1.40478e-05
1.40478e-05
1.40478e-05
1.40478e-05
1.40478e-05
1.40478e-05
1.40478e-05
1.40478e-05
1.40478e-05
1.40478e-05
1.40478e-05
1.40478e-05
1.40478e-05
1.40478e-05
1.40478e-05
1.40478e-05
1.40478e-05
1.40478e-05
1.40478e-05
1.40478e-05
1.40478e-05
1.40478e-05
1.40478e-05
1.40478e-05
1.40478e-05
1.40478e-05
1.40478e-05
1.40478e-05
1.40478e-05
1.40478e-05
1.40478e-05
1.40478e-05
1.40478e-05
1.40478e-05
1.40478e-05
1.40478e-05
1.40478e-05
1.40478e-05
1.40478e-05
1.40478e-05
1.40478e-05
1.40478e-05
1.40478e-05
1.40478e-05
1.40478e-05
1.40478e-05
1.40478e-05
1.40478e-05
1.40478e-05
1.40478e-05
1.40478e-05
1.40478e-05
1.40478e-05
1.40478e-05
1.40478e-05
1.40478e-05
1.40478e-05
1.40478e-05
1.40478e-05
1.40478e-05
1.40478e-05
1.40478e-05
1.40478e-05
1.40478e-05
1.40478e-05
1.40478e-05
1.40478e-05
1.40478e-05
1.40478e-05
1.40478e-05
1.40478e-05
1.40478e-05
1.40478e-05
1.40478e-05
1.40478e-05
1.40478e-05
1.40478e-05
1.40478e-05
1.40478e-05
1.40478e-05
1.40478e-05
1.40478e-05
1.40478e-05
1.40478e-05
1.40478e-05
1.40478e-05
1.40478e-05
1.40478e-05
1.40478e-05
1.40478e-05
1.40478e-05
1.40478e-05
1.40478e-05
1.40478e-05
1.40478e-05
1.40478e-05
1.40478e-05
1.40478e-05
1.40478e-05
1.40478e-05
1.40478e-05
1.40478e-05
1.40478e-05
1.40478e-05
1.40478e-05
1.40478e-05
1.40478e-05
1.40478e-05
1.40478e-05
1.40478e-05
1.40478e-05
1.40478e-05
1.40478e-05
1.40478e-05
1.40478e-05
1.40478e-05
1.40478e-05
1.40478e-05
1.40478e-05
1.40478e-05
1.40478e-05
1.40478e-05
1.40478e-05
1.40478e-05
1.40478e-05
1.40478e-05
1.40478e-05
1.40478e-05
1.40478e-05
1.40478e-05
1.40478e-05
1.40478e-05
1.40478e-05
1.40478e-05
1.40478e-05
1.40478e-05
1.40478e-05
1.40478e-05
1.40478e-05
1.40478e-05
1.40478e-05
1.40478e-05
1.40478e-05
1.40478e-05
1.40478e-05
1.40478e-05
1.40478e-05
1.40478e-05
1.40478e-05
1.40478e-05
1.40478e-05
1.40478e-05
1.40478e-05
1.40478e-05
1.40478e-05
1.40478e-05
1.40478e-05
1.40478e-05
1.40478e-05
1.40478e-05
1.40478e-05
1.40478e-05
1.40478e-05
1.40478e-05
1.40478e-05
1.40478e-05
1.40478e-05
1.40478e-05
1.40478e-05
1.40478e-05
1.40478e-05
1.40478e-05
1.40478e-05
1.40478e-05
1.40478e-05
1.40478e-05
1.40478e-05
1.40478e-05
1.40478e-05
1.40478e-05
1.40478e-05
1.40478e-05
1.40478e-05
1.40478e-05
1.40478e-05
1.40478e-05
1.40478e-05
1.40478e-05
1.40478e-05
1.40478e-05
1.40478e-05
1.40478e-05
1.40478e-05
1.40478e-05
1.40478e-05
1.40478e-05
1.40478e-05
1.40478e-05
1.40478e-05
1.40478e-05
1.40478e-05
1.40478e-05
1.40478e-05
1.40478e-05
1.40478e-05
1.40478e-05
1.40478e-05
1.40478e-05
1.40478e-05
1.40478e-05
1.40478e-05
1.40478e-05
1.40478e-05
1.40478e-05
1.40478e-05
1.40478e-05
1.40478e-05
1.40478e-05
1.40478e-05
1.40478e-05
1.40478e-05
1.40478e-05
1.40478e-05
1.40478e-05
1.40478e-05
1.40478e-05
1.40478e-05
1.40478e-05
1.40478e-05
1.40478e-05
1.40478e-05
1.40478e-05
1.40478e-05
1.40478e-05
1.40478e-05
1.40478e-05
1.40478e-05
1.40478e-05
1.40478e-05
1.40478e-05
1.40478e-05
1.40478e-05
1.40478e-05
1.40478e-05
1.40478e-05
1.40478e-05
1.40478e-05
1.40478e-05
1.40478e-05
1.40478e-05
1.40478e-05
1.40478e-05
1.40478e-05
1.40478e-05
1.40478e-05
1.40478e-05
1.40478e-05
1.40478e-05
1.40478e-05
1.40478e-05
1.40478e-05
1.40478e-05
1.40478e-05
1.40478e-05
1.40478e-05
1.40478e-05
1.40478e-05
1.40478e-05
1.40478e-05
1.40478e-05
1.40478e-05
1.40478e-05
1.40478e-05
1.40478e-05
1.40478e-05
1.40478e-05
1.40478e-05
1.40478e-05
1.40478e-05
1.40478e-05
1.40478e-05
1.40478e-05
1.40478e-05
1.40478e-05
1.40478e-05
1.40478e-05
1.40478e-05
1.40478e-05
1.40478e-05
1.40478e-05
1.40478e-05
1.40478e-05
1.40478e-05
1.40478e-05
1.40478e-05
1.40478e-05
1.40478e-05
1.40478e-05
1.40478e-05
1.40478e-05
1.40478e-05
1.40478e-05
1.40478e-05
1.40478e-05
1.40478e-05
1.40478e-05
1.40478e-05
1.40478e-05
1.40478e-05
1.40478e-05
1.40478e-05
1.40478e-05
1.40478e-05
1.40478e-05
1.40478e-05
1.40478e-05
1.40478e-05
1.40478e-05
1.40478e-05
1.40478e-05
1.40478e-05
1.40478e-05
1.40478e-05
1.40478e-05
1.40478e-05
1.40478e-05
1.40478e-05
1.40478e-05
1.40478e-05
1.40478e-05
1.40478e-05
1.40478e-05
1.40478e-05
1.40478e-05
1.40478e-05
1.40478e-05
1.40478e-05
1.40478e-05
1.40478e-05
1.40478e-05
1.40478e-05
1.40478e-05
1.40478e-05
1.40478e-05
1.40478e-05
1.40478e-05
1.40478e-05
1.40478e-05
1.40478e-05
1.40478e-05
1.40478e-05
1.40478e-05
1.40478e-05
1.40478e-05
1.40478e-05
1.40478e-05
1.40478e-05
1.40478e-05
1.40478e-05
1.40478e-05
1.40478e-05
1.40478e-05
1.40478e-05
1.40478e-05
1.40478e-05
1.40478e-05
1.40478e-05
1.40478e-05
1.40478e-05
1.40478e-05
1.40478e-05
1.40478e-05
1.40478e-05
1.40478e-05
1.40478e-05
1.40478e-05
1.40478e-05
1.40478e-05
1.40478e-05
1.40478e-05
1.40478e-05
1.40478e-05
1.40478e-05
1.40478e-05
1.40478e-05
1.40478e-05
1.40478e-05
1.40478e-05
1.40478e-05
1.40478e-05
1.40478e-05
1.40478e-05
1.40478e-05
1.40478e-05
1.40478e-05
1.40478e-05
1.40478e-05
1.40478e-05
1.40478e-05
1.40478e-05
1.40478e-05
1.40478e-05
1.40478e-05
1.40478e-05
1.40478e-05
1.40478e-05
1.40478e-05
1.40478e-05
1.40478e-05
1.40478e-05
1.40478e-05
1.40478e-05
1.40478e-05
1.40478e-05
1.40478e-05
1.40478e-05
1.40478e-05
1.40478e-05
1.40478e-05
1.40478e-05
1.40478e-05
1.40478e-05
1.40478e-05
1.40478e-05
1.40478e-05
1.40478e-05
1.40478e-05
1.40478e-05
1.40478e-05
1.40478e-05
1.40478e-05
1.40478e-05
1.40478e-05
1.40478e-05
1.40478e-05
1.40478e-05
1.40478e-05
1.40478e-05
1.40478e-05
1.40478e-05
1.40478e-05
1.40478e-05
1.40478e-05
1.40478e-05
1.40478e-05
1.40478e-05
1.40478e-05
1.40478e-05
1.40478e-05
1.40478e-05
1.40478e-05
1.40478e-05
1.40478e-05
1.40478e-05
1.40478e-05
1.40478e-05
1.40478e-05
1.40478e-05
1.40478e-05
1.40478e-05
1.40478e-05
1.40478e-05
1.40478e-05
1.40478e-05
1.40478e-05
1.40478e-05
1.40478e-05
1.40478e-05
1.40478e-05
1.40478e-05
1.40478e-05
1.40478e-05
1.40478e-05
1.40478e-05
1.40478e-05
1.40478e-05
1.40478e-05
1.40478e-05
1.40478e-05
1.40478e-05
1.40478e-05
1.40478e-05
1.40478e-05
1.40478e-05
1.40478e-05
1.40478e-05
1.40478e-05
1.40478e-05
1.40478e-05
1.40478e-05
1.40478e-05
1.40478e-05
1.40478e-05
1.40478e-05
1.40478e-05
1.40478e-05
1.40478e-05
1.40478e-05
1.40478e-05
1.40478e-05
1.40478e-05
1.40478e-05
1.40478e-05
1.40478e-05
1.40478e-05
1.40478e-05
1.40478e-05
1.40478e-05
1.40478e-05
1.40478e-05
1.40478e-05
1.40478e-05
1.40478e-05
1.40478e-05
1.40478e-05
1.40478e-05
1.40478e-05
1.40478e-05
1.40478e-05
1.40478e-05
1.40478e-05
1.40478e-05
1.40478e-05
1.40478e-05
1.40478e-05
1.40478e-05
1.40478e-05
1.40478e-05
1.40478e-05
1.40478e-05
1.40478e-05
1.40478e-05
1.40478e-05
1.40478e-05
1.40478e-05
1.40478e-05
1.40478e-05
1.40478e-05
1.40478e-05
1.40478e-05
1.40478e-05
1.40478e-05
1.40478e-05
1.40478e-05
1.40478e-05
1.40478e-05
1.40478e-05
1.40478e-05
1.40478e-05
1.40478e-05
1.40478e-05
1.40478e-05
1.40478e-05
1.40478e-05
1.40478e-05
1.40478e-05
1.40478e-05
1.40478e-05
1.40478e-05
1.40478e-05
1.40478e-05
1.40478e-05
1.40478e-05
1.40478e-05
1.40478e-05
1.40478e-05
1.40478e-05
1.40478e-05
1.40478e-05
1.40478e-05
1.40478e-05
1.40478e-05
1.40478e-05
1.40479e-05
1.4048e-05
1.40478e-05
1.40478e-05
1.40478e-05
1.40478e-05
1.40478e-05
1.40478e-05
1.40478e-05
1.40478e-05
1.40478e-05
1.40478e-05
1.40478e-05
1.40478e-05
1.40478e-05
1.40478e-05
1.40478e-05
1.40478e-05
1.40478e-05
1.40478e-05
1.40478e-05
1.40478e-05
1.40478e-05
1.40478e-05
1.40478e-05
1.40478e-05
1.40478e-05
1.40478e-05
1.40478e-05
1.40478e-05
1.40478e-05
1.40478e-05
1.40478e-05
1.40478e-05
1.40478e-05
1.40478e-05
1.40478e-05
1.40478e-05
1.40478e-05
1.40478e-05
1.40478e-05
1.40478e-05
1.40478e-05
1.40478e-05
1.40478e-05
1.40478e-05
1.40478e-05
1.40479e-05
1.4048e-05
1.40482e-05
1.40485e-05
1.40491e-05
1.40478e-05
1.40478e-05
1.40478e-05
1.40478e-05
1.40478e-05
1.40478e-05
1.40478e-05
1.40478e-05
1.40478e-05
1.40478e-05
1.40478e-05
1.40478e-05
1.40478e-05
1.40478e-05
1.40478e-05
1.40478e-05
1.40478e-05
1.40478e-05
1.40478e-05
1.40478e-05
1.40478e-05
1.40478e-05
1.40478e-05
1.40478e-05
1.40478e-05
1.40478e-05
1.40478e-05
1.40478e-05
1.40478e-05
1.40478e-05
1.40478e-05
1.40478e-05
1.40478e-05
1.40478e-05
1.40478e-05
1.40478e-05
1.40478e-05
1.40478e-05
1.40478e-05
1.40478e-05
1.40478e-05
1.40479e-05
1.40479e-05
1.4048e-05
1.40481e-05
1.40484e-05
1.4049e-05
1.40499e-05
1.40517e-05
1.40552e-05
1.40478e-05
1.40478e-05
1.40478e-05
1.40478e-05
1.40478e-05
1.40478e-05
1.40478e-05
1.40478e-05
1.40478e-05
1.40478e-05
1.40478e-05
1.40478e-05
1.40478e-05
1.40478e-05
1.40478e-05
1.40478e-05
1.40478e-05
1.40478e-05
1.40478e-05
1.40478e-05
1.40478e-05
1.40478e-05
1.40478e-05
1.40478e-05
1.40478e-05
1.40478e-05
1.40478e-05
1.40478e-05
1.40478e-05
1.40478e-05
1.40478e-05
1.40478e-05
1.40478e-05
1.40478e-05
1.40478e-05
1.40478e-05
1.40478e-05
1.40478e-05
1.40479e-05
1.40479e-05
1.4048e-05
1.40481e-05
1.40484e-05
1.40489e-05
1.40498e-05
1.40515e-05
1.40544e-05
1.40598e-05
1.40698e-05
1.40894e-05
1.40478e-05
1.40478e-05
1.40478e-05
1.40478e-05
1.40478e-05
1.40478e-05
1.40478e-05
1.40478e-05
1.40478e-05
1.40478e-05
1.40478e-05
1.40478e-05
1.40478e-05
1.40478e-05
1.40478e-05
1.40478e-05
1.40478e-05
1.40478e-05
1.40478e-05
1.40478e-05
1.40478e-05
1.40478e-05
1.40478e-05
1.40478e-05
1.40478e-05
1.40478e-05
1.40478e-05
1.40478e-05
1.40478e-05
1.40478e-05
1.40478e-05
1.40478e-05
1.40478e-05
1.40478e-05
1.40478e-05
1.40479e-05
1.40479e-05
1.4048e-05
1.40482e-05
1.40484e-05
1.40489e-05
1.40498e-05
1.40514e-05
1.40542e-05
1.40593e-05
1.40683e-05
1.40847e-05
1.41143e-05
1.41685e-05
1.42725e-05
1.40478e-05
1.40478e-05
1.40478e-05
1.40478e-05
1.40478e-05
1.40478e-05
1.40478e-05
1.40478e-05
1.40478e-05
1.40478e-05
1.40478e-05
1.40478e-05
1.40478e-05
1.40478e-05
1.40478e-05
1.40478e-05
1.40478e-05
1.40478e-05
1.40478e-05
1.40478e-05
1.40478e-05
1.40478e-05
1.40478e-05
1.40478e-05
1.40478e-05
1.40478e-05
1.40478e-05
1.40478e-05
1.40478e-05
1.40478e-05
1.40478e-05
1.40478e-05
1.40479e-05
1.40479e-05
1.4048e-05
1.40482e-05
1.40485e-05
1.4049e-05
1.40499e-05
1.40515e-05
1.40542e-05
1.40591e-05
1.40678e-05
1.40832e-05
1.41106e-05
1.41596e-05
1.42471e-05
1.4403e-05
1.4681e-05
1.51842e-05
1.40478e-05
1.40478e-05
1.40478e-05
1.40478e-05
1.40478e-05
1.40478e-05
1.40478e-05
1.40478e-05
1.40478e-05
1.40478e-05
1.40478e-05
1.40478e-05
1.40478e-05
1.40478e-05
1.40478e-05
1.40478e-05
1.40478e-05
1.40478e-05
1.40478e-05
1.40478e-05
1.40478e-05
1.40478e-05
1.40478e-05
1.40478e-05
1.40478e-05
1.40478e-05
1.40478e-05
1.40478e-05
1.40478e-05
1.40479e-05
1.40479e-05
1.4048e-05
1.40482e-05
1.40485e-05
1.40491e-05
1.405e-05
1.40516e-05
1.40544e-05
1.40592e-05
1.40678e-05
1.40827e-05
1.4109e-05
1.41553e-05
1.42369e-05
1.43801e-05
1.46301e-05
1.50608e-05
1.57867e-05
1.69714e-05
1.88299e-05
1.40478e-05
1.40478e-05
1.40478e-05
1.40478e-05
1.40478e-05
1.40478e-05
1.40478e-05
1.40478e-05
1.40478e-05
1.40478e-05
1.40478e-05
1.40478e-05
1.40478e-05
1.40478e-05
1.40478e-05
1.40478e-05
1.40478e-05
1.40478e-05
1.40478e-05
1.40478e-05
1.40478e-05
1.40478e-05
1.40478e-05
1.40478e-05
1.40478e-05
1.40479e-05
1.40479e-05
1.4048e-05
1.40481e-05
1.40483e-05
1.40486e-05
1.40492e-05
1.40502e-05
1.40518e-05
1.40547e-05
1.40597e-05
1.40683e-05
1.40832e-05
1.4109e-05
1.4154e-05
1.42322e-05
1.43678e-05
1.46019e-05
1.50006e-05
1.56655e-05
1.67376e-05
1.8386e-05
2.07733e-05
2.4011e-05
2.8117e-05
1.40478e-05
1.40478e-05
1.40478e-05
1.40478e-05
1.40478e-05
1.40478e-05
1.40478e-05
1.40478e-05
1.40478e-05
1.40478e-05
1.40478e-05
1.40478e-05
1.40478e-05
1.40478e-05
1.40478e-05
1.40478e-05
1.40478e-05
1.40478e-05
1.40478e-05
1.40478e-05
1.40478e-05
1.40478e-05
1.40479e-05
1.40479e-05
1.4048e-05
1.40481e-05
1.40484e-05
1.40487e-05
1.40494e-05
1.40504e-05
1.40522e-05
1.40553e-05
1.40605e-05
1.40694e-05
1.40846e-05
1.41106e-05
1.41554e-05
1.42323e-05
1.43642e-05
1.45889e-05
1.49676e-05
1.55931e-05
1.65946e-05
1.81277e-05
2.03449e-05
2.33488e-05
2.71554e-05
3.16879e-05
3.68073e-05
4.23351e-05
1.40478e-05
1.40478e-05
1.40478e-05
1.40478e-05
1.40478e-05
1.40478e-05
1.40478e-05
1.40478e-05
1.40478e-05
1.40478e-05
1.40478e-05
1.40478e-05
1.40478e-05
1.40478e-05
1.40478e-05
1.40478e-05
1.40478e-05
1.40478e-05
1.40478e-05
1.40479e-05
1.40479e-05
1.4048e-05
1.40482e-05
1.40485e-05
1.40489e-05
1.40496e-05
1.40508e-05
1.40528e-05
1.40561e-05
1.40617e-05
1.40711e-05
1.4087e-05
1.4114e-05
1.41598e-05
1.42374e-05
1.43688e-05
1.45899e-05
1.49583e-05
1.55604e-05
1.65158e-05
1.79696e-05
2.00659e-05
2.29072e-05
2.65174e-05
3.08321e-05
3.57183e-05
4.10108e-05
4.65458e-05
5.21848e-05
5.77966e-05
1.40478e-05
1.40478e-05
1.40478e-05
1.40478e-05
1.40478e-05
1.40478e-05
1.40478e-05
1.40478e-05
1.40478e-05
1.40478e-05
1.40478e-05
1.40478e-05
1.40478e-05
1.40478e-05
1.40478e-05
1.40479e-05
1.40479e-05
1.4048e-05
1.40481e-05
1.40483e-05
1.40486e-05
1.40491e-05
1.40499e-05
1.40513e-05
1.40535e-05
1.40572e-05
1.40634e-05
1.40736e-05
1.40907e-05
1.41194e-05
1.41673e-05
1.42476e-05
1.43818e-05
1.46049e-05
1.49718e-05
1.55644e-05
1.64949e-05
1.78988e-05
1.99116e-05
2.26324e-05
2.609e-05
3.02323e-05
3.49411e-05
4.00635e-05
4.54411e-05
5.09304e-05
5.64099e-05
6.17727e-05
6.69276e-05
7.1814e-05
1.40478e-05
1.40478e-05
1.40478e-05
1.40478e-05
1.40478e-05
1.40478e-05
1.40478e-05
1.40478e-05
1.40478e-05
1.40478e-05
1.40478e-05
1.40478e-05
1.40479e-05
1.40479e-05
1.4048e-05
1.40482e-05
1.40484e-05
1.40488e-05
1.40494e-05
1.40504e-05
1.4052e-05
1.40545e-05
1.40588e-05
1.40657e-05
1.40772e-05
1.4096e-05
1.41272e-05
1.41787e-05
1.42638e-05
1.44043e-05
1.46347e-05
1.50088e-05
1.56051e-05
1.65302e-05
1.79108e-05
1.98735e-05
2.2511e-05
2.58533e-05
2.98557e-05
3.44125e-05
3.9384e-05
4.46223e-05
4.99907e-05
5.5372e-05
6.06634e-05
6.57703e-05
7.06158e-05
7.51358e-05
7.92483e-05
8.28851e-05
1.40478e-05
1.40478e-05
1.40478e-05
1.40478e-05
1.40478e-05
1.40478e-05
1.40478e-05
1.40478e-05
1.40479e-05
1.40479e-05
1.4048e-05
1.40481e-05
1.40483e-05
1.40486e-05
1.40491e-05
1.40498e-05
1.4051e-05
1.40529e-05
1.4056e-05
1.40609e-05
1.4069e-05
1.4082e-05
1.41033e-05
1.4138e-05
1.41947e-05
1.42872e-05
1.44379e-05
1.46816e-05
1.50717e-05
1.5685e-05
1.66232e-05
1.80054e-05
1.99486e-05
2.25374e-05
2.57988e-05
2.9692e-05
3.41207e-05
3.89566e-05
4.4063e-05
4.93119e-05
5.45921e-05
5.9809e-05
6.48736e-05
6.97079e-05
7.42471e-05
7.84246e-05
8.21543e-05
8.53507e-05
8.7954e-05
9.00039e-05
1.40478e-05
1.40478e-05
1.40478e-05
1.40478e-05
1.40479e-05
1.40479e-05
1.4048e-05
1.40481e-05
1.40482e-05
1.40485e-05
1.40488e-05
1.40494e-05
1.40504e-05
1.40518e-05
1.40542e-05
1.40579e-05
1.40639e-05
1.40734e-05
1.40887e-05
1.41134e-05
1.4153e-05
1.42169e-05
1.43199e-05
1.44852e-05
1.4749e-05
1.5165e-05
1.5809e-05
1.67789e-05
1.81867e-05
2.0139e-05
2.27109e-05
2.59234e-05
2.97364e-05
3.40604e-05
3.8777e-05
4.37604e-05
4.88917e-05
5.40664e-05
5.91963e-05
6.42011e-05
6.9005e-05
7.35445e-05
7.77621e-05
8.15877e-05
8.49367e-05
8.77394e-05
8.99698e-05
9.16669e-05
9.29018e-05
9.3797e-05
1.40478e-05
1.40479e-05
1.40479e-05
1.4048e-05
1.4048e-05
1.40482e-05
1.40484e-05
1.40487e-05
1.40492e-05
1.405e-05
1.40512e-05
1.40531e-05
1.4056e-05
1.40607e-05
1.4068e-05
1.40796e-05
1.40979e-05
1.41271e-05
1.41735e-05
1.42473e-05
1.43646e-05
1.45503e-05
1.48422e-05
1.52952e-05
1.59849e-05
1.7006e-05
1.84631e-05
2.04519e-05
2.3036e-05
2.62285e-05
2.99879e-05
3.42289e-05
3.8842e-05
4.37114e-05
4.87276e-05
5.37939e-05
5.88277e-05
6.37573e-05
6.85119e-05
7.30293e-05
7.72561e-05
8.11357e-05
8.45947e-05
8.75581e-05
8.99808e-05
9.18677e-05
9.32756e-05
9.42864e-05
9.49974e-05
9.54865e-05
9.58359e-05
1.4048e-05
1.40482e-05
1.40483e-05
1.40486e-05
1.40491e-05
1.40497e-05
1.40508e-05
1.40524e-05
1.40548e-05
1.40586e-05
1.40646e-05
1.40738e-05
1.40882e-05
1.41107e-05
1.41461e-05
1.42017e-05
1.42889e-05
1.44255e-05
1.46388e-05
1.49686e-05
1.5472e-05
1.62245e-05
1.73174e-05
1.88475e-05
2.08987e-05
2.35217e-05
2.672e-05
3.04488e-05
3.4626e-05
3.91498e-05
4.3914e-05
4.88189e-05
5.37757e-05
5.87079e-05
6.35504e-05
6.82397e-05
7.27154e-05
7.69266e-05
8.08247e-05
8.43492e-05
8.74292e-05
9.00083e-05
9.20686e-05
9.36412e-05
9.47942e-05
9.56125e-05
9.61813e-05
9.65696e-05
9.68379e-05
9.7022e-05
9.71504e-05
1.40486e-05
1.4049e-05
1.40496e-05
1.40506e-05
1.4052e-05
1.40541e-05
1.40574e-05
1.40624e-05
1.40701e-05
1.4082e-05
1.41004e-05
1.41287e-05
1.41726e-05
1.42407e-05
1.43461e-05
1.45088e-05
1.47588e-05
1.51391e-05
1.57088e-05
1.65435e-05
1.77306e-05
1.93579e-05
2.1496e-05
2.41815e-05
2.74075e-05
3.11251e-05
3.52545e-05
3.97011e-05
4.43682e-05
4.91655e-05
5.40122e-05
5.88384e-05
6.35844e-05
6.81941e-05
7.2611e-05
7.67857e-05
8.06744e-05
8.42278e-05
8.73833e-05
9.00801e-05
9.22849e-05
9.40073e-05
9.52978e-05
9.62288e-05
9.68816e-05
9.73297e-05
9.76353e-05
9.78426e-05
9.7978e-05
9.80662e-05
9.814e-05
9.82021e-05
1.40518e-05
1.40538e-05
1.40567e-05
1.40612e-05
1.4068e-05
1.40783e-05
1.4094e-05
1.41178e-05
1.41543e-05
1.421e-05
1.42953e-05
1.44254e-05
1.46233e-05
1.49222e-05
1.53686e-05
1.60239e-05
1.69631e-05
1.82685e-05
2.00169e-05
2.22644e-05
2.50327e-05
2.8304e-05
3.20253e-05
3.61192e-05
4.04981e-05
4.50741e-05
4.97664e-05
5.45023e-05
5.92186e-05
6.38606e-05
6.83789e-05
7.27222e-05
7.6843e-05
8.07006e-05
8.42529e-05
8.74469e-05
9.02238e-05
9.25416e-05
9.43922e-05
9.58074e-05
9.68479e-05
9.75876e-05
9.81009e-05
9.84478e-05
9.86815e-05
9.88355e-05
9.89307e-05
9.89934e-05
9.90485e-05
9.90781e-05
9.90707e-05
9.90522e-05
1.4067e-05
1.40764e-05
1.40904e-05
1.41116e-05
1.41433e-05
1.41913e-05
1.42636e-05
1.43726e-05
1.45365e-05
1.47818e-05
1.51456e-05
1.56779e-05
1.64419e-05
1.75109e-05
1.89597e-05
2.08523e-05
2.32288e-05
2.60957e-05
2.94249e-05
3.31599e-05
3.72263e-05
4.15433e-05
4.60323e-05
5.0621e-05
5.52452e-05
5.98481e-05
6.43803e-05
6.87975e-05
7.30544e-05
7.71061e-05
8.09134e-05
8.444e-05
8.76413e-05
9.0464e-05
9.28618e-05
9.48144e-05
9.6338e-05
9.74801e-05
9.83046e-05
9.88817e-05
9.92755e-05
9.95387e-05
9.97129e-05
9.98186e-05
9.98787e-05
9.99242e-05
9.99588e-05
9.99532e-05
9.99303e-05
9.98919e-05
9.98414e-05
9.97905e-05
1.41379e-05
1.41811e-05
1.42455e-05
1.43412e-05
1.44834e-05
1.46938e-05
1.50029e-05
1.54523e-05
1.60951e-05
1.69952e-05
1.82216e-05
1.9839e-05
2.18965e-05
2.44172e-05
2.73929e-05
3.07868e-05
3.45402e-05
3.85825e-05
4.28402e-05
4.72435e-05
5.17289e-05
5.62398e-05
6.07259e-05
6.51428e-05
6.94506e-05
7.36097e-05
7.75783e-05
8.13194e-05
8.47999e-05
8.79825e-05
9.08199e-05
9.32662e-05
9.52939e-05
9.69057e-05
9.81355e-05
9.90383e-05
9.96788e-05
0.00010012
0.000100414
0.000100607
0.000100727
0.000100792
0.000100828
0.000100857
0.000100861
0.000100837
0.000100795
0.000100738
0.000100675
0.000100611
0.00010055
0.00010049
1.44553e-05
1.46441e-05
1.49185e-05
1.53136e-05
1.58749e-05
1.6658e-05
1.77249e-05
1.91371e-05
2.09464e-05
2.3185e-05
2.5859e-05
2.89474e-05
3.24065e-05
3.61775e-05
4.01947e-05
4.43921e-05
4.87087e-05
5.30892e-05
5.74843e-05
6.18497e-05
6.61457e-05
7.03368e-05
7.43881e-05
7.82615e-05
8.19223e-05
8.53396e-05
8.84815e-05
9.13073e-05
9.37734e-05
9.58483e-05
9.75251e-05
9.88266e-05
9.97985e-05
0.000100497
0.000100983
0.00010131
0.000101523
0.000101657
0.000101727
0.000101759
0.000101778
0.000101783
0.00010176
0.000101717
0.000101659
0.000101589
0.000101515
0.000101441
0.000101369
0.000101296
0.000101226
0.000101157
1.57517e-05
1.64578e-05
1.74155e-05
1.86814e-05
2.03062e-05
2.23257e-05
2.47546e-05
2.75834e-05
3.07808e-05
3.42992e-05
3.80817e-05
4.20683e-05
4.62013e-05
5.04277e-05
5.47e-05
5.89757e-05
6.3216e-05
6.73859e-05
7.14536e-05
7.53883e-05
7.91559e-05
8.27236e-05
8.60629e-05
8.91457e-05
9.1937e-05
9.43968e-05
9.64925e-05
9.82112e-05
9.95663e-05
0.000100594
0.000101343
0.00010187
0.000102228
0.000102461
0.000102605
0.000102686
0.000102719
0.000102726
0.000102724
0.000102706
0.000102661
0.000102599
0.000102524
0.000102442
0.000102358
0.000102275
0.000102193
0.000102111
0.000102029
0.000101947
0.000101867
0.000101787
1.99233e-05
2.17817e-05
2.40216e-05
2.66406e-05
2.96167e-05
3.29118e-05
3.64772e-05
4.026e-05
4.4207e-05
4.82684e-05
5.23989e-05
5.65584e-05
6.07103e-05
6.48208e-05
6.88593e-05
7.27973e-05
7.66075e-05
8.02594e-05
8.37228e-05
8.69709e-05
8.99786e-05
9.27159e-05
9.51467e-05
9.72393e-05
9.89769e-05
0.000100365
0.000101433
0.000102223
0.000102785
0.000103171
0.000103422
0.000103578
0.000103667
0.000103701
0.0001037
0.00010369
0.00010367
0.000103623
0.000103557
0.00010348
0.000103392
0.000103299
0.000103206
0.000103113
0.000103021
0.000102929
0.000102838
0.000102746
0.000102655
0.000102563
0.000102471
0.00010238
3.198e-05
3.53539e-05
3.89486e-05
4.27164e-05
4.66116e-05
5.05919e-05
5.46194e-05
5.86601e-05
6.2683e-05
6.66588e-05
7.05603e-05
7.43624e-05
7.80408e-05
8.15682e-05
8.49169e-05
8.8062e-05
9.0981e-05
9.36475e-05
9.60296e-05
9.80972e-05
9.98317e-05
0.000101234
0.000102327
0.000103145
0.000103734
0.000104141
0.00010441
0.000104575
0.000104669
0.000104708
0.000104701
0.000104682
0.000104654
0.000104608
0.000104538
0.000104455
0.000104362
0.00010426
0.000104157
0.000104055
0.000103953
0.000103852
0.000103751
0.000103649
0.000103548
0.000103447
0.000103346
0.000103243
0.000103141
0.000103038
0.000102936
4.54511e-05
4.92802e-05
5.31684e-05
5.70844e-05
6.09995e-05
6.48874e-05
6.87227e-05
7.24816e-05
7.61418e-05
7.96816e-05
8.30765e-05
8.63013e-05
8.9333e-05
9.21511e-05
9.47324e-05
9.70487e-05
9.90718e-05
0.000100783
0.000102181
0.000103281
0.000104115
0.000104721
0.000105145
0.000105426
0.000105598
0.000105695
0.000105736
0.000105726
0.000105699