/*--------------------------------*- C++ -*----------------------------------*\
| =========                 |                                                 |
| \\      /  F ield         | OpenFOAM: The Open Source CFD Toolbox           |
|  \\    /   O peration     | Version:  v1706                                 |
|   \\  /    A nd           | Web:      www.OpenFOAM.com                      |
|    \\/     M anipulation  |                                                 |
\*---------------------------------------------------------------------------*/
FoamFile
{
    version     2.0;
    format      ascii;
    class       volScalarField;
    location    "1.1e-05";
    object      kappatr;
}
// * * * * * * * * * * * * * * * * * * * * * * * * * * * * * * * * * * * * * //

dimensions      [1 1 -3 -1 0 0 0];


internalField   nonuniform List<scalar> 
30038
(
0.014593
0.014593
0.014593
0.014593
0.014593
0.014593
0.014593
0.014593
0.014593
0.014593
0.014593
0.014593
0.014593
0.014593
0.014593
0.014593
0.014593
0.014593
0.014593
0.014593
0.014593
0.014593
0.014593
0.014593
0.014593
0.014593
0.014593
0.014593
0.014593
0.014593
0.014593
0.014593
0.014593
0.014593
0.014593
0.014593
0.014593
0.014593
0.014593
0.014593
0.014593
0.014593
0.014593
0.014593
0.014593
0.014593
0.014593
0.014593
0.014593
0.014593
0.014593
0.014593
0.014593
0.014593
0.014593
0.014593
0.014593
0.014593
0.014593
0.014593
0.014593
0.014593
0.014593
0.014593
0.014593
0.014593
0.014593
0.014593
0.014593
0.014593
0.014593
0.014593
0.014593
0.014593
0.014593
0.014593
0.014593
0.014593
0.014593
0.014593
0.014593
0.014593
0.014593
0.014593
0.014593
0.014593
0.014593
0.014593
0.014593
0.014593
0.014593
0.014593
0.014593
0.014593
0.014593
0.014593
0.014593
0.014593
0.014593
0.014593
0.014593
0.014593
0.014593
0.014593
0.014593
0.014593
0.014593
0.014593
0.014593
0.014593
0.014593
0.014593
0.014593
0.014593
0.014593
0.014593
0.014593
0.014593
0.014593
0.014593
0.014593
0.014593
0.014593
0.014593
0.014593
0.014593
0.014593
0.014593
0.014593
0.014593
0.014593
0.014593
0.014593
0.014593
0.014593
0.014593
0.014593
0.014593
0.014593
0.014593
0.014593
0.014593
0.014593
0.014593
0.014593
0.014593
0.014593
0.014593
0.014593
0.014593
0.014593
0.014593
0.014593
0.014593
0.014593
0.014593
0.014593
0.014593
0.014593
0.014593
0.014593
0.014593
0.014593
0.014593
0.014593
0.014593
0.014593
0.014593
0.014593
0.014593
0.014593
0.014593
0.014593
0.014593
0.014593
0.014593
0.014593
0.014593
0.014593
0.014593
0.014593
0.014593
0.014593
0.014593
0.014593
0.014593
0.014593
0.014593
0.014593
0.014593
0.014593
0.014593
0.014593
0.014593
0.014593
0.014593
0.014593
0.014593
0.014593
0.014593
0.014593
0.014593
0.014593
0.014593
0.014593
0.014593
0.014593
0.014593
0.014593
0.014593
0.014593
0.014593
0.014593
0.014593
0.014593
0.014593
0.014593
0.014593
0.014593
0.014593
0.014593
0.014593
0.014593
0.014593
0.014593
0.014593
0.014593
0.014593
0.014593
0.014593
0.014593
0.014593
0.014593
0.014593
0.014593
0.014593
0.014593
0.014593
0.014593
0.014593
0.014593
0.014593
0.014593
0.014593
0.014593
0.014593
0.014593
0.014593
0.014593
0.014593
0.014593
0.014593
0.014593
0.014593
0.014593
0.014593
0.014593
0.014593
0.014593
0.014593
0.014593
0.014593
0.014593
0.014593
0.014593
0.014593
0.014593
0.014593
0.014593
0.014593
0.014593
0.014593
0.014593
0.014593
0.014593
0.014593
0.014593
0.014593
0.014593
0.014593
0.014593
0.014593
0.014593
0.014593
0.014593
0.014593
0.014593
0.014593
0.014593
0.014593
0.014593
0.014593
0.014593
0.014593
0.014593
0.014593
0.014593
0.014593
0.014593
0.014593
0.014593
0.014593
0.014593
0.014593
0.014593
0.014593
0.014593
0.014593
0.014593
0.014593
0.014593
0.014593
0.014593
0.014593
0.014593
0.014593
0.014593
0.014593
0.014593
0.014593
0.014593
0.014593
0.014593
0.014593
0.014593
0.014593
0.014593
0.014593
0.014593
0.014593
0.014593
0.014593
0.014593
0.014593
0.014593
0.014593
0.014593
0.014593
0.014593
0.014593
0.014593
0.014593
0.014593
0.014593
0.014593
0.014593
0.014593
0.014593
0.014593
0.014593
0.014593
0.014593
0.014593
0.014593
0.014593
0.014593
0.014593
0.014593
0.014593
0.014593
0.014593
0.014593
0.014593
0.014593
0.014593
0.014593
0.014593
0.014593
0.014593
0.014593
0.014593
0.014593
0.014593
0.014593
0.014593
0.014593
0.014593
0.014593
0.014593
0.014593
0.014593
0.014593
0.014593
0.014593
0.014593
0.014593
0.014593
0.014593
0.014593
0.014593
0.014593
0.014593
0.014593
0.014593
0.014593
0.014593
0.014593
0.014593
0.014593
0.014593
0.014593
0.014593
0.014593
0.014593
0.014593
0.014593
0.014593
0.014593
0.014593
0.014593
0.014593
0.014593
0.014593
0.014593
0.014593
0.014593
0.014593
0.014593
0.014593
0.014593
0.014593
0.014593
0.014593
0.014593
0.014593
0.014593
0.014593
0.014593
0.014593
0.014593
0.014593
0.014593
0.014593
0.014593
0.014593
0.014593
0.014593
0.014593
0.014593
0.014593
0.014593
0.014593
0.014593
0.014593
0.014593
0.014593
0.014593
0.014593
0.014593
0.014593
0.014593
0.014593
0.014593
0.014593
0.014593
0.014593
0.014593
0.014593
0.014593
0.014593
0.014593
0.014593
0.014593
0.014593
0.014593
0.014593
0.014593
0.014593
0.014593
0.014593
0.014593
0.014593
0.014593
0.014593
0.014593
0.014593
0.014593
0.014593
0.014593
0.014593
0.014593
0.014593
0.014593
0.014593
0.014593
0.014593
0.014593
0.014593
0.014593
0.014593
0.014593
0.014593
0.014593
0.014593
0.014593
0.014593
0.014593
0.014593
0.014593
0.014593
0.014593
0.014593
0.014593
0.014593
0.014593
0.014593
0.014593
0.014593
0.014593
0.014593
0.014593
0.014593
0.014593
0.014593
0.014593
0.014593
0.014593
0.014593
0.014593
0.014593
0.014593
0.014593
0.014593
0.014593
0.014593
0.014593
0.014593
0.014593
0.014593
0.014593
0.014593
0.014593
0.014593
0.014593
0.014593
0.014593
0.014593
0.014593
0.014593
0.014593
0.014593
0.014593
0.014593
0.014593
0.014593
0.014593
0.014593
0.014593
0.014593
0.014593
0.014593
0.014593
0.014593
0.014593
0.014593
0.014593
0.014593
0.014593
0.014593
0.014593
0.014593
0.014593
0.014593
0.014593
0.014593
0.014593
0.014593
0.014593
0.014593
0.014593
0.014593
0.014593
0.014593
0.014593
0.014593
0.014593
0.014593
0.014593
0.014593
0.014593
0.014593
0.014593
0.014593
0.014593
0.014593
0.014593
0.014593
0.014593
0.014593
0.014593
0.014593
0.014593
0.014593
0.014593
0.014593
0.014593
0.014593
0.014593
0.014593
0.014593
0.014593
0.014593
0.014593
0.014593
0.014593
0.014593
0.014593
0.014593
0.014593
0.014593
0.014593
0.014593
0.014593
0.014593
0.014593
0.014593
0.014593
0.014593
0.014593
0.014593
0.014593
0.014593
0.014593
0.014593
0.014593
0.014593
0.014593
0.014593
0.014593
0.014593
0.014593
0.014593
0.014593
0.014593
0.014593
0.014593
0.014593
0.014593
0.014593
0.014593
0.014593
0.014593
0.014593
0.014593
0.014593
0.014593
0.014593
0.014593
0.014593
0.014593
0.014593
0.014593
0.014593
0.014593
0.014593
0.014593
0.014593
0.014593
0.014593
0.014593
0.014593
0.014593
0.014593
0.014593
0.014593
0.014593
0.014593
0.014593
0.014593
0.014593
0.014593
0.014593
0.014593
0.014593
0.014593
0.014593
0.014593
0.014593
0.014593
0.014593
0.014593
0.014593
0.014593
0.014593
0.014593
0.014593
0.014593
0.014593
0.014593
0.014593
0.014593
0.014593
0.014593
0.014593
0.014593
0.014593
0.014593
0.014593
0.014593
0.014593
0.014593
0.014593
0.014593
0.014593
0.014593
0.014593
0.014593
0.014593
0.014593
0.014593
0.014593
0.014593
0.014593
0.014593
0.014593
0.014593
0.014593
0.014593
0.014593
0.014593
0.014593
0.014593
0.014593
0.014593
0.014593
0.014593
0.014593
0.014593
0.014593
0.014593
0.014593
0.014593
0.014593
0.014593
0.014593
0.014593
0.014593
0.014593
0.014593
0.014593
0.014593
0.014593
0.014593
0.014593
0.014593
0.014593
0.014593
0.014593
0.014593
0.014593
0.014593
0.014593
0.014593
0.014593
0.014593
0.014593
0.014593
0.014593
0.014593
0.014593
0.014593
0.014593
0.014593
0.014593
0.014593
0.014593
0.014593
0.014593
0.014593
0.014593
0.014593
0.014593
0.014593
0.014593
0.014593
0.014593
0.014593
0.014593
0.014593
0.014593
0.014593
0.014593
0.014593
0.014593
0.014593
0.014593
0.014593
0.014593
0.014593
0.014593
0.014593
0.014593
0.014593
0.014593
0.014593
0.014593
0.014593
0.014593
0.014593
0.014593
0.014593
0.014593
0.014593
0.014593
0.014593
0.014593
0.014593
0.014593
0.014593
0.014593
0.014593
0.014593
0.014593
0.014593
0.014593
0.014593
0.014593
0.014593
0.014593
0.014593
0.014593
0.014593
0.014593
0.014593
0.014593
0.014593
0.014593
0.014593
0.014593
0.014593
0.014593
0.014593
0.014593
0.014593
0.014593
0.014593
0.014593
0.014593
0.014593
0.014593
0.014593
0.014593
0.014593
0.014593
0.014593
0.014593
0.014593
0.014593
0.014593
0.014593
0.014593
0.014593
0.014593
0.014593
0.014593
0.014593
0.014593
0.014593
0.014593
0.014593
0.014593
0.014593
0.014593
0.014593
0.014593
0.014593
0.014593
0.014593
0.014593
0.014593
0.014593
0.014593
0.014593
0.014593
0.014593
0.014593
0.014593
0.014593
0.014593
0.014593
0.014593
0.014593
0.014593
0.014593
0.014593
0.014593
0.014593
0.014593
0.014593
0.014593
0.014593
0.014593
0.014593
0.014593
0.014593
0.014593
0.014593
0.014593
0.014593
0.014593
0.014593
0.014593
0.014593
0.014593
0.014593
0.014593
0.014593
0.014593
0.014593
0.014593
0.014593
0.014593
0.014593
0.014593
0.014593
0.014593
0.014593
0.014593
0.014593
0.014593
0.014593
0.014593
0.014593
0.014593
0.014593
0.014593
0.014593
0.014593
0.014593
0.014593
0.014593
0.014593
0.014593
0.014593
0.014593
0.014593
0.014593
0.014593
0.014593
0.014593
0.014593
0.014593
0.014593
0.014593
0.014593
0.014593
0.014593
0.014593
0.014593
0.014593
0.014593
0.014593
0.014593
0.014593
0.014593
0.014593
0.014593
0.014593
0.014593
0.014593
0.014593
0.014593
0.014593
0.014593
0.014593
0.014593
0.014593
0.014593
0.014593
0.014593
0.014593
0.014593
0.014593
0.014593
0.014593
0.014593
0.014593
0.014593
0.014593
0.014593
0.014593
0.014593
0.014593
0.014593
0.014593
0.014593
0.014593
0.014593
0.014593
0.014593
0.014593
0.014593
0.014593
0.014593
0.014593
0.014593
0.014593
0.014593
0.014593
0.014593
0.014593
0.014593
0.014593
0.014593
0.014593
0.014593
0.014593
0.014593
0.014593
0.014593
0.014593
0.014593
0.014593
0.014593
0.014593
0.014593
0.014593
0.014593
0.014593
0.014593
0.014593
0.014593
0.014593
0.014593
0.014593
0.014593
0.014593
0.014593
0.014593
0.014593
0.014593
0.014593
0.014593
0.014593
0.014593
0.014593
0.014593
0.014593
0.014593
0.014593
0.014593
0.014593
0.014593
0.014593
0.014593
0.014593
0.014593
0.014593
0.014593
0.014593
0.014593
0.014593
0.014593
0.014593
0.014593
0.014593
0.014593
0.014593
0.014593
0.014593
0.014593
0.014593
0.014593
0.014593
0.014593
0.014593
0.014593
0.014593
0.014593
0.014593
0.014593
0.014593
0.014593
0.014593
0.014593
0.014593
0.014593
0.014593
0.014593
0.014593
0.014593
0.014593
0.014593
0.014593
0.014593
0.014593
0.014593
0.014593
0.014593
0.014593
0.014593
0.014593
0.014593
0.014593
0.014593
0.014593
0.014593
0.014593
0.014593
0.014593
0.014593
0.014593
0.014593
0.014593
0.014593
0.014593
0.014593
0.014593
0.014593
0.014593
0.014593
0.014593
0.014593
0.014593
0.014593
0.014593
0.014593
0.014593
0.014593
0.014593
0.014593
0.014593
0.014593
0.014593
0.014593
0.014593
0.014593
0.014593
0.014593
0.014593
0.014593
0.014593
0.014593
0.014593
0.014593
0.014593
0.014593
0.014593
0.014593
0.014593
0.014593
0.014593
0.014593
0.014593
0.014593
0.014593
0.014593
0.014593
0.014593
0.014593
0.014593
0.014593
0.014593
0.014593
0.014593
0.014593
0.014593
0.014593
0.014593
0.014593
0.014593
0.014593
0.014593
0.014593
0.014593
0.014593
0.014593
0.014593
0.014593
0.014593
0.014593
0.014593
0.014593
0.014593
0.014593
0.014593
0.014593
0.014593
0.014593
0.014593
0.014593
0.014593
0.014593
0.014593
0.014593
0.014593
0.014593
0.014593
0.014593
0.014593
0.014593
0.014593
0.014593
0.014593
0.014593
0.014593
0.014593
0.014593
0.014593
0.014593
0.014593
0.014593
0.014593
0.014593
0.014593
0.014593
0.014593
0.014593
0.014593
0.014593
0.014593
0.014593
0.014593
0.014593
0.014593
0.014593
0.014593
0.014593
0.014593
0.014593
0.014593
0.014593
0.014593
0.014593
0.014593
0.014593
0.014593
0.014593
0.014593
0.014593
0.014593
0.014593
0.014593
0.014593
0.014593
0.014593
0.014593
0.014593
0.014593
0.0145931
0.0145931
0.0145932
0.014593
0.014593
0.014593
0.014593
0.014593
0.014593
0.014593
0.014593
0.014593
0.014593
0.014593
0.014593
0.014593
0.014593
0.014593
0.014593
0.014593
0.014593
0.014593
0.014593
0.014593
0.014593
0.014593
0.014593
0.014593
0.014593
0.014593
0.014593
0.014593
0.014593
0.014593
0.014593
0.014593
0.014593
0.014593
0.014593
0.014593
0.014593
0.014593
0.014593
0.014593
0.014593
0.014593
0.014593
0.0145931
0.0145931
0.0145932
0.0145934
0.0145937
0.0145944
0.014593
0.014593
0.014593
0.014593
0.014593
0.014593
0.014593
0.014593
0.014593
0.014593
0.014593
0.014593
0.014593
0.014593
0.014593
0.014593
0.014593
0.014593
0.014593
0.014593
0.014593
0.014593
0.014593
0.014593
0.014593
0.014593
0.014593
0.014593
0.014593
0.014593
0.014593
0.014593
0.014593
0.014593
0.014593
0.014593
0.014593
0.014593
0.014593
0.014593
0.014593
0.0145931
0.0145931
0.0145932
0.0145934
0.0145937
0.0145942
0.0145952
0.0145971
0.0146007
0.014593
0.014593
0.014593
0.014593
0.014593
0.014593
0.014593
0.014593
0.014593
0.014593
0.014593
0.014593
0.014593
0.014593
0.014593
0.014593
0.014593
0.014593
0.014593
0.014593
0.014593
0.014593
0.014593
0.014593
0.014593
0.014593
0.014593
0.014593
0.014593
0.014593
0.014593
0.014593
0.014593
0.014593
0.014593
0.014593
0.014593
0.014593
0.0145931
0.0145931
0.0145932
0.0145934
0.0145937
0.0145942
0.0145951
0.0145968
0.0145999
0.0146055
0.0146158
0.0146362
0.014593
0.014593
0.014593
0.014593
0.014593
0.014593
0.014593
0.014593
0.014593
0.014593
0.014593
0.014593
0.014593
0.014593
0.014593
0.014593
0.014593
0.014593
0.014593
0.014593
0.014593
0.014593
0.014593
0.014593
0.014593
0.014593
0.014593
0.014593
0.014593
0.014593
0.014593
0.014593
0.014593
0.014593
0.014593
0.0145931
0.0145931
0.0145932
0.0145934
0.0145937
0.0145942
0.0145951
0.0145968
0.0145997
0.0146049
0.0146144
0.0146313
0.0146621
0.0147184
0.0148264
0.014593
0.014593
0.014593
0.014593
0.014593
0.014593
0.014593
0.014593
0.014593
0.014593
0.014593
0.014593
0.014593
0.014593
0.014593
0.014593
0.014593
0.014593
0.014593
0.014593
0.014593
0.014593
0.014593
0.014593
0.014593
0.014593
0.014593
0.014593
0.014593
0.014593
0.014593
0.0145931
0.0145931
0.0145931
0.0145932
0.0145934
0.0145937
0.0145943
0.0145952
0.0145968
0.0145997
0.0146048
0.0146138
0.0146298
0.0146583
0.0147092
0.0148
0.014962
0.0152508
0.0157735
0.014593
0.014593
0.014593
0.014593
0.014593
0.014593
0.014593
0.014593
0.014593
0.014593
0.014593
0.014593
0.014593
0.014593
0.014593
0.014593
0.014593
0.014593
0.014593
0.014593
0.014593
0.014593
0.014593
0.014593
0.014593
0.014593
0.014593
0.014593
0.0145931
0.0145931
0.0145932
0.0145933
0.0145935
0.0145938
0.0145943
0.0145953
0.014597
0.0145999
0.0146049
0.0146138
0.0146293
0.0146566
0.0147047
0.0147894
0.0149382
0.0151979
0.0156454
0.0163994
0.01763
0.0195608
0.014593
0.014593
0.014593
0.014593
0.014593
0.014593
0.014593
0.014593
0.014593
0.014593
0.014593
0.014593
0.014593
0.014593
0.014593
0.014593
0.014593
0.014593
0.014593
0.014593
0.014593
0.014593
0.014593
0.014593
0.014593
0.0145931
0.0145931
0.0145932
0.0145933
0.0145935
0.0145939
0.0145945
0.0145955
0.0145972
0.0146002
0.0146054
0.0146143
0.0146298
0.0146566
0.0147033
0.0147845
0.0149255
0.0151686
0.0155828
0.0162735
0.0173872
0.0190996
0.0215796
0.0249429
0.0292083
0.014593
0.014593
0.014593
0.014593
0.014593
0.014593
0.014593
0.014593
0.014593
0.014593
0.014593
0.014593
0.014593
0.014593
0.014593
0.014593
0.014593
0.014593
0.014593
0.014593
0.014593
0.0145931
0.0145931
0.0145931
0.0145932
0.0145934
0.0145936
0.014594
0.0145946
0.0145957
0.0145976
0.0146008
0.0146062
0.0146154
0.0146312
0.0146583
0.0147048
0.0147847
0.0149217
0.0151551
0.0155485
0.0161983
0.0172386
0.0188313
0.0211345
0.024255
0.0282093
0.0329178
0.0382359
0.0439783
0.014593
0.014593
0.014593
0.014593
0.014593
0.014593
0.014593
0.014593
0.014593
0.014593
0.014593
0.014593
0.014593
0.014593
0.014593
0.014593
0.014593
0.014593
0.0145931
0.0145931
0.0145932
0.0145933
0.0145934
0.0145937
0.0145941
0.0145949
0.0145961
0.0145982
0.0146016
0.0146074
0.0146172
0.0146338
0.0146618
0.0147093
0.01479
0.0149264
0.0151562
0.0155388
0.0161643
0.0171568
0.018667
0.0208447
0.0237963
0.0275466
0.0320288
0.0371046
0.0426026
0.0483524
0.0542103
0.0600401
0.014593
0.014593
0.014593
0.014593
0.014593
0.014593
0.014593
0.014593
0.014593
0.014593
0.014593
0.014593
0.014593
0.014593
0.0145931
0.0145931
0.0145931
0.0145932
0.0145933
0.0145935
0.0145938
0.0145944
0.0145952
0.0145966
0.014599
0.0146028
0.0146092
0.0146199
0.0146376
0.0146674
0.0147172
0.0148006
0.01494
0.0151717
0.0155528
0.0161685
0.0171351
0.0185935
0.0206845
0.0235108
0.0271026
0.0314056
0.0362973
0.0416185
0.0472049
0.0529073
0.0585995
0.0641705
0.0695256
0.0746017
0.014593
0.014593
0.014593
0.014593
0.014593
0.014593
0.014593
0.014593
0.014593
0.014593
0.014593
0.0145931
0.0145931
0.0145932
0.0145933
0.0145934
0.0145936
0.014594
0.0145947
0.0145957
0.0145973
0.0146
0.0146044
0.0146117
0.0146235
0.0146431
0.0146755
0.014729
0.0148174
0.0149633
0.0152027
0.0155913
0.0162108
0.0171717
0.018606
0.0206448
0.0233847
0.0268567
0.0310144
0.0357482
0.0409126
0.0463543
0.0519311
0.0575213
0.0630181
0.0683234
0.0733571
0.0780526
0.0823249
0.0861031
0.014593
0.014593
0.014593
0.014593
0.014593
0.014593
0.014593
0.0145931
0.0145931
0.0145931
0.0145932
0.0145933
0.0145935
0.0145938
0.0145943
0.0145951
0.0145963
0.0145983
0.0146015
0.0146067
0.014615
0.0146286
0.0146507
0.0146868
0.0147457
0.0148418
0.0149982
0.0152514
0.0156567
0.0162938
0.0172683
0.0187043
0.0207228
0.0234121
0.0268001
0.0308444
0.035445
0.0404686
0.0457733
0.051226
0.0567111
0.0621306
0.0673918
0.0724139
0.0771294
0.0814693
0.0853439
0.0886645
0.091369
0.0934988
0.014593
0.014593
0.014593
0.0145931
0.0145931
0.0145931
0.0145932
0.0145933
0.0145935
0.0145937
0.0145941
0.0145947
0.0145957
0.0145972
0.0145997
0.0146035
0.0146097
0.0146196
0.0146355
0.0146611
0.0147023
0.0147687
0.0148757
0.0150474
0.0153214
0.0157536
0.0164225
0.0174301
0.0188925
0.0209207
0.0235924
0.0269295
0.0308906
0.0353824
0.0402821
0.045459
0.0507895
0.0561651
0.0614941
0.0666933
0.0716837
0.0763996
0.080781
0.0847553
0.0882345
0.0911461
0.0934633
0.0952265
0.0965097
0.0974399
0.0145931
0.0145931
0.0145931
0.0145932
0.0145933
0.0145934
0.0145936
0.014594
0.0145945
0.0145953
0.0145965
0.0145985
0.0146016
0.0146064
0.014614
0.014626
0.0146451
0.0146754
0.0147236
0.0148003
0.0149221
0.015115
0.0154182
0.0158889
0.0166053
0.017666
0.0191796
0.0212456
0.0239301
0.0272465
0.0311518
0.0355575
0.0403496
0.045408
0.050619
0.0558819
0.0611112
0.0662322
0.0711715
0.0758644
0.0802554
0.0842857
0.0878792
0.0909579
0.0934748
0.0954352
0.096898
0.0979483
0.0986872
0.0991956
0.0995589
0.0145933
0.0145934
0.0145936
0.0145939
0.0145943
0.014595
0.0145961
0.0145978
0.0146003
0.0146043
0.0146104
0.01462
0.014635
0.0146584
0.0146951
0.0147529
0.0148434
0.0149854
0.0152069
0.0155496
0.0160725
0.0168542
0.0179895
0.019579
0.0217099
0.0244347
0.0277571
0.0316306
0.03597
0.0406693
0.0456185
0.0507139
0.0558631
0.0609868
0.0660173
0.0708887
0.0755383
0.0799131
0.0839627
0.0876242
0.090824
0.0935034
0.0956439
0.0972779
0.0984759
0.0993263
0.0999175
0.100321
0.1006
0.100792
0.100926
0.0145939
0.0145943
0.0145949
0.0145959
0.0145974
0.0145996
0.014603
0.0146082
0.0146162
0.0146286
0.0146476
0.0146771
0.0147227
0.0147934
0.0149029
0.015072
0.0153317
0.0157267
0.0163185
0.0171855
0.0184188
0.0201092
0.0223303
0.0251201
0.0284713
0.0323331
0.0366228
0.0412421
0.0460904
0.0510739
0.0561087
0.0611224
0.0660526
0.0708414
0.0754299
0.0797667
0.0838066
0.0874982
0.0907763
0.093578
0.0958687
0.0976582
0.0989991
0.0999666
0.100645
0.101111
0.101429
0.101644
0.101785
0.101877
0.101954
0.102019
0.0145972
0.0145992
0.0146023
0.014607
0.014614
0.0146247
0.014641
0.0146658
0.0147037
0.0147616
0.0148501
0.0149853
0.0151909
0.0155014
0.0159651
0.0166458
0.0176215
0.0189775
0.0207938
0.0231285
0.0260043
0.0294026
0.0332683
0.0375211
0.04207
0.0468237
0.0516981
0.0566179
0.0615174
0.0663397
0.0710335
0.0755454
0.0798264
0.0838338
0.0875243
0.0908424
0.0937274
0.0961354
0.0980582
0.0995286
0.10061
0.101379
0.101912
0.102273
0.102516
0.102676
0.102776
0.102841
0.102899
0.10293
0.102923
0.102904
0.014613
0.0146227
0.0146373
0.0146592
0.0146923
0.0147421
0.0148172
0.0149304
0.0151007
0.0153555
0.0157334
0.0162863
0.0170801
0.0181905
0.0196956
0.0216617
0.0241304
0.0271085
0.030567
0.0344469
0.0386712
0.0431558
0.047819
0.0525859
0.0573896
0.0621713
0.0668795
0.0714683
0.0758906
0.0800997
0.084055
0.0877186
0.0910445
0.093977
0.0964681
0.0984968
0.10008
0.101267
0.102123
0.102723
0.103133
0.103406
0.103588
0.103698
0.103761
0.103809
0.103845
0.10384
0.103816
0.103777
0.103725
0.103672
0.0146866
0.0147315
0.0147984
0.0148978
0.0150456
0.0152641
0.0155852
0.016052
0.0167198
0.0176548
0.0189288
0.020609
0.0227464
0.0253649
0.0284561
0.0319818
0.0358808
0.0400801
0.0445031
0.0490773
0.0537368
0.0584229
0.0630833
0.0676717
0.0721468
0.0764675
0.0805903
0.0844768
0.0880927
0.0913989
0.0943468
0.0968883
0.098995
0.10067
0.101948
0.102886
0.103551
0.104011
0.104316
0.104516
0.104642
0.10471
0.104747
0.104779
0.104782
0.104758
0.104715
0.104656
0.104592
0.104526
0.104462
0.104401
0.0150164
0.0152125
0.0154975
0.0159079
0.0164911
0.0173046
0.0184128
0.0198799
0.0217594
0.0240849
0.0268626
0.0300709
0.0336643
0.0375817
0.0417548
0.0461152
0.0505994
0.05515
0.0597157
0.0642506
0.0687136
0.0730675
0.0772762
0.0813001
0.0851032
0.0886534
0.0919174
0.0948532
0.0974153
0.099571
0.101313
0.102666
0.103676
0.104402
0.104907
0.105247
0.105468
0.105608
0.105682
0.105715
0.105735
0.105741
0.105718
0.105673
0.105613
0.105541
0.105465
0.105389
0.105314
0.105239
0.105166
0.105095
0.016363
0.0170966
0.0180914
0.0194065
0.0210944
0.0231923
0.0257154
0.028654
0.0319755
0.0356305
0.0395598
0.0437012
0.0479947
0.0523852
0.0568234
0.0612651
0.0656701
0.070002
0.0742277
0.0783153
0.0822293
0.0859357
0.0894049
0.0926076
0.0955075
0.098063
0.10024
0.102026
0.103434
0.104502
0.10528
0.105828
0.106201
0.106443
0.106593
0.106678
0.106712
0.10672
0.106719
0.106701
0.106654
0.10659
0.106513
0.106428
0.106341
0.106256
0.106171
0.106086
0.106002
0.105918
0.105834
0.105752
0.0206966
0.0226271
0.0249539
0.0276746
0.0307663
0.0341892
0.037893
0.0418227
0.0459229
0.050142
0.054433
0.0587539
0.0630671
0.0673373
0.0715327
0.0756236
0.0795819
0.0833758
0.0869738
0.0903482
0.093473
0.0963167
0.0988422
0.101016
0.102822
0.104265
0.105374
0.106195
0.10678
0.10718
0.107442
0.107604
0.107697
0.107733
0.107732
0.107723
0.107702
0.107654
0.107586
0.107506
0.107415
0.107319
0.107223
0.107127
0.107032
0.106937
0.106843
0.106748
0.106654
0.106559
0.106464
0.106371
0.0332213
0.0367261
0.0404604
0.0443745
0.0484209
0.0525558
0.0567397
0.0609373
0.0651164
0.0692467
0.0732998
0.0772497
0.081071
0.0847355
0.0882144
0.0914819
0.0945144
0.0972847
0.0997597
0.101908
0.10371
0.105167
0.106303
0.107153
0.107765
0.108189
0.108469
0.10864
0.108738
0.108779
0.108773
0.108753
0.108724
0.108677
0.108605
0.10852
0.108423
0.108318
0.108211
0.108106
0.108001
0.107896
0.107791
0.107687
0.107582
0.107478
0.107373
0.107267
0.107161
0.107055
0.10695
0.0472154
0.0511931
0.0552324
0.0593004
0.0633676
0.0674066
0.0713908
0.0752958
0.0790982
0.0827756
0.0863026
0.0896527
0.0928024
0.0957301
0.098412
0.100819
0.10292
0.104699
0.106151
0.107294
0.108161
0.108791
0.109232
0.109524
0.109703
0.109805
0.109848
0.109838
0.10981
0.109771
0.109718
0.109643
0.109552
0.109452
0.10934
0.109224
0.109108
0.108992
0.108877
0.108762
0.108648
0.108534
0.10842
0.108306
0.108191
0.108075
0.107959
0.107843
0.107725
0.107607
0.10749
0.0621077
0.0660367
0.0699288
0.0737611
0.0775119
0.0811607
0.0846875
0.0880692
0.0912819
0.094304
0.097116
0.0996963
0.102019
0.104057
0.105792
0.107221
0.108356
0.109224
0.109862
0.110311
0.11061
0.110795
0.110898
0.11094
0.110929
0.110893
0.110842
0.11078
0.110705
0.110608
0.1105
0.110382
0.110257
0.110131
0.110006
0.109881
0.109756
0.109632
0.109507
0.109384
0.10926
0.109136
0.109012
0.108887
0.108761
0.108635
0.108507
0.108379
0.10825
0.108121
0.107991
0.0799378
0.0834272
0.0867971
0.0900265
0.0930936
0.0959791
0.0986651
0.101132
0.103358
0.105317
0.106992
0.10838
0.109491
0.110347
0.110981
0.11143
0.111731
0.111917
0.112018
0.112056
0.112044
0.112001
0.111937
0.111866
0.111785
0.111682
0.111567
0.111445
0.111313
0.111177
0.111041
0.110905
0.11077
0.110636
0.110502
0.110369
0.110236
0.110103
0.109969
0.109835
0.109701
0.109566
0.10943
0.109293
0.109155
0.109017
0.108877
0.108736
0.108595
0.108453
0.0921631
0.0950774
0.0978182
0.10037
0.102714
0.10483
0.106696
0.108297
0.10963
0.110701
0.111532
0.112151
0.112592
0.112888
0.11307
0.113167
0.1132
0.113183
0.113132
0.113059
0.112976
0.112885
0.112778
0.112656
0.112526
0.112387
0.112241
0.112096
0.111951
0.111806
0.111662
0.111518
0.111375
0.111232
0.11109
0.110947
0.110804
0.110661
0.110517
0.110373
0.110228
0.110082
0.109935
0.109787
0.109638
0.109488
0.109337
0.109184
0.109031
0.108877
0.102219
0.104431
0.106428
0.10819
0.109704
0.110967
0.111986
0.112779
0.113373
0.113797
0.11408
0.114254
0.114344
0.114368
0.114345
0.114287
0.114204
0.114108
0.114007
0.113896
0.113764
0.113626
0.113481
0.113327
0.113172
0.113017
0.112862
0.112707
0.112554
0.112402
0.112249
0.112097
0.111945
0.111793
0.111641
0.111489
0.111336
0.111183
0.111028
0.110873
0.110717
0.11056
0.110402
0.110243
0.110083
0.109921
0.109758
0.109594
0.10943
0.109264
0.109789
0.111205
0.112388
0.113343
0.114088
0.114647
0.115046
0.11531
0.115471
0.115549
0.115561
0.115531
0.115465
0.115369
0.115262
0.115151
0.115029
0.114891
0.114745
0.114593
0.114432
0.114266
0.114102
0.113938
0.113773
0.11361
0.113447
0.113285
0.113124
0.112963
0.112802
0.112641
0.11248
0.112318
0.112156
0.111994
0.111831
0.111667
0.111502
0.111336
0.11117
0.111002
0.110832
0.110662
0.11049
0.110317
0.110142
0.109967
0.10979
0.109612
0.114768
0.115456
0.115971
0.116336
0.116576
0.116719
0.116782
0.116779
0.11674
0.116664
0.116556
0.116439
0.116315
0.116182
0.116039
0.115882
0.115721
0.115554
0.115379
0.115205
0.115032
0.114858
0.114684
0.114512
0.114341
0.11417
0.113999
0.113829
0.113659
0.11349
0.11332
0.113149
0.112978
0.112807
0.112635
0.112463
0.112289
0.112115
0.111939
0.111762
0.111585
0.111405
0.111225
0.111043
0.11086
0.110675
0.110489
0.110301
0.110113
0.109923
0.117666
0.117877
0.117997
0.11804
0.118024
0.117972
0.117883
0.117764
0.117635
0.117499
0.117355
0.117205
0.117038
0.116867
0.116693
0.11651
0.116326
0.116143
0.11596
0.115776
0.115595
0.115414
0.115234
0.115054
0.114875
0.114696
0.114517
0.114339
0.11416
0.113981
0.113802
0.113622
0.113441
0.11326
0.113078
0.112895
0.112711
0.112525
0.112339
0.112151
0.111963
0.111772
0.11158
0.111387
0.111192
0.110996
0.110798
0.110599
0.110399
0.110197
0.119322
0.119292
0.119224
0.119121
0.118991
0.118849
0.118702
0.118546
0.118385
0.118212
0.118031
0.117848
0.117658
0.117464
0.117271
0.117079
0.116886
0.116695
0.116505
0.116315
0.116126
0.115938
0.11575
0.115563
0.115376
0.115188
0.115001
0.114813
0.114625
0.114437
0.114248
0.114058
0.113868
0.113676
0.113484
0.11329
0.113096
0.1129
0.112702
0.112504
0.112304
0.112102
0.111899
0.111694
0.111488
0.11128
0.111071
0.11086
0.110648
0.110434
0.120235
0.120081
0.119921
0.119754
0.119581
0.119401
0.11921
0.119017
0.11882
0.118617
0.118415
0.118214
0.118012
0.117811
0.117612
0.117413
0.117215
0.117018
0.116821
0.116625
0.116429
0.116233
0.116038
0.115842
0.115646
0.115449
0.115252
0.115055
0.114857
0.114658
0.114459
0.114258
0.114057
0.113854
0.11365
0.113444
0.113238
0.113029
0.11282
0.112608
0.112395
0.112181
0.111965
0.111747
0.111528
0.111307
0.111084
0.110861
0.110636
0.120977
0.120794
0.120603
0.120404
0.120202
0.119996
0.119785
0.119574
0.119364
0.119154
0.118943
0.118735
0.118527
0.11832
0.118114
0.117908
0.117703
0.117499
0.117295
0.11709
0.116886
0.116682
0.116478
0.116273
0.116068
0.115863
0.115657
0.11545
0.115242
0.115034
0.114824
0.114613
0.114401
0.114188
0.113973
0.113757
0.113539
0.11332
0.113099
0.112877
0.112653
0.112427
0.112199
0.11197
0.111739
0.111507
0.111273
0.111038
0.110801
0.121612
0.1214
0.121186
0.120967
0.120746
0.120527
0.120308
0.120089
0.119872
0.119655
0.119439
0.119224
0.11901
0.118797
0.118584
0.118371
0.118159
0.117946
0.117734
0.117522
0.11731
0.117097
0.116884
0.116671
0.116456
0.116242
0.116026
0.115809
0.115592
0.115373
0.115154
0.114932
0.11471
0.114486
0.114261
0.114034
0.113805
0.113575
0.113343
0.113109
0.112874
0.112637
0.112398
0.112157
0.111915
0.111671
0.111426
0.111179
0.110931
0.121931
0.121703
0.121476
0.121248
0.121022
0.120797
0.120572
0.120349
0.120126
0.119904
0.119683
0.119462
0.119241
0.119021
0.118801
0.118581
0.118361
0.11814
0.11792
0.117699
0.117478
0.117256
0.117033
0.11681
0.116586
0.11636
0.116134
0.115907
0.115678
0.115448
0.115216
0.114983
0.114749
0.114513
0.114275
0.114035
0.113794
0.113551
0.113306
0.113059
0.112811
0.112561
0.112309
0.112055
0.1118
0.111543
0.111286
0.111026
0.122419
0.122184
0.121951
0.121718
0.121486
0.121255
0.121025
0.120795
0.120566
0.120337
0.120109
0.119881
0.119653
0.119426
0.119198
0.11897
0.118742
0.118513
0.118284
0.118054
0.117824
0.117593
0.117361
0.117129
0.116895
0.11666
0.116424
0.116186
0.115947
0.115707
0.115465
0.115221
0.114976
0.114729
0.114481
0.11423
0.113978
0.113724
0.113468
0.11321
0.11295
0.112689
0.112425
0.112161
0.111894
0.111627
0.111358
0.111087
0.122634
0.122395
0.122157
0.121919
0.121682
0.121446
0.12121
0.120974
0.120739
0.120503
0.120268
0.120033
0.119797
0.119562
0.119325
0.119089
0.118852
0.118614
0.118376
0.118136
0.117896
0.117655
0.117413
0.117169
0.116924
0.116678
0.116431
0.116182
0.115931
0.115678
0.115424
0.115168
0.114911
0.114651
0.11439
0.114127
0.113861
0.113594
0.113325
0.113054
0.112782
0.112508
0.112232
0.111954
0.111675
0.111395
0.111114
0.123054
0.12281
0.122566
0.122322
0.122079
0.121836
0.121593
0.121351
0.121108
0.120865
0.120622
0.120379
0.120136
0.119892
0.119648
0.119403
0.119157
0.118911
0.118663
0.118415
0.118165
0.117915
0.117663
0.117409