/*--------------------------------*- C++ -*----------------------------------*\
| =========                 |                                                 |
| \\      /  F ield         | OpenFOAM: The Open Source CFD Toolbox           |
|  \\    /   O peration     | Version:  v1706                                 |
|   \\  /    A nd           | Web:      www.OpenFOAM.com                      |
|    \\/     M anipulation  |                                                 |
\*---------------------------------------------------------------------------*/
FoamFile
{
    version     2.0;
    format      ascii;
    class       volScalarField;
    location    "1.1e-05";
    object      kappave;
}
// * * * * * * * * * * * * * * * * * * * * * * * * * * * * * * * * * * * * * //

dimensions      [1 1 -3 -1 0 0 0];


internalField   nonuniform List<scalar> 
30038
(
1.46038e-10
1.46038e-10
1.46038e-10
1.46038e-10
1.46038e-10
1.46038e-10
1.46038e-10
1.46038e-10
1.46038e-10
1.46038e-10
1.46038e-10
1.46038e-10
1.46038e-10
1.46038e-10
1.46038e-10
1.46038e-10
1.46038e-10
1.46038e-10
1.46038e-10
1.46038e-10
1.46038e-10
1.46038e-10
1.46038e-10
1.46038e-10
1.46038e-10
1.46038e-10
1.46038e-10
1.46038e-10
1.46038e-10
1.46038e-10
1.46038e-10
1.46038e-10
1.46038e-10
1.46038e-10
1.46038e-10
1.46038e-10
1.46038e-10
1.46038e-10
1.46038e-10
1.46038e-10
1.46038e-10
1.46038e-10
1.46038e-10
1.46038e-10
1.46038e-10
1.46038e-10
1.46038e-10
1.46038e-10
1.46038e-10
1.46038e-10
1.46038e-10
1.46038e-10
1.46038e-10
1.46038e-10
1.46038e-10
1.46038e-10
1.46038e-10
1.46038e-10
1.46038e-10
1.46038e-10
1.46038e-10
1.46038e-10
1.46038e-10
1.46038e-10
1.46038e-10
1.46038e-10
1.46038e-10
1.46038e-10
1.46038e-10
1.46038e-10
1.46038e-10
1.46038e-10
1.46038e-10
1.46038e-10
1.46038e-10
1.46038e-10
1.46038e-10
1.46038e-10
1.46038e-10
1.46038e-10
1.46038e-10
1.46038e-10
1.46038e-10
1.46038e-10
1.46038e-10
1.46038e-10
1.46038e-10
1.46038e-10
1.46038e-10
1.46038e-10
1.46038e-10
1.46038e-10
1.46038e-10
1.46038e-10
1.46038e-10
1.46038e-10
1.46038e-10
1.46038e-10
1.46038e-10
1.46038e-10
1.46038e-10
1.46038e-10
1.46038e-10
1.46038e-10
1.46038e-10
1.46038e-10
1.46038e-10
1.46038e-10
1.46038e-10
1.46038e-10
1.46038e-10
1.46038e-10
1.46038e-10
1.46038e-10
1.46038e-10
1.46038e-10
1.46038e-10
1.46038e-10
1.46038e-10
1.46038e-10
1.46038e-10
1.46038e-10
1.46038e-10
1.46038e-10
1.46038e-10
1.46038e-10
1.46038e-10
1.46038e-10
1.46038e-10
1.46038e-10
1.46038e-10
1.46038e-10
1.46038e-10
1.46038e-10
1.46038e-10
1.46038e-10
1.46038e-10
1.46038e-10
1.46038e-10
1.46038e-10
1.46038e-10
1.46038e-10
1.46038e-10
1.46038e-10
1.46038e-10
1.46038e-10
1.46038e-10
1.46038e-10
1.46038e-10
1.46038e-10
1.46038e-10
1.46038e-10
1.46038e-10
1.46038e-10
1.46038e-10
1.46038e-10
1.46038e-10
1.46038e-10
1.46038e-10
1.46038e-10
1.46038e-10
1.46038e-10
1.46038e-10
1.46038e-10
1.46038e-10
1.46038e-10
1.46038e-10
1.46038e-10
1.46038e-10
1.46038e-10
1.46038e-10
1.46038e-10
1.46038e-10
1.46038e-10
1.46038e-10
1.46038e-10
1.46038e-10
1.46038e-10
1.46038e-10
1.46038e-10
1.46038e-10
1.46038e-10
1.46038e-10
1.46038e-10
1.46038e-10
1.46038e-10
1.46038e-10
1.46038e-10
1.46038e-10
1.46038e-10
1.46038e-10
1.46038e-10
1.46038e-10
1.46038e-10
1.46038e-10
1.46038e-10
1.46038e-10
1.46038e-10
1.46038e-10
1.46038e-10
1.46038e-10
1.46038e-10
1.46038e-10
1.46038e-10
1.46038e-10
1.46038e-10
1.46038e-10
1.46038e-10
1.46038e-10
1.46038e-10
1.46038e-10
1.46038e-10
1.46038e-10
1.46038e-10
1.46038e-10
1.46038e-10
1.46038e-10
1.46038e-10
1.46038e-10
1.46038e-10
1.46038e-10
1.46038e-10
1.46038e-10
1.46038e-10
1.46038e-10
1.46038e-10
1.46038e-10
1.46038e-10
1.46038e-10
1.46038e-10
1.46038e-10
1.46038e-10
1.46038e-10
1.46038e-10
1.46038e-10
1.46038e-10
1.46038e-10
1.46038e-10
1.46038e-10
1.46038e-10
1.46038e-10
1.46038e-10
1.46038e-10
1.46038e-10
1.46038e-10
1.46038e-10
1.46038e-10
1.46038e-10
1.46038e-10
1.46038e-10
1.46038e-10
1.46038e-10
1.46038e-10
1.46038e-10
1.46038e-10
1.46038e-10
1.46038e-10
1.46038e-10
1.46038e-10
1.46038e-10
1.46038e-10
1.46038e-10
1.46038e-10
1.46038e-10
1.46038e-10
1.46038e-10
1.46038e-10
1.46038e-10
1.46038e-10
1.46038e-10
1.46038e-10
1.46038e-10
1.46038e-10
1.46038e-10
1.46038e-10
1.46038e-10
1.46038e-10
1.46038e-10
1.46038e-10
1.46038e-10
1.46038e-10
1.46038e-10
1.46038e-10
1.46038e-10
1.46038e-10
1.46038e-10
1.46038e-10
1.46038e-10
1.46038e-10
1.46038e-10
1.46038e-10
1.46038e-10
1.46038e-10
1.46038e-10
1.46038e-10
1.46038e-10
1.46038e-10
1.46038e-10
1.46038e-10
1.46038e-10
1.46038e-10
1.46038e-10
1.46038e-10
1.46038e-10
1.46038e-10
1.46038e-10
1.46038e-10
1.46038e-10
1.46038e-10
1.46038e-10
1.46038e-10
1.46038e-10
1.46038e-10
1.46038e-10
1.46038e-10
1.46038e-10
1.46038e-10
1.46038e-10
1.46038e-10
1.46038e-10
1.46038e-10
1.46038e-10
1.46038e-10
1.46038e-10
1.46038e-10
1.46038e-10
1.46038e-10
1.46038e-10
1.46038e-10
1.46038e-10
1.46038e-10
1.46038e-10
1.46038e-10
1.46038e-10
1.46038e-10
1.46038e-10
1.46038e-10
1.46038e-10
1.46038e-10
1.46038e-10
1.46038e-10
1.46038e-10
1.46038e-10
1.46038e-10
1.46038e-10
1.46038e-10
1.46038e-10
1.46038e-10
1.46038e-10
1.46038e-10
1.46038e-10
1.46038e-10
1.46038e-10
1.46038e-10
1.46038e-10
1.46038e-10
1.46038e-10
1.46038e-10
1.46038e-10
1.46038e-10
1.46038e-10
1.46038e-10
1.46038e-10
1.46038e-10
1.46038e-10
1.46038e-10
1.46038e-10
1.46038e-10
1.46038e-10
1.46038e-10
1.46038e-10
1.46038e-10
1.46038e-10
1.46038e-10
1.46038e-10
1.46038e-10
1.46038e-10
1.46038e-10
1.46038e-10
1.46038e-10
1.46038e-10
1.46038e-10
1.46038e-10
1.46038e-10
1.46038e-10
1.46038e-10
1.46038e-10
1.46038e-10
1.46038e-10
1.46038e-10
1.46038e-10
1.46038e-10
1.46038e-10
1.46038e-10
1.46038e-10
1.46038e-10
1.46038e-10
1.46038e-10
1.46038e-10
1.46038e-10
1.46038e-10
1.46038e-10
1.46038e-10
1.46038e-10
1.46038e-10
1.46038e-10
1.46038e-10
1.46038e-10
1.46038e-10
1.46038e-10
1.46038e-10
1.46038e-10
1.46038e-10
1.46038e-10
1.46038e-10
1.46038e-10
1.46038e-10
1.46038e-10
1.46038e-10
1.46038e-10
1.46038e-10
1.46038e-10
1.46038e-10
1.46038e-10
1.46038e-10
1.46038e-10
1.46038e-10
1.46038e-10
1.46038e-10
1.46038e-10
1.46038e-10
1.46038e-10
1.46038e-10
1.46038e-10
1.46038e-10
1.46038e-10
1.46038e-10
1.46038e-10
1.46038e-10
1.46038e-10
1.46038e-10
1.46038e-10
1.46038e-10
1.46038e-10
1.46038e-10
1.46038e-10
1.46038e-10
1.46038e-10
1.46038e-10
1.46038e-10
1.46038e-10
1.46038e-10
1.46038e-10
1.46038e-10
1.46038e-10
1.46038e-10
1.46038e-10
1.46038e-10
1.46038e-10
1.46038e-10
1.46038e-10
1.46038e-10
1.46038e-10
1.46038e-10
1.46038e-10
1.46038e-10
1.46038e-10
1.46038e-10
1.46038e-10
1.46038e-10
1.46038e-10
1.46038e-10
1.46038e-10
1.46038e-10
1.46038e-10
1.46038e-10
1.46038e-10
1.46038e-10
1.46038e-10
1.46038e-10
1.46038e-10
1.46038e-10
1.46038e-10
1.46038e-10
1.46038e-10
1.46038e-10
1.46038e-10
1.46038e-10
1.46038e-10
1.46038e-10
1.46038e-10
1.46038e-10
1.46038e-10
1.46038e-10
1.46038e-10
1.46038e-10
1.46038e-10
1.46038e-10
1.46038e-10
1.46038e-10
1.46038e-10
1.46038e-10
1.46038e-10
1.46038e-10
1.46038e-10
1.46038e-10
1.46038e-10
1.46038e-10
1.46038e-10
1.46038e-10
1.46038e-10
1.46038e-10
1.46038e-10
1.46038e-10
1.46038e-10
1.46038e-10
1.46038e-10
1.46038e-10
1.46038e-10
1.46038e-10
1.46038e-10
1.46038e-10
1.46038e-10
1.46038e-10
1.46038e-10
1.46038e-10
1.46038e-10
1.46038e-10
1.46038e-10
1.46038e-10
1.46038e-10
1.46038e-10
1.46038e-10
1.46038e-10
1.46038e-10
1.46038e-10
1.46038e-10
1.46038e-10
1.46038e-10
1.46038e-10
1.46038e-10
1.46038e-10
1.46038e-10
1.46038e-10
1.46038e-10
1.46038e-10
1.46038e-10
1.46038e-10
1.46038e-10
1.46038e-10
1.46038e-10
1.46038e-10
1.46038e-10
1.46038e-10
1.46038e-10
1.46038e-10
1.46038e-10
1.46038e-10
1.46038e-10
1.46038e-10
1.46038e-10
1.46038e-10
1.46038e-10
1.46038e-10
1.46038e-10
1.46038e-10
1.46038e-10
1.46038e-10
1.46038e-10
1.46038e-10
1.46038e-10
1.46038e-10
1.46038e-10
1.46038e-10
1.46038e-10
1.46038e-10
1.46038e-10
1.46038e-10
1.46038e-10
1.46038e-10
1.46038e-10
1.46038e-10
1.46038e-10
1.46038e-10
1.46038e-10
1.46038e-10
1.46038e-10
1.46038e-10
1.46038e-10
1.46038e-10
1.46038e-10
1.46038e-10
1.46038e-10
1.46038e-10
1.46038e-10
1.46038e-10
1.46038e-10
1.46038e-10
1.46038e-10
1.46038e-10
1.46038e-10
1.46038e-10
1.46038e-10
1.46038e-10
1.46038e-10
1.46038e-10
1.46038e-10
1.46038e-10
1.46038e-10
1.46038e-10
1.46038e-10
1.46038e-10
1.46038e-10
1.46038e-10
1.46038e-10
1.46038e-10
1.46038e-10
1.46038e-10
1.46038e-10
1.46038e-10
1.46038e-10
1.46038e-10
1.46038e-10
1.46038e-10
1.46038e-10
1.46038e-10
1.46038e-10
1.46038e-10
1.46038e-10
1.46038e-10
1.46038e-10
1.46038e-10
1.46038e-10
1.46038e-10
1.46038e-10
1.46038e-10
1.46038e-10
1.46038e-10
1.46038e-10
1.46038e-10
1.46038e-10
1.46038e-10
1.46038e-10
1.46038e-10
1.46038e-10
1.46038e-10
1.46038e-10
1.46038e-10
1.46038e-10
1.46038e-10
1.46038e-10
1.46038e-10
1.46038e-10
1.46038e-10
1.46038e-10
1.46038e-10
1.46038e-10
1.46038e-10
1.46038e-10
1.46038e-10
1.46038e-10
1.46038e-10
1.46038e-10
1.46038e-10
1.46038e-10
1.46038e-10
1.46038e-10
1.46038e-10
1.46038e-10
1.46038e-10
1.46038e-10
1.46038e-10
1.46038e-10
1.46038e-10
1.46038e-10
1.46038e-10
1.46038e-10
1.46038e-10
1.46038e-10
1.46038e-10
1.46038e-10
1.46038e-10
1.46038e-10
1.46038e-10
1.46038e-10
1.46038e-10
1.46038e-10
1.46038e-10
1.46038e-10
1.46038e-10
1.46038e-10
1.46038e-10
1.46038e-10
1.46038e-10
1.46038e-10
1.46038e-10
1.46038e-10
1.46038e-10
1.46038e-10
1.46038e-10
1.46038e-10
1.46038e-10
1.46038e-10
1.46038e-10
1.46038e-10
1.46038e-10
1.46038e-10
1.46038e-10
1.46038e-10
1.46038e-10
1.46038e-10
1.46038e-10
1.46038e-10
1.46038e-10
1.46038e-10
1.46038e-10
1.46038e-10
1.46038e-10
1.46038e-10
1.46038e-10
1.46038e-10
1.46038e-10
1.46038e-10
1.46038e-10
1.46038e-10
1.46038e-10
1.46038e-10
1.46038e-10
1.46038e-10
1.46038e-10
1.46038e-10
1.46038e-10
1.46038e-10
1.46038e-10
1.46038e-10
1.46038e-10
1.46038e-10
1.46038e-10
1.46038e-10
1.46038e-10
1.46038e-10
1.46038e-10
1.46038e-10
1.46038e-10
1.46038e-10
1.46038e-10
1.46038e-10
1.46038e-10
1.46038e-10
1.46038e-10
1.46038e-10
1.46038e-10
1.46038e-10
1.46038e-10
1.46038e-10
1.46038e-10
1.46038e-10
1.46038e-10
1.46038e-10
1.46038e-10
1.46038e-10
1.46038e-10
1.46038e-10
1.46038e-10
1.46038e-10
1.46038e-10
1.46038e-10
1.46038e-10
1.46038e-10
1.46038e-10
1.46038e-10
1.46038e-10
1.46038e-10
1.46038e-10
1.46038e-10
1.46038e-10
1.46038e-10
1.46038e-10
1.46038e-10
1.46038e-10
1.46038e-10
1.46038e-10
1.46038e-10
1.46038e-10
1.46038e-10
1.46038e-10
1.46038e-10
1.46038e-10
1.46038e-10
1.46038e-10
1.46038e-10
1.46038e-10
1.46038e-10
1.46038e-10
1.46038e-10
1.46038e-10
1.46038e-10
1.46038e-10
1.46038e-10
1.46038e-10
1.46038e-10
1.46038e-10
1.46038e-10
1.46038e-10
1.46038e-10
1.46038e-10
1.46038e-10
1.46038e-10
1.46038e-10
1.46038e-10
1.46038e-10
1.46038e-10
1.46038e-10
1.46038e-10
1.46038e-10
1.46038e-10
1.46038e-10
1.46038e-10
1.46038e-10
1.46038e-10
1.46038e-10
1.46038e-10
1.46038e-10
1.46038e-10
1.46038e-10
1.46038e-10
1.46038e-10
1.46038e-10
1.46038e-10
1.46038e-10
1.46038e-10
1.46038e-10
1.46038e-10
1.46038e-10
1.46038e-10
1.46038e-10
1.46038e-10
1.46038e-10
1.46038e-10
1.46038e-10
1.46038e-10
1.46038e-10
1.46038e-10
1.46038e-10
1.46038e-10
1.46038e-10
1.46038e-10
1.46038e-10
1.46038e-10
1.46038e-10
1.46038e-10
1.46038e-10
1.46038e-10
1.46038e-10
1.46038e-10
1.46038e-10
1.46038e-10
1.46038e-10
1.46038e-10
1.46038e-10
1.46038e-10
1.46038e-10
1.46038e-10
1.46038e-10
1.46038e-10
1.46038e-10
1.46038e-10
1.46038e-10
1.46038e-10
1.46038e-10
1.46038e-10
1.46038e-10
1.46038e-10
1.46038e-10
1.46038e-10
1.46038e-10
1.46038e-10
1.46038e-10
1.46038e-10
1.46038e-10
1.46038e-10
1.46038e-10
1.46038e-10
1.46038e-10
1.46038e-10
1.46038e-10
1.46038e-10
1.46038e-10
1.46038e-10
1.46038e-10
1.46038e-10
1.46038e-10
1.46038e-10
1.46038e-10
1.46038e-10
1.46038e-10
1.46038e-10
1.46038e-10
1.46038e-10
1.46038e-10
1.46038e-10
1.46038e-10
1.46038e-10
1.46038e-10
1.46038e-10
1.46038e-10
1.46038e-10
1.46038e-10
1.46038e-10
1.46038e-10
1.46038e-10
1.46038e-10
1.46038e-10
1.46038e-10
1.46038e-10
1.46038e-10
1.46038e-10
1.46038e-10
1.46038e-10
1.46038e-10
1.46038e-10
1.46038e-10
1.46038e-10
1.46038e-10
1.46038e-10
1.46038e-10
1.46038e-10
1.46038e-10
1.46038e-10
1.46038e-10
1.46038e-10
1.46038e-10
1.46038e-10
1.46038e-10
1.46038e-10
1.46038e-10
1.46038e-10
1.46038e-10
1.46038e-10
1.46038e-10
1.46038e-10
1.46038e-10
1.46038e-10
1.46038e-10
1.46038e-10
1.46038e-10
1.46038e-10
1.46038e-10
1.46038e-10
1.46038e-10
1.46038e-10
1.46038e-10
1.46038e-10
1.46038e-10
1.46038e-10
1.46038e-10
1.46038e-10
1.46038e-10
1.46038e-10
1.46038e-10
1.46038e-10
1.46038e-10
1.46038e-10
1.46038e-10
1.46038e-10
1.46038e-10
1.46038e-10
1.46038e-10
1.46038e-10
1.46038e-10
1.46038e-10
1.46038e-10
1.46038e-10
1.46038e-10
1.46038e-10
1.46038e-10
1.46038e-10
1.46038e-10
1.46038e-10
1.46038e-10
1.46038e-10
1.46038e-10
1.46038e-10
1.46038e-10
1.46038e-10
1.46038e-10
1.46038e-10
1.46038e-10
1.46038e-10
1.46038e-10
1.46038e-10
1.46038e-10
1.46038e-10
1.46038e-10
1.46038e-10
1.46038e-10
1.46038e-10
1.46038e-10
1.46038e-10
1.46038e-10
1.46038e-10
1.46038e-10
1.46038e-10
1.46038e-10
1.46038e-10
1.46038e-10
1.46038e-10
1.46038e-10
1.46038e-10
1.46038e-10
1.46038e-10
1.46038e-10
1.46038e-10
1.46038e-10
1.46038e-10
1.46038e-10
1.46038e-10
1.46038e-10
1.46038e-10
1.46038e-10
1.46038e-10
1.46038e-10
1.46038e-10
1.46038e-10
1.46038e-10
1.46038e-10
1.46038e-10
1.46038e-10
1.46038e-10
1.46038e-10
1.46038e-10
1.46038e-10
1.46038e-10
1.46038e-10
1.46038e-10
1.46038e-10
1.46038e-10
1.46038e-10
1.46038e-10
1.46038e-10
1.46038e-10
1.46038e-10
1.46038e-10
1.46038e-10
1.46038e-10
1.46038e-10
1.46038e-10
1.46038e-10
1.46038e-10
1.46038e-10
1.46038e-10
1.46038e-10
1.46038e-10
1.46038e-10
1.46038e-10
1.46038e-10
1.46038e-10
1.46038e-10
1.46038e-10
1.46038e-10
1.46038e-10
1.46038e-10
1.46038e-10
1.46038e-10
1.46038e-10
1.46038e-10
1.46038e-10
1.46038e-10
1.46038e-10
1.46038e-10
1.46038e-10
1.46038e-10
1.46038e-10
1.46038e-10
1.46038e-10
1.46038e-10
1.46038e-10
1.46038e-10
1.46038e-10
1.46038e-10
1.46038e-10
1.46038e-10
1.46038e-10
1.46038e-10
1.46038e-10
1.46038e-10
1.46038e-10
1.46038e-10
1.46038e-10
1.46038e-10
1.46038e-10
1.46038e-10
1.46038e-10
1.46038e-10
1.46038e-10
1.46038e-10
1.46038e-10
1.46038e-10
1.46038e-10
1.46038e-10
1.46038e-10
1.46038e-10
1.46038e-10
1.46038e-10
1.46038e-10
1.46038e-10
1.46038e-10
1.46038e-10
1.46038e-10
1.46038e-10
1.46038e-10
1.46038e-10
1.46038e-10
1.46038e-10
1.46038e-10
1.46038e-10
1.46038e-10
1.46038e-10
1.46038e-10
1.46038e-10
1.46038e-10
1.46038e-10
1.46038e-10
1.46038e-10
1.46038e-10
1.46038e-10
1.46038e-10
1.46038e-10
1.46038e-10
1.46038e-10
1.46038e-10
1.46038e-10
1.46038e-10
1.46038e-10
1.46038e-10
1.46038e-10
1.46038e-10
1.46038e-10
1.46038e-10
1.46038e-10
1.46038e-10
1.46038e-10
1.46038e-10
1.46038e-10
1.46038e-10
1.46038e-10
1.46038e-10
1.46038e-10
1.46038e-10
1.46038e-10
1.46038e-10
1.46038e-10
1.46038e-10
1.46038e-10
1.46038e-10
1.46038e-10
1.46038e-10
1.46038e-10
1.46038e-10
1.46038e-10
1.46038e-10
1.46038e-10
1.46038e-10
1.46038e-10
1.46038e-10
1.46038e-10
1.46038e-10
1.46038e-10
1.46038e-10
1.46038e-10
1.46038e-10
1.46038e-10
1.46038e-10
1.46038e-10
1.46038e-10
1.46038e-10
1.46038e-10
1.46038e-10
1.46038e-10
1.46038e-10
1.46038e-10
1.46038e-10
1.46038e-10
1.46038e-10
1.46038e-10
1.46038e-10
1.46038e-10
1.46038e-10
1.46038e-10
1.46039e-10
1.4604e-10
1.46044e-10
1.46038e-10
1.46038e-10
1.46038e-10
1.46038e-10
1.46038e-10
1.46038e-10
1.46038e-10
1.46038e-10
1.46038e-10
1.46038e-10
1.46038e-10
1.46038e-10
1.46038e-10
1.46038e-10
1.46038e-10
1.46038e-10
1.46038e-10
1.46038e-10
1.46038e-10
1.46038e-10
1.46038e-10
1.46038e-10
1.46038e-10
1.46038e-10
1.46038e-10
1.46038e-10
1.46038e-10
1.46038e-10
1.46038e-10
1.46038e-10
1.46038e-10
1.46038e-10
1.46038e-10
1.46038e-10
1.46038e-10
1.46038e-10
1.46038e-10
1.46038e-10
1.46038e-10
1.46038e-10
1.46038e-10
1.46038e-10
1.46038e-10
1.46038e-10
1.46039e-10
1.4604e-10
1.46043e-10
1.4605e-10
1.46063e-10
1.461e-10
1.46038e-10
1.46038e-10
1.46038e-10
1.46038e-10
1.46038e-10
1.46038e-10
1.46038e-10
1.46038e-10
1.46038e-10
1.46038e-10
1.46038e-10
1.46038e-10
1.46038e-10
1.46038e-10
1.46038e-10
1.46038e-10
1.46038e-10
1.46038e-10
1.46038e-10
1.46038e-10
1.46038e-10
1.46038e-10
1.46038e-10
1.46038e-10
1.46038e-10
1.46038e-10
1.46038e-10
1.46038e-10
1.46038e-10
1.46038e-10
1.46038e-10
1.46038e-10
1.46038e-10
1.46038e-10
1.46038e-10
1.46038e-10
1.46038e-10
1.46038e-10
1.46038e-10
1.46038e-10
1.46038e-10
1.46039e-10
1.46041e-10
1.46044e-10
1.4605e-10
1.46064e-10
1.46092e-10
1.46152e-10
1.46284e-10
1.46626e-10
1.46038e-10
1.46038e-10
1.46038e-10
1.46038e-10
1.46038e-10
1.46038e-10
1.46038e-10
1.46038e-10
1.46038e-10
1.46038e-10
1.46038e-10
1.46038e-10
1.46038e-10
1.46038e-10
1.46038e-10
1.46038e-10
1.46038e-10
1.46038e-10
1.46038e-10
1.46038e-10
1.46038e-10
1.46038e-10
1.46038e-10
1.46038e-10
1.46038e-10
1.46038e-10
1.46038e-10
1.46038e-10
1.46038e-10
1.46038e-10
1.46038e-10
1.46038e-10
1.46038e-10
1.46038e-10
1.46038e-10
1.46038e-10
1.46038e-10
1.46039e-10
1.46039e-10
1.46041e-10
1.46044e-10
1.46051e-10
1.46065e-10
1.46095e-10
1.46156e-10
1.46283e-10
1.46551e-10
1.47119e-10
1.48364e-10
1.5152e-10
1.46038e-10
1.46038e-10
1.46038e-10
1.46038e-10
1.46038e-10
1.46038e-10
1.46038e-10
1.46038e-10
1.46038e-10
1.46038e-10
1.46038e-10
1.46038e-10
1.46038e-10
1.46038e-10
1.46038e-10
1.46038e-10
1.46038e-10
1.46038e-10
1.46038e-10
1.46038e-10
1.46038e-10
1.46038e-10
1.46038e-10
1.46038e-10
1.46038e-10
1.46038e-10
1.46038e-10
1.46038e-10
1.46038e-10
1.46038e-10
1.46038e-10
1.46038e-10
1.46038e-10
1.46038e-10
1.46039e-10
1.4604e-10
1.46042e-10
1.46045e-10
1.46053e-10
1.46068e-10
1.461e-10
1.46165e-10
1.46297e-10
1.46572e-10
1.47141e-10
1.4833e-10
1.50822e-10
1.56083e-10
1.67467e-10
1.95397e-10
1.46038e-10
1.46038e-10
1.46038e-10
1.46038e-10
1.46038e-10
1.46038e-10
1.46038e-10
1.46038e-10
1.46038e-10
1.46038e-10
1.46038e-10
1.46038e-10
1.46038e-10
1.46038e-10
1.46038e-10
1.46038e-10
1.46038e-10
1.46038e-10
1.46038e-10
1.46038e-10
1.46038e-10
1.46038e-10
1.46038e-10
1.46038e-10
1.46038e-10
1.46038e-10
1.46038e-10
1.46038e-10
1.46038e-10
1.46038e-10
1.46038e-10
1.46039e-10
1.4604e-10
1.46042e-10
1.46047e-10
1.46055e-10
1.46073e-10
1.46108e-10
1.46179e-10
1.46322e-10
1.46612e-10
1.47207e-10
1.48426e-10
1.50939e-10
1.56138e-10
1.66918e-10
1.89293e-10
2.35747e-10
3.33263e-10
5.58161e-10
1.46038e-10
1.46038e-10
1.46038e-10
1.46038e-10
1.46038e-10
1.46038e-10
1.46038e-10
1.46038e-10
1.46038e-10
1.46038e-10
1.46038e-10
1.46038e-10
1.46038e-10
1.46038e-10
1.46038e-10
1.46038e-10
1.46038e-10
1.46038e-10
1.46038e-10
1.46038e-10
1.46038e-10
1.46038e-10
1.46038e-10
1.46038e-10
1.46038e-10
1.46038e-10
1.46038e-10
1.46039e-10
1.46039e-10
1.46041e-10
1.46043e-10
1.46049e-10
1.46059e-10
1.46079e-10
1.4612e-10
1.462e-10
1.46359e-10
1.46677e-10
1.47317e-10
1.48611e-10
1.51235e-10
1.56575e-10
1.67467e-10
1.89692e-10
2.34931e-10
3.26535e-10
5.1089e-10
8.80821e-10
1.6309e-09
3.26743e-09
1.46038e-10
1.46038e-10
1.46038e-10
1.46038e-10
1.46038e-10
1.46038e-10
1.46038e-10
1.46038e-10
1.46038e-10
1.46038e-10
1.46038e-10
1.46038e-10
1.46038e-10
1.46038e-10
1.46038e-10
1.46038e-10
1.46038e-10
1.46038e-10
1.46038e-10
1.46038e-10
1.46038e-10
1.46038e-10
1.46038e-10
1.46038e-10
1.46039e-10
1.4604e-10
1.46042e-10
1.46045e-10
1.46052e-10
1.46064e-10
1.46089e-10
1.46137e-10
1.4623e-10
1.46412e-10
1.46773e-10
1.47486e-10
1.48904e-10
1.51734e-10
1.57403e-10
1.6878e-10
1.9162e-10
2.3736e-10
3.28481e-10
5.08848e-10
8.64071e-10
1.56254e-09
2.93953e-09
5.67239e-09
1.11648e-08
2.26093e-08
1.46038e-10
1.46038e-10
1.46038e-10
1.46038e-10
1.46038e-10
1.46038e-10
1.46038e-10
1.46038e-10
1.46038e-10
1.46038e-10
1.46038e-10
1.46038e-10
1.46038e-10
1.46038e-10
1.46038e-10
1.46038e-10
1.46038e-10
1.46038e-10
1.46038e-10
1.46038e-10
1.46039e-10
1.46039e-10
1.4604e-10
1.46043e-10
1.46047e-10
1.46056e-10
1.46072e-10
1.46102e-10
1.46161e-10
1.46273e-10
1.4649e-10
1.46911e-10
1.47731e-10
1.49336e-10
1.5249e-10
1.58706e-10
1.70981e-10
1.95225e-10
2.42982e-10
3.36586e-10
5.18934e-10
8.72491e-10
1.55688e-09
2.8841e-09
5.46932e-09
1.05263e-08
2.04096e-08
3.94896e-08
7.53869e-08
1.40783e-07
1.46038e-10
1.46038e-10
1.46038e-10
1.46038e-10
1.46038e-10
1.46038e-10
1.46038e-10
1.46038e-10
1.46038e-10
1.46038e-10
1.46038e-10
1.46038e-10
1.46038e-10
1.46038e-10
1.46038e-10
1.46038e-10
1.46038e-10
1.46039e-10
1.4604e-10
1.46042e-10
1.46045e-10
1.46051e-10
1.46062e-10
1.46083e-10
1.46122e-10
1.46196e-10
1.46335e-10
1.46601e-10
1.47108e-10
1.48082e-10
1.49959e-10
1.53587e-10
1.60626e-10
1.74302e-10
2.00869e-10
2.52334e-10
3.51543e-10
5.41703e-10
9.04664e-10
1.59656e-09
2.91802e-09
5.45266e-09
1.03344e-08
1.97309e-08
3.76069e-08
7.06736e-08
1.29177e-07
2.27087e-07
3.81917e-07
6.14609e-07
1.46038e-10
1.46038e-10
1.46038e-10
1.46038e-10
1.46038e-10
1.46038e-10
1.46038e-10
1.46038e-10
1.46038e-10
1.46038e-10
1.46038e-10
1.46038e-10
1.46038e-10
1.46039e-10
1.46039e-10
1.46041e-10
1.46043e-10
1.46048e-10
1.46056e-10
1.46071e-10
1.46099e-10
1.46151e-10
1.46247e-10
1.46426e-10
1.46762e-10
1.47394e-10
1.48587e-10
1.50852e-10
1.55162e-10
1.6339e-10
1.79116e-10
2.09156e-10
2.6637e-10
3.74808e-10
5.79265e-10
9.63385e-10
1.68447e-09
3.04105e-09
5.60408e-09
1.04668e-08
1.96918e-08
3.70154e-08
6.87332e-08
1.24446e-07
2.17212e-07
3.62872e-07
5.78878e-07
8.83236e-07
1.29489e-06
1.83399e-06
1.46038e-10
1.46038e-10
1.46038e-10
1.46038e-10
1.46038e-10
1.46038e-10
1.46038e-10
1.46038e-10
1.46038e-10
1.46039e-10
1.46039e-10
1.4604e-10
1.46042e-10
1.46046e-10
1.46053e-10
1.46065e-10
1.46086e-10
1.46125e-10
1.46195e-10
1.46325e-10
1.46562e-10
1.47e-10
1.47811e-10
1.49321e-10
1.5214e-10
1.57424e-10
1.67347e-10
1.86003e-10
2.21038e-10
2.86616e-10
4.08786e-10
6.35332e-10
1.05423e-09
1.82866e-09
3.26394e-09
5.93556e-09
1.09291e-08
2.02638e-08
3.75525e-08
6.88356e-08
1.23301e-07
2.13476e-07
3.54649e-07
5.63694e-07
8.57817e-07
1.25351e-06
1.76621e-06
2.4101e-06
3.20013e-06
4.15446e-06
1.46038e-10
1.46038e-10
1.46038e-10
1.46038e-10
1.46038e-10
1.46039e-10
1.46039e-10
1.4604e-10
1.46042e-10
1.46045e-10
1.46051e-10
1.46061e-10
1.46078e-10
1.46109e-10
1.46164e-10
1.46264e-10
1.46443e-10
1.46767e-10
1.47356e-10
1.48431e-10
1.50401e-10
1.54024e-10
1.60704e-10
1.73049e-10
1.95868e-10
2.37982e-10
3.15433e-10
4.57225e-10
7.15791e-10
1.18635e-09
2.04315e-09
3.60774e-09
6.47747e-09
1.17622e-08
2.1494e-08
3.92564e-08
7.09681e-08
1.25564e-07
2.15193e-07
3.54718e-07
5.60633e-07
8.49845e-07
1.23867e-06
1.74217e-06
2.37388e-06
3.14487e-06
4.06458e-06
5.14084e-06
6.3823e-06
7.80478e-06
1.46038e-10
1.46039e-10
1.46039e-10
1.4604e-10
1.46042e-10
1.46045e-10
1.4605e-10
1.46059e-10
1.46074e-10
1.461e-10
1.46146e-10
1.46228e-10
1.46372e-10
1.46628e-10
1.47085e-10
1.47902e-10
1.49371e-10
1.52022e-10
1.56821e-10
1.65531e-10
1.8136e-10
2.10121e-10
2.62264e-10
3.5645e-10
5.2588e-10
8.29716e-10
1.37399e-09
2.35019e-09
4.1069e-09
7.28246e-09
1.30444e-08
2.34944e-08
4.22753e-08
7.53085e-08
1.31422e-07
2.22527e-07
3.63146e-07
5.69422e-07
8.57959e-07
1.24489e-06
1.74517e-06
2.37234e-06
3.13791e-06
4.05104e-06
5.11881e-06
6.34533e-06
7.72942e-06
9.26461e-06
1.09467e-05
1.28019e-05
1.46042e-10
1.46045e-10
1.4605e-10
1.46058e-10
1.46072e-10
1.46096e-10
1.46137e-10
1.46209e-10
1.46332e-10
1.46548e-10
1.46925e-10
1.47588e-10
1.48757e-10
1.50827e-10
1.54505e-10
1.61058e-10
1.72758e-10
1.93665e-10
2.30985e-10
2.97426e-10
4.15278e-10
6.23589e-10
9.91007e-10
1.63899e-09
2.78405e-09
4.81511e-09
8.43405e-09
1.49037e-08
2.6456e-08
4.68825e-08
8.22272e-08
1.41348e-07
2.36043e-07
3.80583e-07
5.90788e-07
8.82946e-07
1.2729e-06
1.77547e-06
2.40405e-06
3.17046e-06
4.08402e-06
5.15224e-06
6.37998e-06
7.76809e-06
9.31093e-06
1.09978e-05
1.28162e-05
1.47574e-05
1.68217e-05
1.90612e-05
1.46059e-10
1.46072e-10
1.46096e-10
1.46135e-10
1.46201e-10
1.46315e-10
1.46508e-10
1.46841e-10
1.47414e-10
1.48406e-10
1.50129e-10
1.53134e-10
1.5839e-10
1.67607e-10
1.83791e-10
2.12207e-10
2.62017e-10
3.49064e-10
5.00677e-10
7.64048e-10
1.22108e-09
2.01486e-09
3.39727e-09
5.81472e-09
1.00609e-08
1.75391e-08
3.06792e-08
5.3516e-08
9.23329e-08
1.56143e-07
2.56746e-07
4.0824e-07
6.26143e-07
9.26394e-07
1.3245e-06
1.83502e-06
2.47118e-06
3.24476e-06
4.16542e-06
5.2407e-06
6.47606e-06
7.87388e-06
9.43102e-06
1.11382e-05
1.29827e-05
1.4952e-05
1.70374e-05
1.92323e-05
2.15355e-05
2.39518e-05
2.65499e-05
1.46205e-10
1.46315e-10
1.465e-10
1.46812e-10
1.4734e-10
1.48236e-10
1.49765e-10
1.52382e-10
1.56875e-10
1.6461e-10
1.77953e-10
2.00979e-10
2.40681e-10
3.08983e-10
4.26136e-10
6.2653e-10
9.68773e-10
1.55332e-09
2.55357e-09
4.27089e-09
7.23221e-09
1.23598e-08
2.12534e-08
3.66205e-08
6.28409e-08
1.06552e-07
1.77037e-07
2.86187e-07
4.47987e-07
6.77667e-07
9.90792e-07
1.40249e-06
1.92697e-06
2.57718e-06
3.36469e-06
4.29941e-06
5.38884e-06
6.6388e-06
8.05243e-06
9.62865e-06
1.13602e-05
1.3235e-05
1.52397e-05
1.73629e-05
1.95965e-05
2.19353e-05
2.4377e-05
2.69186e-05
2.95618e-05
3.2314e-05
3.52512e-05
1.46833e-10
1.47351e-10
1.48213e-10
1.49658e-10
1.52084e-10
1.56174e-10
1.63088e-10
1.74798e-10
1.94653e-10
2.28306e-10
2.85252e-10
3.81374e-10
5.43204e-10
8.15183e-10
1.27211e-09
2.04066e-09
3.33688e-09
5.53157e-09
9.2639e-09
1.56336e-08
2.65084e-08
4.49674e-08
7.58458e-08
1.26248e-07
2.0582e-07
3.26615e-07
5.02537e-07
7.48524e-07
1.07974e-06
1.51087e-06
2.05568e-06
2.7268e-06
3.53553e-06
4.49168e-06
5.60285e-06
6.87487e-06
8.31129e-06
9.91254e-06
1.16734e-05
1.35829e-05
1.56274e-05
1.77939e-05
2.00727e-05
2.24563e-05
2.49405e-05
2.75223e-05
3.02008e-05
3.29753e-05
3.58439e-05
3.88086e-05
4.18881e-05
4.51625e-05
1.52177e-10
1.56139e-10
1.62715e-10
1.73652e-10
1.91864e-10
2.22192e-10
2.72637e-10
3.56374e-10
4.95057e-10
7.2435e-10
1.10323e-09
1.72982e-09
2.76834e-09
4.49552e-09
7.38024e-09
1.22184e-08
2.03535e-08
3.40114e-08
5.67543e-08
9.39898e-08
1.5339e-07
2.45038e-07
3.81184e-07
5.7565e-07
8.43065e-07
1.19813e-06
1.65504e-06
2.22707e-06
2.92643e-06
3.76403e-06
4.74945e-06
5.8904e-06
7.19251e-06
8.65967e-06
1.0293e-05
1.2089e-05
1.40382e-05
1.61276e-05
1.83429e-05
2.06723e-05
2.3107e-05
2.5641e-05
2.82712e-05
3.09938e-05
3.38084e-05
3.67141e-05
3.9709e-05
4.27988e-05
4.59892e-05
4.92702e-05
5.26453e-05
5.62124e-05
1.92028e-10
2.21073e-10
2.68535e-10
3.45966e-10
4.72045e-10
6.7703e-10
1.01012e-09
1.55175e-09
2.43416e-09
3.87621e-09
6.24222e-09
1.01409e-08
1.65878e-08
2.72589e-08
4.48526e-08
7.35407e-08
1.1942e-07
1.90813e-07
2.98274e-07
4.54245e-07
6.72436e-07
9.67117e-07
1.35248e-06
1.84216e-06
2.44889e-06
3.18435e-06
4.05905e-06
5.0822e-06
6.26148e-06
7.60232e-06
9.10865e-06
1.07819e-05
1.262e-05
1.4615e-05
1.67545e-05
1.90239e-05
2.14098e-05
2.39023e-05
2.64931e-05
2.91775e-05
3.19519e-05
3.48143e-05
3.7765e-05
4.08001e-05
4.39204e-05
4.71366e-05
5.04454e-05
5.38315e-05
5.73025e-05
6.08599e-05
6.45144e-05
6.83643e-05
4.69572e-10
6.63798e-10
9.74084e-10
1.47013e-09
2.26463e-09
3.54078e-09
5.5983e-09
8.92964e-09
1.43447e-08
2.31671e-08
3.75226e-08
6.07204e-08
9.76777e-08
1.55283e-07
2.42556e-07
3.70512e-07
5.51732e-07
7.99744e-07
1.12839e-06
1.55129e-06
2.08146e-06
2.73104e-06
3.51112e-06
4.43172e-06
5.50166e-06
6.72833e-06
8.11705e-06
9.67155e-06
1.13935e-05
1.32815e-05
1.53292e-05
1.75248e-05
1.98542e-05
2.23028e-05
2.48588e-05
2.75127e-05
3.02584e-05
3.30922e-05
3.60094e-05
3.901e-05
4.20932e-05
4.5255e-05
4.85032e-05
5.18433e-05
5.52619e-05
5.87579e-05
6.2333e-05
6.59863e-05
6.97225e-05
7.35473e-05
7.74753e-05
8.16002e-05
2.22633e-09
3.42232e-09
5.3177e-09
8.33385e-09
1.3153e-08
2.08758e-08
3.32555e-08
5.30168e-08
8.42351e-08
1.32702e-07
2.06166e-07
3.14338e-07
4.68625e-07
6.81645e-07
9.66647e-07
1.33696e-06
1.80555e-06
2.38477e-06
3.08609e-06
3.91998e-06
4.89593e-06
6.02225e-06
7.30599e-06
8.75229e-06
1.03646e-05
1.21445e-05
1.40912e-05
1.61992e-05
1.84581e-05
2.08536e-05
2.33707e-05
2.59962e-05
2.87201e-05
3.15341e-05
3.44327e-05
3.7412e-05
4.04703e-05
4.36074e-05
4.68181e-05
5.01057e-05
5.34802e-05
5.69357e-05
6.04639e-05
6.40647e-05
6.77406e-05
7.14907e-05
7.53202e-05
7.92319e-05
8.32274e-05
8.73085e-05
9.14903e-05
9.58676e-05
1.2777e-08
1.99334e-08
3.1224e-08
4.8992e-08
7.67361e-08
1.19453e-07
1.83905e-07
2.78705e-07
4.14177e-07
6.0199e-07
8.54659e-07
1.18502e-06
1.6058e-06
2.12926e-06
2.76701e-06
3.5298e-06
4.42746e-06
5.46886e-06
6.66179e-06
8.01285e-06
9.52697e-06
1.12072e-05
1.3055e-05
1.50697e-05
1.72467e-05
1.95762e-05
2.20446e-05
2.46366e-05
2.73384e-05
3.01381e-05
3.30262e-05
3.59964e-05
3.9045e-05
4.21674e-05
4.53626e-05
4.86302e-05
5.1967e-05
5.53802e-05
5.88738e-05
6.24408e-05
6.6074e-05
6.97755e-05
7.35469e-05
7.73898e-05
8.13089e-05
8.53064e-05
8.93819e-05
9.35357e-05
9.77691e-05
0.000102084
0.000106496
0.000111098
7.39015e-08
1.1345e-07
1.72603e-07
2.59114e-07
3.82383e-07
5.53188e-07
7.83271e-07
1.08487e-06
1.47028e-06
1.95152e-06
2.54008e-06
3.2468e-06
4.08169e-06
5.05387e-06
6.17157e-06
7.44201e-06
8.87128e-06
1.0464e-05
1.22227e-05
1.41488e-05
1.62414e-05
1.84964e-05
2.09048e-05
2.34536e-05
2.61274e-05
2.89113e-05
3.17927e-05
3.47615e-05
3.781e-05
4.09329e-05
4.41255e-05
4.7386e-05
5.07158e-05
5.4108e-05
5.75662e-05
6.11023e-05
6.47107e-05
6.83807e-05
7.2113e-05
7.59121e-05
7.97753e-05
8.37071e-05
8.7711e-05
9.17882e-05
9.59384e-05
0.000100163
0.000104461
0.000108833
0.000113279
0.000117801
0.000122415
0.000127214
5.30546e-07
7.46554e-07
1.02934e-06
1.39068e-06
1.84221e-06
2.39514e-06
3.06015e-06
3.84728e-06
4.76577e-06
5.82402e-06
7.02958e-06
8.38905e-06
9.90798e-06
1.15905e-05
1.34388e-05
1.5454e-05
1.76348e-05
1.99775e-05
2.24736e-05
2.51105e-05
2.78728e-05
3.07454e-05
3.37151e-05
3.67705e-05
3.99023e-05
4.31051e-05
4.63744e-05
4.9706e-05
5.3101e-05
5.65557e-05
6.00671e-05
6.36491e-05
6.73003e-05
7.10128e-05
7.47809e-05
7.86093e-05
8.24977e-05
8.64466e-05
9.04621e-05
9.45459e-05
9.86976e-05
0.000102918
0.000107207
0.000111565
0.000115991
0.000120486
0.000125048
0.000129678
0.000134377
0.000139162
0.000144124
1.79584e-06
2.32593e-06
2.96304e-06
3.71698e-06
4.59695e-06
5.61141e-06
6.76801e-06
8.07363e-06
9.53421e-06
1.11547e-05
1.29389e-05
1.48883e-05
1.70035e-05
1.92833e-05
2.17238e-05
2.43167e-05
2.70498e-05
2.99079e-05
3.28756e-05
3.59391e-05
3.90863e-05
4.23073e-05
4.55961e-05
4.89467e-05
5.23539e-05
5.58195e-05
5.9341e-05
6.2911e-05