/*--------------------------------*- C++ -*----------------------------------*\
| =========                 |                                                 |
| \\      /  F ield         | OpenFOAM: The Open Source CFD Toolbox           |
|  \\    /   O peration     | Version:  v1706                                 |
|   \\  /    A nd           | Web:      www.OpenFOAM.com                      |
|    \\/     M anipulation  |                                                 |
\*---------------------------------------------------------------------------*/
FoamFile
{
    version     2.0;
    format      ascii;
    class       volScalarField;
    location    "1.1e-05";
    object      Mach;
}
// * * * * * * * * * * * * * * * * * * * * * * * * * * * * * * * * * * * * * //

dimensions      [0 0 0 0 0 0 0];


internalField   nonuniform List<scalar> 
30038
(
11.2859
11.2859
11.2859
11.2859
11.2859
11.2859
11.2859
11.2859
11.2859
11.2859
11.2859
11.2859
11.2859
11.2859
11.2859
11.2859
11.2859
11.2859
11.2859
11.2859
11.2859
11.2859
11.2859
11.2859
11.2859
11.2859
11.2859
11.2859
11.2859
11.2859
11.2859
11.2859
11.2859
11.2859
11.2859
11.2859
11.2859
11.2859
11.2859
11.2859
11.2859
11.2859
11.2859
11.2859
11.2859
11.2859
11.2859
11.2859
11.2859
11.2859
11.2859
11.2859
11.2859
11.2859
11.2859
11.2859
11.2859
11.2859
11.2859
11.2859
11.2859
11.2859
11.2859
11.2859
11.2859
11.2859
11.2859
11.2859
11.2859
11.2859
11.2859
11.2859
11.2859
11.2859
11.2859
11.2859
11.2859
11.2859
11.2859
11.2859
11.2859
11.2859
11.2859
11.2859
11.2859
11.2859
11.2859
11.2859
11.2859
11.2859
11.2859
11.2859
11.2859
11.2859
11.2859
11.2859
11.2859
11.2859
11.2859
11.2859
11.2859
11.2859
11.2859
11.2859
11.2859
11.2859
11.2859
11.2859
11.2859
11.2859
11.2859
11.2859
11.2859
11.2859
11.2859
11.2859
11.2859
11.2859
11.2859
11.2859
11.2859
11.2859
11.2859
11.2859
11.2859
11.2859
11.2859
11.2859
11.2859
11.2859
11.2859
11.2859
11.2859
11.2859
11.2859
11.2859
11.2859
11.2859
11.2859
11.2859
11.2859
11.2859
11.2859
11.2859
11.2859
11.2859
11.2859
11.2859
11.2859
11.2859
11.2859
11.2859
11.2859
11.2859
11.2859
11.2859
11.2859
11.2859
11.2859
11.2859
11.2859
11.2859
11.2859
11.2859
11.2859
11.2859
11.2859
11.2859
11.2859
11.2859
11.2859
11.2859
11.2859
11.2859
11.2859
11.2859
11.2859
11.2859
11.2859
11.2859
11.2859
11.2859
11.2859
11.2859
11.2859
11.2859
11.2859
11.2859
11.2859
11.2859
11.2859
11.2859
11.2859
11.2859
11.2859
11.2859
11.2859
11.2859
11.2859
11.2859
11.2859
11.2859
11.2859
11.2859
11.2859
11.2859
11.2859
11.2859
11.2859
11.2859
11.2859
11.2859
11.2859
11.2859
11.2859
11.2859
11.2859
11.2859
11.2859
11.2859
11.2859
11.2859
11.2859
11.2859
11.2859
11.2859
11.2859
11.2859
11.2859
11.2859
11.2859
11.2859
11.2859
11.2859
11.2859
11.2859
11.2859
11.2859
11.2859
11.2859
11.2859
11.2859
11.2859
11.2859
11.2859
11.2859
11.2859
11.2859
11.2859
11.2859
11.2859
11.2859
11.2859
11.2859
11.2859
11.2859
11.2859
11.2859
11.2859
11.2859
11.2859
11.2859
11.2859
11.2859
11.2859
11.2859
11.2859
11.2859
11.2859
11.2859
11.2859
11.2859
11.2859
11.2859
11.2859
11.2859
11.2859
11.2859
11.2859
11.2859
11.2859
11.2859
11.2859
11.2859
11.2859
11.2859
11.2859
11.2859
11.2859
11.2859
11.2859
11.2859
11.2859
11.2859
11.2859
11.2859
11.2859
11.2859
11.2859
11.2859
11.2859
11.2859
11.2859
11.2859
11.2859
11.2859
11.2859
11.2859
11.2859
11.2859
11.2859
11.2859
11.2859
11.2859
11.2859
11.2859
11.2859
11.2859
11.2859
11.2859
11.2859
11.2859
11.2859
11.2859
11.2859
11.2859
11.2859
11.2859
11.2859
11.2859
11.2859
11.2859
11.2859
11.2859
11.2859
11.2859
11.2859
11.2859
11.2859
11.2859
11.2859
11.2859
11.2859
11.2859
11.2859
11.2859
11.2859
11.2859
11.2859
11.2859
11.2859
11.2859
11.2859
11.2859
11.2859
11.2859
11.2859
11.2859
11.2859
11.2859
11.2859
11.2859
11.2859
11.2859
11.2859
11.2859
11.2859
11.2859
11.2859
11.2859
11.2859
11.2859
11.2859
11.2859
11.2859
11.2859
11.2859
11.2859
11.2859
11.2859
11.2859
11.2859
11.2859
11.2859
11.2859
11.2859
11.2859
11.2859
11.2859
11.2859
11.2859
11.2859
11.2859
11.2859
11.2859
11.2859
11.2859
11.2859
11.2859
11.2859
11.2859
11.2859
11.2859
11.2859
11.2859
11.2859
11.2859
11.2859
11.2859
11.2859
11.2859
11.2859
11.2859
11.2859
11.2859
11.2859
11.2859
11.2859
11.2859
11.2859
11.2859
11.2859
11.2859
11.2859
11.2859
11.2859
11.2859
11.2859
11.2859
11.2859
11.2859
11.2859
11.2859
11.2859
11.2859
11.2859
11.2859
11.2859
11.2859
11.2859
11.2859
11.2859
11.2859
11.2859
11.2859
11.2859
11.2859
11.2859
11.2859
11.2859
11.2859
11.2859
11.2859
11.2859
11.2859
11.2859
11.2859
11.2859
11.2859
11.2859
11.2859
11.2859
11.2859
11.2859
11.2859
11.2859
11.2859
11.2859
11.2859
11.2859
11.2859
11.2859
11.2859
11.2859
11.2859
11.2859
11.2859
11.2859
11.2859
11.2859
11.2859
11.2859
11.2859
11.2859
11.2859
11.2859
11.2859
11.2859
11.2859
11.2859
11.2859
11.2859
11.2859
11.2859
11.2859
11.2859
11.2859
11.2859
11.2859
11.2859
11.2859
11.2859
11.2859
11.2859
11.2859
11.2859
11.2859
11.2859
11.2859
11.2859
11.2859
11.2859
11.2859
11.2859
11.2859
11.2859
11.2859
11.2859
11.2859
11.2859
11.2859
11.2859
11.2859
11.2859
11.2859
11.2859
11.2859
11.2859
11.2859
11.2859
11.2859
11.2859
11.2859
11.2859
11.2859
11.2859
11.2859
11.2859
11.2859
11.2859
11.2859
11.2859
11.2859
11.2859
11.2859
11.2859
11.2859
11.2859
11.2859
11.2859
11.2859
11.2859
11.2859
11.2859
11.2859
11.2859
11.2859
11.2859
11.2859
11.2859
11.2859
11.2859
11.2859
11.2859
11.2859
11.2859
11.2859
11.2859
11.2859
11.2859
11.2859
11.2859
11.2859
11.2859
11.2859
11.2859
11.2859
11.2859
11.2859
11.2859
11.2859
11.2859
11.2859
11.2859
11.2859
11.2859
11.2859
11.2859
11.2859
11.2859
11.2859
11.2859
11.2859
11.2859
11.2859
11.2859
11.2859
11.2859
11.2859
11.2859
11.2859
11.2859
11.2859
11.2859
11.2859
11.2859
11.2859
11.2859
11.2859
11.2859
11.2859
11.2859
11.2859
11.2859
11.2859
11.2859
11.2859
11.2859
11.2859
11.2859
11.2859
11.2859
11.2859
11.2859
11.2859
11.2859
11.2859
11.2859
11.2859
11.2859
11.2859
11.2859
11.2859
11.2859
11.2859
11.2859
11.2859
11.2859
11.2859
11.2859
11.2859
11.2859
11.2859
11.2859
11.2859
11.2859
11.2859
11.2859
11.2859
11.2859
11.2859
11.2859
11.2859
11.2859
11.2859
11.2859
11.2859
11.2859
11.2859
11.2859
11.2859
11.2859
11.2859
11.2859
11.2859
11.2859
11.2859
11.2859
11.2859
11.2859
11.2859
11.2859
11.2859
11.2859
11.2859
11.2859
11.2859
11.2859
11.2859
11.2859
11.2859
11.2859
11.2859
11.2859
11.2859
11.2859
11.2859
11.2859
11.2859
11.2859
11.2859
11.2859
11.2859
11.2859
11.2859
11.2859
11.2859
11.2859
11.2859
11.2859
11.2859
11.2859
11.2859
11.2859
11.2859
11.2859
11.2859
11.2859
11.2859
11.2859
11.2859
11.2859
11.2859
11.2859
11.2859
11.2859
11.2859
11.2859
11.2859
11.2859
11.2859
11.2859
11.2859
11.2859
11.2859
11.2859
11.2859
11.2859
11.2859
11.2859
11.2859
11.2859
11.2859
11.2859
11.2859
11.2859
11.2859
11.2859
11.2859
11.2859
11.2859
11.2859
11.2859
11.2859
11.2859
11.2859
11.2859
11.2859
11.2859
11.2859
11.2859
11.2859
11.2859
11.2859
11.2859
11.2859
11.2859
11.2859
11.2859
11.2859
11.2859
11.2859
11.2859
11.2859
11.2859
11.2859
11.2859
11.2859
11.2859
11.2859
11.2859
11.2859
11.2859
11.2859
11.2859
11.2859
11.2859
11.2859
11.2859
11.2859
11.2859
11.2859
11.2859
11.2859
11.2859
11.2859
11.2859
11.2859
11.2859
11.2859
11.2859
11.2859
11.2859
11.2859
11.2859
11.2859
11.2859
11.2859
11.2859
11.2859
11.2859
11.2859
11.2859
11.2859
11.2859
11.2859
11.2859
11.2859
11.2859
11.2859
11.2859
11.2859
11.2859
11.2859
11.2859
11.2859
11.2859
11.2859
11.2859
11.2859
11.2859
11.2859
11.2859
11.2859
11.2859
11.2859
11.2859
11.2859
11.2859
11.2859
11.2859
11.2859
11.2859
11.2859
11.2859
11.2859
11.2859
11.2859
11.2859
11.2859
11.2859
11.2859
11.2859
11.2859
11.2859
11.2859
11.2859
11.2859
11.2859
11.2859
11.2859
11.2859
11.2859
11.2859
11.2859
11.2859
11.2859
11.2859
11.2859
11.2859
11.2859
11.2859
11.2859
11.2859
11.2859
11.2859
11.2859
11.2859
11.2859
11.2859
11.2859
11.2859
11.2859
11.2859
11.2859
11.2859
11.2859
11.2859
11.2859
11.2859
11.2859
11.2859
11.2859
11.2859
11.2859
11.2859
11.2859
11.2859
11.2859
11.2859
11.2859
11.2859
11.2859
11.2859
11.2859
11.2859
11.2859
11.2859
11.2859
11.2859
11.2859
11.2859
11.2859
11.2859
11.2859
11.2859
11.2859
11.2859
11.2859
11.2859
11.2859
11.2859
11.2859
11.2859
11.2859
11.2859
11.2859
11.2859
11.2859
11.2859
11.2859
11.2859
11.2859
11.2859
11.2859
11.2859
11.2859
11.2859
11.2859
11.2859
11.2859
11.2859
11.2859
11.2859
11.2859
11.2859
11.2859
11.2859
11.2859
11.2859
11.2859
11.2859
11.2859
11.2859
11.2859
11.2859
11.2859
11.2859
11.2859
11.2859
11.2859
11.2859
11.2859
11.2859
11.2859
11.2859
11.2859
11.2859
11.2859
11.2859
11.2859
11.2859
11.2859
11.2859
11.2859
11.2859
11.2859
11.2859
11.2859
11.2859
11.2859
11.2859
11.2859
11.2859
11.2859
11.2859
11.2859
11.2859
11.2859
11.2859
11.2859
11.2859
11.2859
11.2859
11.2859
11.2859
11.2859
11.2859
11.2859
11.2859
11.2859
11.2859
11.2859
11.2859
11.2859
11.2859
11.2859
11.2859
11.2859
11.2859
11.2859
11.2859
11.2859
11.2859
11.2859
11.2859
11.2859
11.2859
11.2859
11.2859
11.2859
11.2859
11.2859
11.2859
11.2859
11.2859
11.2859
11.2859
11.2859
11.2859
11.2859
11.2859
11.2859
11.2859
11.2859
11.2859
11.2859
11.2859
11.2859
11.2859
11.2859
11.2859
11.2859
11.2859
11.2859
11.2859
11.2859
11.2859
11.2859
11.2859
11.2859
11.2859
11.2859
11.2859
11.2859
11.2859
11.2859
11.2859
11.2859
11.2859
11.2859
11.2859
11.2859
11.2859
11.2859
11.2859
11.2859
11.2859
11.2859
11.2859
11.2859
11.2859
11.2859
11.2859
11.2859
11.2859
11.2859
11.2859
11.2859
11.2859
11.2859
11.2859
11.2859
11.2859
11.2859
11.2859
11.2859
11.2859
11.2859
11.2859
11.2859
11.2859
11.2859
11.2859
11.2859
11.2859
11.2859
11.2859
11.2859
11.2859
11.2859
11.2859
11.2859
11.2859
11.2859
11.2859
11.2859
11.2859
11.2859
11.2859
11.2859
11.2859
11.2859
11.2859
11.2859
11.2859
11.2859
11.2859
11.2859
11.2859
11.2859
11.2859
11.2859
11.2859
11.2859
11.2859
11.2859
11.2859
11.2859
11.2859
11.2859
11.2859
11.2859
11.2859
11.2859
11.2859
11.2859
11.2859
11.2859
11.2859
11.2859
11.2859
11.2859
11.2859
11.2859
11.2859
11.2859
11.2859
11.2859
11.2859
11.2859
11.2859
11.2859
11.2859
11.2859
11.2859
11.2859
11.2859
11.2859
11.2859
11.2859
11.2859
11.2859
11.2859
11.2859
11.2859
11.2859
11.2859
11.2859
11.2859
11.2859
11.2859
11.2859
11.2859
11.2859
11.2859
11.2859
11.2859
11.2859
11.2859
11.2859
11.2859
11.2859
11.2859
11.2859
11.2859
11.2859
11.2859
11.2859
11.2859
11.2859
11.2859
11.2859
11.2859
11.2859
11.2859
11.2859
11.2859
11.2859
11.2859
11.2858
11.2858
11.2859
11.2859
11.2859
11.2859
11.2859
11.2859
11.2859
11.2859
11.2859
11.2859
11.2859
11.2859
11.2859
11.2859
11.2859
11.2859
11.2859
11.2859
11.2859
11.2859
11.2859
11.2859
11.2859
11.2859
11.2859
11.2859
11.2859
11.2859
11.2859
11.2859
11.2859
11.2859
11.2859
11.2859
11.2859
11.2859
11.2859
11.2859
11.2859
11.2859
11.2859
11.2859
11.2859
11.2859
11.2859
11.2858
11.2858
11.2858
11.2858
11.2857
11.2859
11.2859
11.2859
11.2859
11.2859
11.2859
11.2859
11.2859
11.2859
11.2859
11.2859
11.2859
11.2859
11.2859
11.2859
11.2859
11.2859
11.2859
11.2859
11.2859
11.2859
11.2859
11.2859
11.2859
11.2859
11.2859
11.2859
11.2859
11.2859
11.2859
11.2859
11.2859
11.2859
11.2859
11.2859
11.2859
11.2859
11.2859
11.2859
11.2859
11.2859
11.2859
11.2858
11.2858
11.2858
11.2858
11.2857
11.2856
11.2855
11.2851
11.2859
11.2859
11.2859
11.2859
11.2859
11.2859
11.2859
11.2859
11.2859
11.2859
11.2859
11.2859
11.2859
11.2859
11.2859
11.2859
11.2859
11.2859
11.2859
11.2859
11.2859
11.2859
11.2859
11.2859
11.2859
11.2859
11.2859
11.2859
11.2859
11.2859
11.2859
11.2859
11.2859
11.2859
11.2859
11.2859
11.2859
11.2859
11.2859
11.2858
11.2858
11.2858
11.2858
11.2857
11.2857
11.2855
11.2852
11.2846
11.2836
11.2816
11.2859
11.2859
11.2859
11.2859
11.2859
11.2859
11.2859
11.2859
11.2859
11.2859
11.2859
11.2859
11.2859
11.2859
11.2859
11.2859
11.2859
11.2859
11.2859
11.2859
11.2859
11.2859
11.2859
11.2859
11.2859
11.2859
11.2859
11.2859
11.2859
11.2859
11.2859
11.2859
11.2859
11.2859
11.2859
11.2859
11.2858
11.2858
11.2858
11.2858
11.2857
11.2857
11.2855
11.2852
11.2847
11.2838
11.2821
11.279
11.2734
11.2623
11.2859
11.2859
11.2859
11.2859
11.2859
11.2859
11.2859
11.2859
11.2859
11.2859
11.2859
11.2859
11.2859
11.2859
11.2859
11.2859
11.2859
11.2859
11.2859
11.2859
11.2859
11.2859
11.2859
11.2859
11.2859
11.2859
11.2859
11.2859
11.2859
11.2859
11.2859
11.2859
11.2859
11.2858
11.2858
11.2858
11.2858
11.2857
11.2856
11.2855
11.2852
11.2847
11.2838
11.2822
11.2793
11.2742
11.2649
11.2482
11.2177
11.16
11.2859
11.2859
11.2859
11.2859
11.2859
11.2859
11.2859
11.2859
11.2859
11.2859
11.2859
11.2859
11.2859
11.2859
11.2859
11.2859
11.2859
11.2859
11.2859
11.2859
11.2859
11.2859
11.2859
11.2859
11.2859
11.2859
11.2859
11.2859
11.2859
11.2858
11.2858
11.2858
11.2858
11.2858
11.2857
11.2856
11.2855
11.2852
11.2847
11.2838
11.2822
11.2794
11.2745
11.2658
11.2503
11.2227
11.174
11.0885
10.9395
10.6821
11.2859
11.2859
11.2859
11.2859
11.2859
11.2859
11.2859
11.2859
11.2859
11.2859
11.2859
11.2859
11.2859
11.2859
11.2859
11.2859
11.2859
11.2859
11.2859
11.2859
11.2859
11.2859
11.2859
11.2859
11.2859
11.2859
11.2858
11.2858
11.2858
11.2858
11.2858
11.2857
11.2856
11.2854
11.2851
11.2846
11.2837
11.2821
11.2793
11.2745
11.266
11.2512
11.2252
11.1797
11.1009
10.9666
10.7438
10.3916
9.87011
9.16391
11.2859
11.2859
11.2859
11.2859
11.2859
11.2859
11.2859
11.2859
11.2859
11.2859
11.2859
11.2859
11.2859
11.2859
11.2859
11.2859
11.2859
11.2859
11.2859
11.2859
11.2859
11.2859
11.2859
11.2858
11.2858
11.2858
11.2858
11.2858
11.2857
11.2856
11.2854
11.2851
11.2845
11.2835
11.2819
11.2791
11.2742
11.2658
11.2512
11.2259
11.1823
11.1076
10.9816
10.7744
10.4485
9.96852
9.32175
8.53752
7.68111
6.83357
11.2859
11.2859
11.2859
11.2859
11.2859
11.2859
11.2859
11.2859
11.2859
11.2859
11.2859
11.2859
11.2859
11.2859
11.2859
11.2859
11.2859
11.2859
11.2859
11.2858
11.2858
11.2858
11.2858
11.2858
11.2857
11.2857
11.2855
11.2853
11.285
11.2844
11.2833
11.2816
11.2786
11.2736
11.265
11.2503
11.2251
11.1822
11.1096
10.9885
10.7912
10.4829
10.0297
9.41687
8.6672
7.84133
7.01341
6.24291
5.55795
4.97098
11.2859
11.2859
11.2859
11.2859
11.2859
11.2859
11.2859
11.2859
11.2859
11.2859
11.2859
11.2859
11.2859
11.2859
11.2859
11.2859
11.2858
11.2858
11.2858
11.2858
11.2858
11.2857
11.2856
11.2855
11.2852
11.2848
11.2842
11.283
11.2811
11.278
11.2726
11.2636
11.2484
11.2227
11.1794
11.1071
10.9879
10.796
10.4986
10.0638
9.47626
8.75423
7.95185
7.13899
6.37436
5.69147
5.10021
4.59662
4.1679
3.8067
11.2859
11.2859
11.2859
11.2859
11.2859
11.2859
11.2859
11.2859
11.2859
11.2859
11.2859
11.2859
11.2858
11.2858
11.2858
11.2858
11.2858
11.2858
11.2857
11.2856
11.2854
11.2851
11.2846
11.2839
11.2826
11.2805
11.277
11.2712
11.2615
11.2453
11.2184
11.1738
11.1
10.98
10.7892
10.4968
10.073
9.50316
8.80328
8.02248
7.22592
6.47038
5.79017
5.19738
4.68966
4.25791
3.89104
3.57931
3.31179
3.08507
11.2859
11.2859
11.2859
11.2859
11.2859
11.2859
11.2859
11.2859
11.2858
11.2858
11.2858
11.2858
11.2858
11.2858
11.2857
11.2856
11.2855
11.2853
11.2849
11.2844
11.2835
11.282
11.2796
11.2757
11.2692
11.2585
11.241
11.2121
11.1648
11.0878
10.9642
10.7704
10.4774
10.0578
9.49875
8.81568
8.05426
7.27523
6.5324
5.85942
5.26935
4.76117
4.32692
3.95657
3.64038
3.37007
3.13862
2.9414
2.77384
2.63556
11.2859
11.2859
11.2859
11.2859
11.2859
11.2858
11.2858
11.2858
11.2858
11.2858
11.2857
11.2857
11.2856
11.2854
11.2851
11.2847
11.284
11.283
11.2812
11.2784
11.2738
11.2664
11.2544
11.2349
11.2031
11.1519
11.0696
10.9395
10.7386
10.4396
10.0179
9.4632
8.79195
8.04763
7.28689
6.55988
5.89846
5.31564
4.81119
4.37809
4.00702
3.68885
3.41561
3.18068
2.97897
2.80703
2.66284
2.54556
2.45316
2.38313
11.2859
11.2858
11.2858
11.2858
11.2858
11.2858
11.2858
11.2857
11.2856
11.2855
11.2853
11.2849
11.2844
11.2835
11.2822
11.2801
11.2767
11.2713
11.2626
11.2487
11.2265
11.1908
11.1339
11.0441
10.9042
10.6919
10.3816
9.95175
9.3958
8.73208
8.00295
7.26119
6.55275
5.90682
5.33549
4.83882
4.41046
4.04181
3.72431
3.45039
3.21379
3.00944
2.83374
2.68446
2.56048
2.46098
2.3843
2.32766
2.28704
2.25808
11.2858
11.2858
11.2858
11.2858
11.2857
11.2856
11.2855
11.2853
11.285
11.2846
11.2839
11.2829
11.2812
11.2785
11.2744
11.2678
11.2574
11.241
11.215
11.174
11.1095
11.0092
10.8558
10.6275
10.3005
9.85706
9.29505
8.63566
7.92056
7.19872
6.51148
5.88462
5.32868
4.84356
4.42337
4.06016
3.74594
3.47361
3.23728
3.03211
2.85445
2.70188
2.57312
2.46751
2.38411
2.32091
2.27483
2.24226
2.21961
2.204
2.19269
11.2857
11.2856
11.2855
11.2854
11.2851
11.2847
11.2842
11.2832
11.2818
11.2797
11.2763
11.2711
11.2629
11.2502
11.2303
11.1993
11.151
11.0763
10.9622
10.791
10.5414
10.1924
9.73057
9.1589
8.50196
7.80082
7.10038
6.43697
5.8325
5.29553
4.82541
4.41657
4.06163
3.75317
3.48463
3.25046
3.04618
2.86821
2.71408
2.58233
2.47229
2.38341
2.31441
2.26296
2.22594
2.20001
2.18206
2.16971
2.16108
2.15522
2.15111
11.2854
11.2852
11.2848
11.2843
11.2835
11.2823
11.2804
11.2775
11.2732
11.2664
11.2561
11.2401
11.2155
11.1776
11.1196
11.0314
10.8991
10.7049
10.4287
10.0526
9.56837
8.98503
8.33034
7.64435
6.9675
6.33071
5.75176
5.23696
4.78494
4.39031
4.0462
3.74581
3.48307
3.25287
3.05109
2.87434
2.72019
2.58705
2.4742
2.38125
2.30747
2.25121
2.20989
2.18049
2.16007
2.14602
2.13649
2.12975
2.12538
2.1226
2.12118
2.12011
11.2836
11.2824
11.2808
11.2782
11.2744
11.2685
11.2597
11.2462
11.2258
11.1946
11.1475
11.0764
10.9704
10.8147
10.5917
10.283
9.87516
9.3663
8.77128
8.1206
7.45239
6.80201
6.19476
5.64423
5.15441
4.72317
4.34524
4.01423
3.72395
3.46885
3.2443
3.0465
2.87238
2.71956
2.58648
2.4723
2.37671
2.29929
2.23896
2.19375
2.16105
2.13808
2.1222
2.11131
2.104
2.09906
2.09618
2.09412
2.09368
2.09318
2.09331
2.09383
11.2749
11.2696
11.2617
11.2498
11.2319
11.2051
11.165
11.1051
11.0166
10.8872
10.7018
10.4434
10.0968
9.65415
9.1205
8.51628
7.87342
7.22696
6.60652
6.03176
5.51224
5.04979
4.64155
4.28239
3.96642
3.688
3.44218
3.22476
3.0323
2.86205
2.71181
2.58004
2.46586
2.36895
2.28909
2.22563
2.17711
2.14136
2.11586
2.09815
2.08605
2.07794
2.07241
2.06889
2.06705
2.06618
2.06601
2.06622
2.06701
2.06806
2.0691
2.07021
11.235
11.2108
11.175
11.1223
11.0451
10.9333
10.7737
10.5512
10.2509
9.86209
9.38383
8.82825
8.22007
7.59083
6.9711
6.38439
5.84493
5.35861
4.92542
4.54193
4.20316
3.90377
3.63868
3.4035
3.19448
3.00857
2.84332
2.69673
2.56737
2.45436
2.35735
2.27621
2.21058
2.15944
2.12109
2.09333
2.07382
2.06041
2.05136
2.0454
2.04159
2.03951
2.03829
2.03854
2.0388
2.03947
2.04071
2.04217
2.04348
2.04514
2.0468
2.04828
11.0603
10.9594
10.8167
10.6188
10.3515
10.0038
9.5711
9.06006
8.489
7.88479
7.27646
6.68899
6.13973
5.63798
5.18655
4.78395
4.42642
4.10923
3.82756
3.57694
3.35348
3.15392
2.97558
2.81629
2.67431
2.54832
2.43749
2.34143
2.26008
2.19326
2.14032
2.09991
2.07016
2.04898
2.03433
2.02448
2.018
2.0138
2.01137
2.01032
2.01017
2.01077
2.01152
2.01295
2.01462
2.01625
2.01801
2.02
2.0219
2.02379
2.02567
2.02736
10.4089
10.0902
9.69221
9.21818
8.68173
8.10526
7.51506
6.93568
6.38589
5.8773
5.41504
4.99951
4.62825
4.29735
4.00245
3.73927
3.5039
3.29298
3.10371
2.93376
2.78125
2.64468
2.52288
2.41507
2.3209
2.24031
2.17324
2.11928
2.07742
2.04612
2.02356
2.00779
1.99709
1.99002
1.98559
1.98302
1.98184
1.98152
1.98238
1.98339
1.98464
1.98653
1.9885
1.99032
1.99257
1.99483
1.99702
1.9992
2.00135
2.00343
2.00548
2.00736
8.80187
8.25217
7.68321
7.11801
6.57533
6.06783
5.60221
5.18039
4.80109
4.46127
4.15716
3.8848
3.64048
3.42084
3.22302
3.04463
2.88371
2.73863
2.60813
2.49119
2.38714
2.29563
2.21664
2.15016
2.09596
2.05331
2.02096
1.9973
1.98056
1.96914
1.96168
1.95695
1.95416
1.95282
1.95268
1.95333
1.95464
1.95599
1.95804
1.9603
1.96247
1.96474
1.96726
1.9697
1.97217
1.97462
1.97702
1.97938
1.9817
1.98397
1.9862
1.98828
6.20318
5.7412
5.31966
4.93827
4.59477
4.28595
4.00827
3.75831
3.53287
3.32912
3.14469
2.97757
2.8261
2.68895
2.56504
2.45352
2.35382
2.26563
2.18894
2.1238
2.0701
2.0273
1.99439
1.97001
1.95261
1.94062
1.9327
1.92769
1.92484
1.92357
1.92337
1.92394
1.92544
1.92723
1.92908
1.93157
1.93406
1.93643
1.9392
1.94198
1.94469
1.94742
1.9501
1.95274
1.95535
1.95792
1.96045
1.96294
1.96538
1.9678
1.97006
4.69271
4.3839
4.10504
3.85304
3.62494
3.41809
3.23015
3.05916
2.90347
2.76173
2.63283
2.51589
2.41022
2.31535
2.23102
2.15724
2.09409
2.04153
1.99919
1.96624
1.94155
1.92373
1.91133
1.90312
1.89803
1.89507
1.89375
1.89348
1.89427
1.89574
1.89779
1.89976
1.90244
1.90527
1.90794
1.91074
1.91378
1.91673
1.91972
1.9227
1.92562
1.92851
1.93135
1.93416
1.93693
1.93967
1.94237
1.94504
1.94765
1.95024
1.95268
3.69363
3.48657
3.29776
3.12529
2.96759
2.82333
2.69142
2.57096
2.46125
2.36174
2.27206
2.19201
2.12162
2.06101
2.01017
1.96884
1.93637
1.91176
1.89383
1.88126
1.87289
1.8677
1.86471
1.86346
1.86345
1.86421
1.8657
1.86784
1.87041
1.87284
1.87594
1.87894
1.88183
1.88513
1.88841
1.89162
1.89486
1.89804
1.90119
1.90431
1.90739
1.91044
1.91344
1.91641
1.91935
1.92225
1.92512
1.92795
1.93072
1.93347
1.93608
2.87114
2.73814
2.61602
2.50407
2.40173
2.30859
2.22436
2.14892
2.08231
2.02467
1.97604
1.93621
1.90466
1.88054
1.86282
1.85034
1.84196
1.83677
1.83387
1.8327
1.8328
1.83363
1.8353
1.83758
1.84036
1.84296
1.84627
1.84961
1.85275
1.8561
1.85964
1.86308
1.86657
1.87004
1.87346
1.87684
1.88018
1.88348
1.88675
1.88998
1.89318
1.89634
1.89947
1.90256
1.90562
1.90864
1.91163
1.91456
1.91746
1.92023
2.43288
2.33795
2.25129
2.1727
2.1021
2.03958
1.98528
1.93925
1.90133
1.87111
1.84785
1.83064
1.81846
1.81027
1.80521
1.8025
1.80143
1.80169
1.80274
1.80459
1.80693
1.80982
1.81284
1.81613
1.8198
1.82325
1.82666
1.83046
1.83421
1.83791
1.84163
1.8453
1.84894
1.85253
1.85609
1.85961
1.8631
1.86655
1.86996
1.87335
1.87669
1.88001
1.88329
1.88653
1.88974
1.89291
1.89604
1.89912
1.90216
1.90507
2.11755
2.05196
1.99375
1.94306
1.89996
1.86432
1.83578
1.81371
1.79728
1.78563
1.7778
1.77299
1.77052
1.76966
1.77013
1.77148
1.77342
1.77596
1.77899
1.78251
1.78571
1.78958
1.79336
1.79702
1.80095
1.80495
1.80886
1.81282
1.81675
1.82064
1.82449
1.8283
1.83207
1.8358
1.83949
1.84315
1.84678
1.85037
1.85393
1.85746
1.86095
1.86441
1.86783
1.87122
1.87457
1.87788
1.88114
1.88436
1.88753
1.89057
1.89832
1.8584
1.82531
1.79874
1.77814
1.76276
1.75186
1.74457
1.74013
1.73798
1.73741
1.7381
1.73972
1.74184
1.74462
1.74779
1.75151
1.75502
1.75902
1.7632
1.76707
1.77106
1.77531
1.77948
1.78366
1.78785
1.79197
1.79606
1.80011
1.80412
1.80809
1.81203
1.81593
1.8198
1.82363
1.82742
1.83119
1.83492
1.83862
1.84228
1.84591
1.8495
1.85306
1.85658
1.86006
1.8635
1.86689
1.87023
1.87352
1.87669
1.76016
1.74124
1.72714
1.71717
1.71057
1.70665
1.7049
1.70471
1.70565
1.70757
1.70996
1.71297
1.71629
1.72012
1.72413
1.72811
1.73255
1.73673
1.74086
1.74535
1.74979
1.75417
1.75857
1.76293
1.76726
1.77156
1.77581
1.78001
1.78418
1.78832
1.79241
1.79648
1.80051
1.80451
1.80847
1.81239
1.81629
1.82015
1.82398
1.82777
1.83153
1.83525
1.83894
1.84258
1.84618
1.84974
1.85325
1.8567
1.86011
1.86338
1.68163
1.67585
1.67255
1.67128
1.67151
1.67279
1.67502
1.67776
1.68093
1.68451
1.68853
1.69296
1.69696
1.70157
1.70612
1.71047
1.71507
1.71974
1.72431
1.72896
1.73358
1.73813
1.74265
1.74713
1.75157
1.75597
1.76034
1.76466
1.76895
1.7732
1.77742
1.78161
1.78576
1.78988
1.79397
1.79802
1.80204
1.80603
1.80998
1.81389
1.81777
1.82161
1.82542
1.82918
1.83289
1.83656
1.84018
1.84373
1.84724
1.85061
1.63718
1.63787
1.63954
1.64209
1.64518
1.64858
1.6524
1.6566
1.6612
1.66563
1.67036
1.67524
1.67978
1.68447
1.68939
1.69422
1.69906
1.70389
1.70866
1.71341
1.71813
1.7228
1.72742
1.732
1.73655
1.74106
1.74554
1.74998
1.75438
1.75875
1.76309
1.76739
1.77166
1.7759
1.78011
1.78428
1.78841
1.79251
1.79658
1.80061
1.8046
1.80855
1.81247
1.81633
1.82015
1.82392
1.82764
1.83129
1.83489
1.83834
1.61225
1.61593
1.62
1.62442
1.62921
1.63401
1.63882
1.64392
1.64879
1.65362
1.65878
1.66384
1.66885
1.67391
1.67891
1.68387
1.6888
1.69368
1.69853
1.70334
1.70811
1.71283
1.71752
1.72218
1.7268
1.73138
1.73593
1.74044
1.74492
1.74937
1.75379
1.75817
1.76252
1.76684
1.77112
1.77536
1.77957
1.78375
1.78788
1.79198
1.79604
1.80005
1.80402
1.80793
1.81179
1.8156
1.81933
1.82301
1.82655
1.59199
1.59704
1.60205
1.6071
1.61238
1.61756
1.62258
1.62787
1.63317
1.63836
1.64364
1.64887
1.65405
1.65919
1.66429
1.66934
1.67436
1.67934
1.68428
1.68918
1.69404
1.69887
1.70366
1.70842
1.71314
1.71783
1.72248
1.7271
1.73169
1.73624
1.74076
1.74525
1.74971
1.75413
1.75851
1.76286
1.76717
1.77145
1.77568
1.77988
1.78403
1.78813
1.79219
1.79619
1.80014
1.80402
1.80783
1.81157
1.81518
1.57517
1.58066
1.58604
1.5913
1.59673
1.60225
1.60767
1.61312
1.61856
1.62393
1.62928
1.6346
1.63986
1.64509
1.65027
1.65542
1.66052
1.66559
1.67062
1.67562
1.68058
1.6855
1.69039
1.69524
1.70006
1.70485
1.70961
1.71433
1.71901
1.72367
1.72829
1.73287
1.73743
1.74194
1.74643
1.75087
1.75528
1.75965
1.76397
1.76826
1.77249
1.77668
1.78082
1.7849
1.78892
1.79287
1.79674
1.80055
1.80421
1.56537
1.5711
1.57673
1.58236
1.588
1.59358
1.59913
1.60464
1.6101
1.61553
1.62092
1.62627
1.63158
1.63684
1.64207
1.64726
1.65242
1.65754
1.66263
1.66768
1.67269
1.67768
1.68262
1.68754
1.69242
1.69727
1.70208
1.70686
1.71161
1.71632
1.721
1.72565
1.73026
1.73483
1.73937
1.74386
1.74831
1.75272
1.75709
1.7614
1.76567
1.76987
1.77402
1.7781
1.78212
1.78605
1.7899
1.7936
1.55138
1.55721
1.56299
1.56873
1.57444
1.5801
1.58573
1.59131
1.59685
1.60235
1.60781
1.61324
1.61862
1.62397
1.62928
1.63456
1.6398
1.64501
1.65018
1.65532
1.66042
1.66549
1.67053
1.67553
1.6805
1.68544
1.69034
1.69521
1.70005
1.70485
1.70961
1.71434
1.71904
1.72369
1.72831
1.73288
1.73741
1.7419
1.74634
1.75072
1.75505
1.75932
1.76353
1.76767
1.77173
1.77571
1.7796
1.78334
1.54401
1.54986
1.55567
1.56144
1.56717
1.57287
1.57852
1.58413
1.5897
1.59524
1.60074
1.6062
1.61163
1.61702
1.62238
1.6277
1.63299
1.63824
1.64346
1.64865
1.6538
1.65892
1.66401
1.66906
1.67408
1.67907
1.68402
1.68894
1.69382
1.69867
1.70348
1.70825
1.71298
1.71767
1.72232
1.72692
1.73147
1.73597
1.74042
1.74481
1.74914
1.7534
1.75758
1.76168
1.7657
1.76962
1.77338
1.53135
1.53726
1.54314
1.54897
1.55477
1.56053
1.56625
1.57193
1.57757
1.58318
1.58875
1.59429
1.59979
1.60526
1.61069
1.61609
1.62146
1.62679
1.63209
1.63735
1.64259
1.64778
1.65295
1.65808
1.66318
1.66824
1.67327
1.67826
1.68322
1.68814
1.69302
1.69786
1.70267
1.70742
1.71213
1.7168
1.72141
1.72597
1.73047
1.73491
1.73929
1.74359
1.74781
1.75195
1.75598
1.75992
1.76369
1.52517
1.53111
1.537
1.54286
1.54869
1.55447
1.56022
1.56593
1.57161
1.57725
1.58286
1.58843
1.59397
1.59948
1.60495
1.61039
1.61579
1.62117
1.62651
1.63181
1.63708
1.64232
1.64752
1.65269
1.65783
1.66293
1.66799
1.67302
1.678
1.68295
1.68786
1.69272
1.69754
1.70231
1.70703
1.71169
1.7163
1.72085
1.72534
1.72975
1.73408
1.73832
1.74248
1.74652
1.75047
1.75424
1.51356
1.51956
1.52551
1.53143
1.53732
1.54317
1.54898
1.55476
1.5605
1.56621
1.57188
1.57752
1.58313
1.58871
1.59425
1.59975
1.60523
1.61067
1.61608
1.62145
1.62679
1.6321
1.63737
1.6426
1.6478
1.65297
1.65809
1.66318
1.66823
1.67324
1.6782
1.68312
1.68799
1.69281
1.69758
1.70229
1.70694
1.71152
1.71604
1.72047
1.72482
1.72908
1.73325
1.7373
1.74125
1.74501
1.50241
1.50846
1.51448
1.52045
1.5264
1.53231
1.53818
1.54402
1.54983
1.5556
1.56134
1.56704
1.57271
1.57835
1.58395
1.58953
1.59506
1.60057
1.60604
1.61148
1.61688
1.62225
1.62758
1.63288
1.63814
1.64336
1.64854
1.65369
1.65879
1.66385
1.66887
1.67383
1.67875
1.68362
1.68842
1.69317
1.69785
1.70245
1.70699
1.71144
1.71581
1.72008
1.72425
1.7283
1.73224
1.73598
1.49169
1.4978
1.50387
1.5099
1.5159
1.52187
1.5278
1.5337
1.53956
1.54539
1.55119
1.55696
1.56269
1.56838
1.57405
1.57968
1.58528
1.59084
1.59637
1.60187
1.60733
1.61275
1.61814
1.62349
1.62881
1.63408
1.63932
1.64451
1.64967
1.65477
1.65983
1.66484
1.66979
1.67469
1.67952
1.68429
1.68899
1.69363
1.69818
1.70264
1.70702
1.71129
1.71546
1.7195
1.72341
1.72713
1.48139
1.48755
1.49367
1.49976
1.50581
1.51183
1.51782
1.52377
1.52969
1.53557
1.54143
1.54725
1.55303
1.55879
1.56451
1.57019
1.57584
1.58146
1.58705
1.59259
1.59811
1.60358
1.60902
1.61443
1.61979
1.62511
1.6304
1.63563
1.64082
1.64597
1.65106
1.65609
1.66107
1.666
1.67086
1.67565
1.68037
1.68502
1.68958
1.69405
1.69843
1.70269
1.70684
1.71086
1.71475
1.71843
1.47148
1.47768
1.48385
1.48999
1.49609
1.50216
1.5082
1.51421
1.52018
1.52611
1.53202
1.53789
1.54373
1.54953
1.5553
1.56104
1.56674
1.57241
1.57804
1.58364
1.5892
1.59472
1.60021
1.60566
1.61106
1.61642
1.62174
1.62701
1.63223
1.6374
1.64252
1.64759
1.65259
1.65754
1.66242
1.66723
1.67196
1.67661
1.68118
1.68564
1.69001
1.69426
1.69839
1.70238
1.70622
1.70986
1.46193
1.46818
1.4744
1.48058
1.48673
1.49285
1.49894
1.50499
1.51101
1.51699
1.52294
1.52886
1.53475
1.5406
1.54641
1.5522
1.55794
1.56366
1.56934
1.57498
1.58058
1.58614
1.59166
1.59714
1.60258
1.60797
1.61332
1.61862
1.62387
1.62907
1.63422
1.6393
1.64433
1.64929
1.65418
1.659
1.66373
1.66838
1.67294
1.6774
1.68174
1.68597
1.69007
1.69402
1.69782
1.7014
1.45903
1.46529
1.47151
1.47771
1.48387
1.49
1.49609
1.50215
1.50818
1.51418
1.52014
1.52607
1.53196
1.53782
1.54365
1.54944
1.55519
1.5609
1.56657
1.57221
1.5778
1.58335
1.58887
1.59433
1.59976
1.60513
1.61046
1.61573
1.62095
1.62611
1.63122
1.63625
1.64122
1.64612
1.65094
1.65567
1.66031
1.66485
1.66929
1.67361
1.6778
1.68186
1.68577
1.68951
1.69303
1.45019
1.45649
1.46276
1.46899
1.4752
1.48136
1.4875
1.4936
1.49967
1.50571
1.51171
1.51768
1.52361
1.5295
1.53536
1.54118
1.54696
1.5527
1.55841
1.56407
1.5697
1.57528
1.58082
1.58631
1.59176
1.59715
1.6025
1.60779
1.61302
1.6182
1.62331
1.62835
1.63332
1.63821
1.64302
1.64774
1.65237
1.65689
1.6613
1.66559
1.66974
1.67376
1.6776
1.68129
1.68473
1.44166
1.448
1.4543
1.46057
1.46681
1.47302
1.47919
1.48533
1.49143
1.4975
1.50353
1.50953
1.51549
1.52142
1.5273
1.53315
1.53897
1.54474
1.55047
1.55616
1.56181
1.56741
1.57297
1.57849
1.58395
1.58936
1.59472
1.60002
1.60526
1.61044
1.61555
1.62059
1.62556
1.63044
1.63524
1.63994
1.64455
1.64904
1.65342
1.65766
1.66177
1.66573
1.66951
1.67312
1.67649
1.43979
1.44612
1.45243
1.4587
1.46494
1.47114
1.47731
1.48344
1.48954
1.4956
1.50162
1.50761
1.51356
1.51948