/*--------------------------------*- C++ -*----------------------------------*\
| =========                 |                                                 |
| \\      /  F ield         | OpenFOAM: The Open Source CFD Toolbox           |
|  \\    /   O peration     | Version:  v1706                                 |
|   \\  /    A nd           | Web:      www.OpenFOAM.com                      |
|    \\/     M anipulation  |                                                 |
\*---------------------------------------------------------------------------*/
FoamFile
{
    version     2.0;
    format      ascii;
    class       volScalarField;
    location    "1.1e-05";
    object      mu;
}
// * * * * * * * * * * * * * * * * * * * * * * * * * * * * * * * * * * * * * //

dimensions      [1 -1 -1 0 0 0 0];


internalField   nonuniform List<scalar> 
30038
(
1.0351e-05
1.0351e-05
1.0351e-05
1.0351e-05
1.0351e-05
1.0351e-05
1.0351e-05
1.0351e-05
1.0351e-05
1.0351e-05
1.0351e-05
1.0351e-05
1.0351e-05
1.0351e-05
1.0351e-05
1.0351e-05
1.0351e-05
1.0351e-05
1.0351e-05
1.0351e-05
1.0351e-05
1.0351e-05
1.0351e-05
1.0351e-05
1.0351e-05
1.0351e-05
1.0351e-05
1.0351e-05
1.0351e-05
1.0351e-05
1.0351e-05
1.0351e-05
1.0351e-05
1.0351e-05
1.0351e-05
1.0351e-05
1.0351e-05
1.0351e-05
1.0351e-05
1.0351e-05
1.0351e-05
1.0351e-05
1.0351e-05
1.0351e-05
1.0351e-05
1.0351e-05
1.0351e-05
1.0351e-05
1.0351e-05
1.0351e-05
1.0351e-05
1.0351e-05
1.0351e-05
1.0351e-05
1.0351e-05
1.0351e-05
1.0351e-05
1.0351e-05
1.0351e-05
1.0351e-05
1.0351e-05
1.0351e-05
1.0351e-05
1.0351e-05
1.0351e-05
1.0351e-05
1.0351e-05
1.0351e-05
1.0351e-05
1.0351e-05
1.0351e-05
1.0351e-05
1.0351e-05
1.0351e-05
1.0351e-05
1.0351e-05
1.0351e-05
1.0351e-05
1.0351e-05
1.0351e-05
1.0351e-05
1.0351e-05
1.0351e-05
1.0351e-05
1.0351e-05
1.0351e-05
1.0351e-05
1.0351e-05
1.0351e-05
1.0351e-05
1.0351e-05
1.0351e-05
1.0351e-05
1.0351e-05
1.0351e-05
1.0351e-05
1.0351e-05
1.0351e-05
1.0351e-05
1.0351e-05
1.0351e-05
1.0351e-05
1.0351e-05
1.0351e-05
1.0351e-05
1.0351e-05
1.0351e-05
1.0351e-05
1.0351e-05
1.0351e-05
1.0351e-05
1.0351e-05
1.0351e-05
1.0351e-05
1.0351e-05
1.0351e-05
1.0351e-05
1.0351e-05
1.0351e-05
1.0351e-05
1.0351e-05
1.0351e-05
1.0351e-05
1.0351e-05
1.0351e-05
1.0351e-05
1.0351e-05
1.0351e-05
1.0351e-05
1.0351e-05
1.0351e-05
1.0351e-05
1.0351e-05
1.0351e-05
1.0351e-05
1.0351e-05
1.0351e-05
1.0351e-05
1.0351e-05
1.0351e-05
1.0351e-05
1.0351e-05
1.0351e-05
1.0351e-05
1.0351e-05
1.0351e-05
1.0351e-05
1.0351e-05
1.0351e-05
1.0351e-05
1.0351e-05
1.0351e-05
1.0351e-05
1.0351e-05
1.0351e-05
1.0351e-05
1.0351e-05
1.0351e-05
1.0351e-05
1.0351e-05
1.0351e-05
1.0351e-05
1.0351e-05
1.0351e-05
1.0351e-05
1.0351e-05
1.0351e-05
1.0351e-05
1.0351e-05
1.0351e-05
1.0351e-05
1.0351e-05
1.0351e-05
1.0351e-05
1.0351e-05
1.0351e-05
1.0351e-05
1.0351e-05
1.0351e-05
1.0351e-05
1.0351e-05
1.0351e-05
1.0351e-05
1.0351e-05
1.0351e-05
1.0351e-05
1.0351e-05
1.0351e-05
1.0351e-05
1.0351e-05
1.0351e-05
1.0351e-05
1.0351e-05
1.0351e-05
1.0351e-05
1.0351e-05
1.0351e-05
1.0351e-05
1.0351e-05
1.0351e-05
1.0351e-05
1.0351e-05
1.0351e-05
1.0351e-05
1.0351e-05
1.0351e-05
1.0351e-05
1.0351e-05
1.0351e-05
1.0351e-05
1.0351e-05
1.0351e-05
1.0351e-05
1.0351e-05
1.0351e-05
1.0351e-05
1.0351e-05
1.0351e-05
1.0351e-05
1.0351e-05
1.0351e-05
1.0351e-05
1.0351e-05
1.0351e-05
1.0351e-05
1.0351e-05
1.0351e-05
1.0351e-05
1.0351e-05
1.0351e-05
1.0351e-05
1.0351e-05
1.0351e-05
1.0351e-05
1.0351e-05
1.0351e-05
1.0351e-05
1.0351e-05
1.0351e-05
1.0351e-05
1.0351e-05
1.0351e-05
1.0351e-05
1.0351e-05
1.0351e-05
1.0351e-05
1.0351e-05
1.0351e-05
1.0351e-05
1.0351e-05
1.0351e-05
1.0351e-05
1.0351e-05
1.0351e-05
1.0351e-05
1.0351e-05
1.0351e-05
1.0351e-05
1.0351e-05
1.0351e-05
1.0351e-05
1.0351e-05
1.0351e-05
1.0351e-05
1.0351e-05
1.0351e-05
1.0351e-05
1.0351e-05
1.0351e-05
1.0351e-05
1.0351e-05
1.0351e-05
1.0351e-05
1.0351e-05
1.0351e-05
1.0351e-05
1.0351e-05
1.0351e-05
1.0351e-05
1.0351e-05
1.0351e-05
1.0351e-05
1.0351e-05
1.0351e-05
1.0351e-05
1.0351e-05
1.0351e-05
1.0351e-05
1.0351e-05
1.0351e-05
1.0351e-05
1.0351e-05
1.0351e-05
1.0351e-05
1.0351e-05
1.0351e-05
1.0351e-05
1.0351e-05
1.0351e-05
1.0351e-05
1.0351e-05
1.0351e-05
1.0351e-05
1.0351e-05
1.0351e-05
1.0351e-05
1.0351e-05
1.0351e-05
1.0351e-05
1.0351e-05
1.0351e-05
1.0351e-05
1.0351e-05
1.0351e-05
1.0351e-05
1.0351e-05
1.0351e-05
1.0351e-05
1.0351e-05
1.0351e-05
1.0351e-05
1.0351e-05
1.0351e-05
1.0351e-05
1.0351e-05
1.0351e-05
1.0351e-05
1.0351e-05
1.0351e-05
1.0351e-05
1.0351e-05
1.0351e-05
1.0351e-05
1.0351e-05
1.0351e-05
1.0351e-05
1.0351e-05
1.0351e-05
1.0351e-05
1.0351e-05
1.0351e-05
1.0351e-05
1.0351e-05
1.0351e-05
1.0351e-05
1.0351e-05
1.0351e-05
1.0351e-05
1.0351e-05
1.0351e-05
1.0351e-05
1.0351e-05
1.0351e-05
1.0351e-05
1.0351e-05
1.0351e-05
1.0351e-05
1.0351e-05
1.0351e-05
1.0351e-05
1.0351e-05
1.0351e-05
1.0351e-05
1.0351e-05
1.0351e-05
1.0351e-05
1.0351e-05
1.0351e-05
1.0351e-05
1.0351e-05
1.0351e-05
1.0351e-05
1.0351e-05
1.0351e-05
1.0351e-05
1.0351e-05
1.0351e-05
1.0351e-05
1.0351e-05
1.0351e-05
1.0351e-05
1.0351e-05
1.0351e-05
1.0351e-05
1.0351e-05
1.0351e-05
1.0351e-05
1.0351e-05
1.0351e-05
1.0351e-05
1.0351e-05
1.0351e-05
1.0351e-05
1.0351e-05
1.0351e-05
1.0351e-05
1.0351e-05
1.0351e-05
1.0351e-05
1.0351e-05
1.0351e-05
1.0351e-05
1.0351e-05
1.0351e-05
1.0351e-05
1.0351e-05
1.0351e-05
1.0351e-05
1.0351e-05
1.0351e-05
1.0351e-05
1.0351e-05
1.0351e-05
1.0351e-05
1.0351e-05
1.0351e-05
1.0351e-05
1.0351e-05
1.0351e-05
1.0351e-05
1.0351e-05
1.0351e-05
1.0351e-05
1.0351e-05
1.0351e-05
1.0351e-05
1.0351e-05
1.0351e-05
1.0351e-05
1.0351e-05
1.0351e-05
1.0351e-05
1.0351e-05
1.0351e-05
1.0351e-05
1.0351e-05
1.0351e-05
1.0351e-05
1.0351e-05
1.0351e-05
1.0351e-05
1.0351e-05
1.0351e-05
1.0351e-05
1.0351e-05
1.0351e-05
1.0351e-05
1.0351e-05
1.0351e-05
1.0351e-05
1.0351e-05
1.0351e-05
1.0351e-05
1.0351e-05
1.0351e-05
1.0351e-05
1.0351e-05
1.0351e-05
1.0351e-05
1.0351e-05
1.0351e-05
1.0351e-05
1.0351e-05
1.0351e-05
1.0351e-05
1.0351e-05
1.0351e-05
1.0351e-05
1.0351e-05
1.0351e-05
1.0351e-05
1.0351e-05
1.0351e-05
1.0351e-05
1.0351e-05
1.0351e-05
1.0351e-05
1.0351e-05
1.0351e-05
1.0351e-05
1.0351e-05
1.0351e-05
1.0351e-05
1.0351e-05
1.0351e-05
1.0351e-05
1.0351e-05
1.0351e-05
1.0351e-05
1.0351e-05
1.0351e-05
1.0351e-05
1.0351e-05
1.0351e-05
1.0351e-05
1.0351e-05
1.0351e-05
1.0351e-05
1.0351e-05
1.0351e-05
1.0351e-05
1.0351e-05
1.0351e-05
1.0351e-05
1.0351e-05
1.0351e-05
1.0351e-05
1.0351e-05
1.0351e-05
1.0351e-05
1.0351e-05
1.0351e-05
1.0351e-05
1.0351e-05
1.0351e-05
1.0351e-05
1.0351e-05
1.0351e-05
1.0351e-05
1.0351e-05
1.0351e-05
1.0351e-05
1.0351e-05
1.0351e-05
1.0351e-05
1.0351e-05
1.0351e-05
1.0351e-05
1.0351e-05
1.0351e-05
1.0351e-05
1.0351e-05
1.0351e-05
1.0351e-05
1.0351e-05
1.0351e-05
1.0351e-05
1.0351e-05
1.0351e-05
1.0351e-05
1.0351e-05
1.0351e-05
1.0351e-05
1.0351e-05
1.0351e-05
1.0351e-05
1.0351e-05
1.0351e-05
1.0351e-05
1.0351e-05
1.0351e-05
1.0351e-05
1.0351e-05
1.0351e-05
1.0351e-05
1.0351e-05
1.0351e-05
1.0351e-05
1.0351e-05
1.0351e-05
1.0351e-05
1.0351e-05
1.0351e-05
1.0351e-05
1.0351e-05
1.0351e-05
1.0351e-05
1.0351e-05
1.0351e-05
1.0351e-05
1.0351e-05
1.0351e-05
1.0351e-05
1.0351e-05
1.0351e-05
1.0351e-05
1.0351e-05
1.0351e-05
1.0351e-05
1.0351e-05
1.0351e-05
1.0351e-05
1.0351e-05
1.0351e-05
1.0351e-05
1.0351e-05
1.0351e-05
1.0351e-05
1.0351e-05
1.0351e-05
1.0351e-05
1.0351e-05
1.0351e-05
1.0351e-05
1.0351e-05
1.0351e-05
1.0351e-05
1.0351e-05
1.0351e-05
1.0351e-05
1.0351e-05
1.0351e-05
1.0351e-05
1.0351e-05
1.0351e-05
1.0351e-05
1.0351e-05
1.0351e-05
1.0351e-05
1.0351e-05
1.0351e-05
1.0351e-05
1.0351e-05
1.0351e-05
1.0351e-05
1.0351e-05
1.0351e-05
1.0351e-05
1.0351e-05
1.0351e-05
1.0351e-05
1.0351e-05
1.0351e-05
1.0351e-05
1.0351e-05
1.0351e-05
1.0351e-05
1.0351e-05
1.0351e-05
1.0351e-05
1.0351e-05
1.0351e-05
1.0351e-05
1.0351e-05
1.0351e-05
1.0351e-05
1.0351e-05
1.0351e-05
1.0351e-05
1.0351e-05
1.0351e-05
1.0351e-05
1.0351e-05
1.0351e-05
1.0351e-05
1.0351e-05
1.0351e-05
1.0351e-05
1.0351e-05
1.0351e-05
1.0351e-05
1.0351e-05
1.0351e-05
1.0351e-05
1.0351e-05
1.0351e-05
1.0351e-05
1.0351e-05
1.0351e-05
1.0351e-05
1.0351e-05
1.0351e-05
1.0351e-05
1.0351e-05
1.0351e-05
1.0351e-05
1.0351e-05
1.0351e-05
1.0351e-05
1.0351e-05
1.0351e-05
1.0351e-05
1.0351e-05
1.0351e-05
1.0351e-05
1.0351e-05
1.0351e-05
1.0351e-05
1.0351e-05
1.0351e-05
1.0351e-05
1.0351e-05
1.0351e-05
1.0351e-05
1.0351e-05
1.0351e-05
1.0351e-05
1.0351e-05
1.0351e-05
1.0351e-05
1.0351e-05
1.0351e-05
1.0351e-05
1.0351e-05
1.0351e-05
1.0351e-05
1.0351e-05
1.0351e-05
1.0351e-05
1.0351e-05
1.0351e-05
1.0351e-05
1.0351e-05
1.0351e-05
1.0351e-05
1.0351e-05
1.0351e-05
1.0351e-05
1.0351e-05
1.0351e-05
1.0351e-05
1.0351e-05
1.0351e-05
1.0351e-05
1.0351e-05
1.0351e-05
1.0351e-05
1.0351e-05
1.0351e-05
1.0351e-05
1.0351e-05
1.0351e-05
1.0351e-05
1.0351e-05
1.0351e-05
1.0351e-05
1.0351e-05
1.0351e-05
1.0351e-05
1.0351e-05
1.0351e-05
1.0351e-05
1.0351e-05
1.0351e-05
1.0351e-05
1.0351e-05
1.0351e-05
1.0351e-05
1.0351e-05
1.0351e-05
1.0351e-05
1.0351e-05
1.0351e-05
1.0351e-05
1.0351e-05
1.0351e-05
1.0351e-05
1.0351e-05
1.0351e-05
1.0351e-05
1.0351e-05
1.0351e-05
1.0351e-05
1.0351e-05
1.0351e-05
1.0351e-05
1.0351e-05
1.0351e-05
1.0351e-05
1.0351e-05
1.0351e-05
1.0351e-05
1.0351e-05
1.0351e-05
1.0351e-05
1.0351e-05
1.0351e-05
1.0351e-05
1.0351e-05
1.0351e-05
1.0351e-05
1.0351e-05
1.0351e-05
1.0351e-05
1.0351e-05
1.0351e-05
1.0351e-05
1.0351e-05
1.0351e-05
1.0351e-05
1.0351e-05
1.0351e-05
1.0351e-05
1.0351e-05
1.0351e-05
1.0351e-05
1.0351e-05
1.0351e-05
1.0351e-05
1.0351e-05
1.0351e-05
1.0351e-05
1.0351e-05
1.0351e-05
1.0351e-05
1.0351e-05
1.0351e-05
1.0351e-05
1.0351e-05
1.0351e-05
1.0351e-05
1.0351e-05
1.0351e-05
1.0351e-05
1.0351e-05
1.0351e-05
1.0351e-05
1.0351e-05
1.0351e-05
1.0351e-05
1.0351e-05
1.0351e-05
1.0351e-05
1.0351e-05
1.0351e-05
1.0351e-05
1.0351e-05
1.0351e-05
1.0351e-05
1.0351e-05
1.0351e-05
1.0351e-05
1.0351e-05
1.0351e-05
1.0351e-05
1.0351e-05
1.0351e-05
1.0351e-05
1.0351e-05
1.0351e-05
1.0351e-05
1.0351e-05
1.0351e-05
1.0351e-05
1.0351e-05
1.0351e-05
1.0351e-05
1.0351e-05
1.0351e-05
1.0351e-05
1.0351e-05
1.0351e-05
1.0351e-05
1.0351e-05
1.0351e-05
1.0351e-05
1.0351e-05
1.0351e-05
1.0351e-05
1.0351e-05
1.0351e-05
1.0351e-05
1.0351e-05
1.0351e-05
1.0351e-05
1.0351e-05
1.0351e-05
1.0351e-05
1.0351e-05
1.0351e-05
1.0351e-05
1.0351e-05
1.0351e-05
1.0351e-05
1.0351e-05
1.0351e-05
1.0351e-05
1.0351e-05
1.0351e-05
1.0351e-05
1.0351e-05
1.0351e-05
1.0351e-05
1.0351e-05
1.0351e-05
1.0351e-05
1.0351e-05
1.0351e-05
1.0351e-05
1.0351e-05
1.0351e-05
1.0351e-05
1.0351e-05
1.0351e-05
1.0351e-05
1.0351e-05
1.0351e-05
1.0351e-05
1.0351e-05
1.0351e-05
1.0351e-05
1.0351e-05
1.0351e-05
1.0351e-05
1.0351e-05
1.0351e-05
1.0351e-05
1.0351e-05
1.0351e-05
1.0351e-05
1.0351e-05
1.0351e-05
1.0351e-05
1.0351e-05
1.0351e-05
1.0351e-05
1.0351e-05
1.0351e-05
1.0351e-05
1.0351e-05
1.0351e-05
1.0351e-05
1.0351e-05
1.0351e-05
1.0351e-05
1.0351e-05
1.0351e-05
1.0351e-05
1.0351e-05
1.0351e-05
1.0351e-05
1.0351e-05
1.0351e-05
1.0351e-05
1.0351e-05
1.0351e-05
1.0351e-05
1.0351e-05
1.0351e-05
1.0351e-05
1.0351e-05
1.0351e-05
1.0351e-05
1.0351e-05
1.0351e-05
1.0351e-05
1.0351e-05
1.0351e-05
1.0351e-05
1.0351e-05
1.0351e-05
1.0351e-05
1.0351e-05
1.0351e-05
1.0351e-05
1.0351e-05
1.0351e-05
1.0351e-05
1.0351e-05
1.0351e-05
1.0351e-05
1.0351e-05
1.0351e-05
1.0351e-05
1.0351e-05
1.0351e-05
1.0351e-05
1.0351e-05
1.0351e-05
1.0351e-05
1.0351e-05
1.0351e-05
1.0351e-05
1.0351e-05
1.0351e-05
1.0351e-05
1.0351e-05
1.0351e-05
1.0351e-05
1.0351e-05
1.0351e-05
1.0351e-05
1.0351e-05
1.0351e-05
1.0351e-05
1.0351e-05
1.0351e-05
1.0351e-05
1.0351e-05
1.0351e-05
1.0351e-05
1.0351e-05
1.0351e-05
1.0351e-05
1.0351e-05
1.0351e-05
1.0351e-05
1.0351e-05
1.0351e-05
1.0351e-05
1.0351e-05
1.0351e-05
1.0351e-05
1.0351e-05
1.0351e-05
1.0351e-05
1.0351e-05
1.0351e-05
1.0351e-05
1.0351e-05
1.0351e-05
1.0351e-05
1.0351e-05
1.0351e-05
1.0351e-05
1.0351e-05
1.0351e-05
1.0351e-05
1.0351e-05
1.0351e-05
1.0351e-05
1.0351e-05
1.0351e-05
1.0351e-05
1.0351e-05
1.0351e-05
1.0351e-05
1.0351e-05
1.0351e-05
1.0351e-05
1.0351e-05
1.0351e-05
1.0351e-05
1.0351e-05
1.0351e-05
1.0351e-05
1.0351e-05
1.0351e-05
1.0351e-05
1.0351e-05
1.0351e-05
1.0351e-05
1.0351e-05
1.0351e-05
1.0351e-05
1.0351e-05
1.0351e-05
1.0351e-05
1.0351e-05
1.0351e-05
1.0351e-05
1.0351e-05
1.0351e-05
1.0351e-05
1.0351e-05
1.0351e-05
1.0351e-05
1.0351e-05
1.0351e-05
1.0351e-05
1.0351e-05
1.0351e-05
1.0351e-05
1.0351e-05
1.0351e-05
1.0351e-05
1.0351e-05
1.0351e-05
1.0351e-05
1.0351e-05
1.0351e-05
1.0351e-05
1.0351e-05
1.0351e-05
1.0351e-05
1.0351e-05
1.0351e-05
1.0351e-05
1.0351e-05
1.0351e-05
1.0351e-05
1.0351e-05
1.0351e-05
1.0351e-05
1.0351e-05
1.0351e-05
1.0351e-05
1.0351e-05
1.0351e-05
1.0351e-05
1.0351e-05
1.0351e-05
1.0351e-05
1.0351e-05
1.0351e-05
1.0351e-05
1.0351e-05
1.0351e-05
1.0351e-05
1.0351e-05
1.0351e-05
1.0351e-05
1.0351e-05
1.0351e-05
1.0351e-05
1.0351e-05
1.0351e-05
1.0351e-05
1.0351e-05
1.0351e-05
1.0351e-05
1.0351e-05
1.0351e-05
1.0351e-05
1.0351e-05
1.0351e-05
1.0351e-05
1.0351e-05
1.0351e-05
1.0351e-05
1.0351e-05
1.0351e-05
1.0351e-05
1.0351e-05
1.0351e-05
1.0351e-05
1.0351e-05
1.0351e-05
1.0351e-05
1.0351e-05
1.0351e-05
1.0351e-05
1.0351e-05
1.0351e-05
1.0351e-05
1.0351e-05
1.0351e-05
1.0351e-05
1.0351e-05
1.0351e-05
1.0351e-05
1.0351e-05
1.0351e-05
1.0351e-05
1.0351e-05
1.0351e-05
1.0351e-05
1.0351e-05
1.0351e-05
1.0351e-05
1.0351e-05
1.0351e-05
1.0351e-05
1.0351e-05
1.0351e-05
1.0351e-05
1.0351e-05
1.0351e-05
1.0351e-05
1.0351e-05
1.0351e-05
1.0351e-05
1.0351e-05
1.0351e-05
1.0351e-05
1.0351e-05
1.0351e-05
1.0351e-05
1.0351e-05
1.0351e-05
1.0351e-05
1.0351e-05
1.0351e-05
1.0351e-05
1.0351e-05
1.0351e-05
1.0351e-05
1.0351e-05
1.0351e-05
1.0351e-05
1.0351e-05
1.0351e-05
1.0351e-05
1.0351e-05
1.0351e-05
1.0351e-05
1.0351e-05
1.0351e-05
1.0351e-05
1.0351e-05
1.0351e-05
1.0351e-05
1.0351e-05
1.0351e-05
1.0351e-05
1.0351e-05
1.0351e-05
1.0351e-05
1.0351e-05
1.0351e-05
1.0351e-05
1.0351e-05
1.0351e-05
1.0351e-05
1.0351e-05
1.0351e-05
1.0351e-05
1.0351e-05
1.0351e-05
1.0351e-05
1.0351e-05
1.0351e-05
1.0351e-05
1.0351e-05
1.0351e-05
1.0351e-05
1.0351e-05
1.0351e-05
1.0351e-05
1.0351e-05
1.0351e-05
1.0351e-05
1.0351e-05
1.0351e-05
1.0351e-05
1.0351e-05
1.0351e-05
1.0351e-05
1.0351e-05
1.0351e-05
1.0351e-05
1.0351e-05
1.0351e-05
1.0351e-05
1.0351e-05
1.0351e-05
1.0351e-05
1.0351e-05
1.0351e-05
1.0351e-05
1.0351e-05
1.0351e-05
1.0351e-05
1.0351e-05
1.0351e-05
1.0351e-05
1.0351e-05
1.0351e-05
1.0351e-05
1.0351e-05
1.03511e-05
1.03512e-05
1.0351e-05
1.0351e-05
1.0351e-05
1.0351e-05
1.0351e-05
1.0351e-05
1.0351e-05
1.0351e-05
1.0351e-05
1.0351e-05
1.0351e-05
1.0351e-05
1.0351e-05
1.0351e-05
1.0351e-05
1.0351e-05
1.0351e-05
1.0351e-05
1.0351e-05
1.0351e-05
1.0351e-05
1.0351e-05
1.0351e-05
1.0351e-05
1.0351e-05
1.0351e-05
1.0351e-05
1.0351e-05
1.0351e-05
1.0351e-05
1.0351e-05
1.0351e-05
1.0351e-05
1.0351e-05
1.0351e-05
1.0351e-05
1.0351e-05
1.0351e-05
1.0351e-05
1.0351e-05
1.0351e-05
1.0351e-05
1.0351e-05
1.0351e-05
1.0351e-05
1.03511e-05
1.03511e-05
1.03513e-05
1.03515e-05
1.0352e-05
1.0351e-05
1.0351e-05
1.0351e-05
1.0351e-05
1.0351e-05
1.0351e-05
1.0351e-05
1.0351e-05
1.0351e-05
1.0351e-05
1.0351e-05
1.0351e-05
1.0351e-05
1.0351e-05
1.0351e-05
1.0351e-05
1.0351e-05
1.0351e-05
1.0351e-05
1.0351e-05
1.0351e-05
1.0351e-05
1.0351e-05
1.0351e-05
1.0351e-05
1.0351e-05
1.0351e-05
1.0351e-05
1.0351e-05
1.0351e-05
1.0351e-05
1.0351e-05
1.0351e-05
1.0351e-05
1.0351e-05
1.0351e-05
1.0351e-05
1.0351e-05
1.0351e-05
1.0351e-05
1.0351e-05
1.0351e-05
1.03511e-05
1.03511e-05
1.03513e-05
1.03515e-05
1.03519e-05
1.03526e-05
1.03539e-05
1.03565e-05
1.0351e-05
1.0351e-05
1.0351e-05
1.0351e-05
1.0351e-05
1.0351e-05
1.0351e-05
1.0351e-05
1.0351e-05
1.0351e-05
1.0351e-05
1.0351e-05
1.0351e-05
1.0351e-05
1.0351e-05
1.0351e-05
1.0351e-05
1.0351e-05
1.0351e-05
1.0351e-05
1.0351e-05
1.0351e-05
1.0351e-05
1.0351e-05
1.0351e-05
1.0351e-05
1.0351e-05
1.0351e-05
1.0351e-05
1.0351e-05
1.0351e-05
1.0351e-05
1.0351e-05
1.0351e-05
1.0351e-05
1.0351e-05
1.0351e-05
1.0351e-05
1.03511e-05
1.03511e-05
1.03512e-05
1.03513e-05
1.03515e-05
1.03518e-05
1.03525e-05
1.03537e-05
1.03559e-05
1.03599e-05
1.03672e-05
1.03816e-05
1.0351e-05
1.0351e-05
1.0351e-05
1.0351e-05
1.0351e-05
1.0351e-05
1.0351e-05
1.0351e-05
1.0351e-05
1.0351e-05
1.0351e-05
1.0351e-05
1.0351e-05
1.0351e-05
1.0351e-05
1.0351e-05
1.0351e-05
1.0351e-05
1.0351e-05
1.0351e-05
1.0351e-05
1.0351e-05
1.0351e-05
1.0351e-05
1.0351e-05
1.0351e-05
1.0351e-05
1.0351e-05
1.0351e-05
1.0351e-05
1.0351e-05
1.0351e-05
1.0351e-05
1.0351e-05
1.0351e-05
1.03511e-05
1.03511e-05
1.03512e-05
1.03513e-05
1.03515e-05
1.03519e-05
1.03525e-05
1.03537e-05
1.03557e-05
1.03595e-05
1.03661e-05
1.03782e-05
1.04e-05
1.044e-05
1.05166e-05
1.0351e-05
1.0351e-05
1.0351e-05
1.0351e-05
1.0351e-05
1.0351e-05
1.0351e-05
1.0351e-05
1.0351e-05
1.0351e-05
1.0351e-05
1.0351e-05
1.0351e-05
1.0351e-05
1.0351e-05
1.0351e-05
1.0351e-05
1.0351e-05
1.0351e-05
1.0351e-05
1.0351e-05
1.0351e-05
1.0351e-05
1.0351e-05
1.0351e-05
1.0351e-05
1.0351e-05
1.0351e-05
1.0351e-05
1.0351e-05
1.0351e-05
1.0351e-05
1.03511e-05
1.03511e-05
1.03512e-05
1.03513e-05
1.03515e-05
1.03519e-05
1.03525e-05
1.03537e-05
1.03557e-05
1.03593e-05
1.03657e-05
1.03771e-05
1.03973e-05
1.04334e-05
1.04978e-05
1.06127e-05
1.08176e-05
1.11883e-05
1.0351e-05
1.0351e-05
1.0351e-05
1.0351e-05
1.0351e-05
1.0351e-05
1.0351e-05
1.0351e-05
1.0351e-05
1.0351e-05
1.0351e-05
1.0351e-05
1.0351e-05
1.0351e-05
1.0351e-05
1.0351e-05
1.0351e-05
1.0351e-05
1.0351e-05
1.0351e-05
1.0351e-05
1.0351e-05
1.0351e-05
1.0351e-05
1.0351e-05
1.0351e-05
1.0351e-05
1.0351e-05
1.0351e-05
1.03511e-05
1.03511e-05
1.03512e-05
1.03513e-05
1.03516e-05
1.03519e-05
1.03526e-05
1.03538e-05
1.03559e-05
1.03594e-05
1.03657e-05
1.03767e-05
1.03961e-05
1.04302e-05
1.04903e-05
1.05959e-05
1.07801e-05
1.10974e-05
1.16323e-05
1.25052e-05
1.38747e-05
1.0351e-05
1.0351e-05
1.0351e-05
1.0351e-05
1.0351e-05
1.0351e-05
1.0351e-05
1.0351e-05
1.0351e-05
1.0351e-05
1.0351e-05
1.0351e-05
1.0351e-05
1.0351e-05
1.0351e-05
1.0351e-05
1.0351e-05
1.0351e-05
1.0351e-05
1.0351e-05
1.0351e-05
1.0351e-05
1.0351e-05
1.0351e-05
1.0351e-05
1.0351e-05
1.03511e-05
1.03511e-05
1.03512e-05
1.03514e-05
1.03516e-05
1.0352e-05
1.03528e-05
1.0354e-05
1.03561e-05
1.03598e-05
1.03661e-05
1.03771e-05
1.03961e-05
1.04292e-05
1.04869e-05
1.05868e-05
1.07593e-05
1.10531e-05
1.1543e-05
1.2333e-05
1.35476e-05
1.53067e-05
1.76923e-05
2.07178e-05
1.0351e-05
1.0351e-05
1.0351e-05
1.0351e-05
1.0351e-05
1.0351e-05
1.0351e-05
1.0351e-05
1.0351e-05
1.0351e-05
1.0351e-05
1.0351e-05
1.0351e-05
1.0351e-05
1.0351e-05
1.0351e-05
1.0351e-05
1.0351e-05
1.0351e-05
1.0351e-05
1.0351e-05
1.0351e-05
1.03511e-05
1.03511e-05
1.03512e-05
1.03513e-05
1.03514e-05
1.03517e-05
1.03522e-05
1.03529e-05
1.03543e-05
1.03565e-05
1.03604e-05
1.03669e-05
1.03781e-05
1.03973e-05
1.04303e-05
1.0487e-05
1.05841e-05
1.07497e-05
1.10287e-05
1.14897e-05
1.22276e-05
1.33573e-05
1.49909e-05
1.72044e-05
2.00092e-05
2.3349e-05
2.71212e-05
3.11943e-05
1.0351e-05
1.0351e-05
1.0351e-05
1.0351e-05
1.0351e-05
1.0351e-05
1.0351e-05
1.0351e-05
1.0351e-05
1.0351e-05
1.0351e-05
1.0351e-05
1.0351e-05
1.0351e-05
1.0351e-05
1.0351e-05
1.0351e-05
1.0351e-05
1.0351e-05
1.03511e-05
1.03511e-05
1.03512e-05
1.03513e-05
1.03515e-05
1.03518e-05
1.03523e-05
1.03532e-05
1.03547e-05
1.03571e-05
1.03612e-05
1.03682e-05
1.03799e-05
1.03998e-05
1.04335e-05
1.04907e-05
1.05875e-05
1.07505e-05
1.10219e-05
1.14655e-05
1.21695e-05
1.32407e-05
1.47854e-05
1.6879e-05
1.95392e-05
2.27184e-05
2.63188e-05
3.02186e-05
3.4297e-05
3.84521e-05
4.25872e-05
1.0351e-05
1.0351e-05
1.0351e-05
1.0351e-05
1.0351e-05
1.0351e-05
1.0351e-05
1.0351e-05
1.0351e-05
1.0351e-05
1.0351e-05
1.0351e-05
1.0351e-05
1.0351e-05
1.0351e-05
1.03511e-05
1.03511e-05
1.03511e-05
1.03512e-05
1.03514e-05
1.03516e-05
1.0352e-05
1.03526e-05
1.03536e-05
1.03552e-05
1.0358e-05
1.03625e-05
1.037e-05
1.03827e-05
1.04038e-05
1.04391e-05
1.04982e-05
1.05971e-05
1.07615e-05
1.10318e-05
1.14685e-05
1.21541e-05
1.31886e-05
1.46717e-05
1.66765e-05
1.92242e-05
2.22764e-05
2.57461e-05
2.95205e-05
3.3483e-05
3.75278e-05
4.15654e-05
4.55169e-05
4.93154e-05
5.29159e-05
1.0351e-05
1.0351e-05
1.0351e-05
1.0351e-05
1.0351e-05
1.0351e-05
1.0351e-05
1.0351e-05
1.0351e-05
1.0351e-05
1.0351e-05
1.0351e-05
1.03511e-05
1.03511e-05
1.03512e-05
1.03513e-05
1.03515e-05
1.03517e-05
1.03522e-05
1.03529e-05
1.03541e-05
1.0356e-05
1.03591e-05
1.03642e-05
1.03727e-05
1.03865e-05
1.04095e-05
1.04474e-05
1.05102e-05
1.06137e-05
1.07835e-05
1.10591e-05
1.14985e-05
1.21801e-05
1.31975e-05
1.46436e-05
1.65871e-05
1.90498e-05
2.19989e-05
2.53566e-05
2.90198e-05
3.28797e-05
3.68354e-05
4.08006e-05
4.46996e-05
4.84626e-05
5.20331e-05
5.53637e-05
5.83941e-05
6.1074e-05
1.0351e-05
1.0351e-05
1.0351e-05
1.0351e-05
1.0351e-05
1.0351e-05
1.0351e-05
1.0351e-05
1.03511e-05
1.03511e-05
1.03512e-05
1.03512e-05
1.03514e-05
1.03516e-05
1.03519e-05
1.03525e-05
1.03534e-05
1.03548e-05
1.0357e-05
1.03607e-05
1.03666e-05
1.03762e-05
1.03919e-05
1.04175e-05
1.04593e-05
1.05274e-05
1.06384e-05
1.0818e-05
1.11055e-05
1.15574e-05
1.22486e-05
1.32672e-05
1.46989e-05
1.66065e-05
1.90096e-05
2.18783e-05
2.51416e-05
2.87049e-05
3.24676e-05
3.63352e-05
4.02259e-05
4.407e-05
4.78019e-05
5.13641e-05
5.47089e-05
5.77872e-05
6.05355e-05
6.28908e-05
6.48092e-05
6.63199e-05
1.0351e-05
1.0351e-05
1.0351e-05
1.0351e-05
1.03511e-05
1.03511e-05
1.03511e-05
1.03512e-05
1.03513e-05
1.03515e-05
1.03518e-05
1.03522e-05
1.03529e-05
1.0354e-05
1.03557e-05
1.03585e-05
1.03629e-05
1.03699e-05
1.03812e-05
1.03993e-05
1.04285e-05
1.04756e-05
1.05515e-05
1.06733e-05
1.08677e-05
1.11742e-05
1.16487e-05
1.23634e-05
1.34007e-05
1.48393e-05
1.67344e-05
1.91014e-05
2.19111e-05
2.50972e-05
2.85726e-05
3.22446e-05
3.60256e-05
3.98386e-05
4.36186e-05
4.73064e-05
5.08462e-05
5.41912e-05
5.7299e-05
6.0118e-05
6.25858e-05
6.46511e-05
6.62947e-05
6.75454e-05
6.84555e-05
6.91153e-05
1.0351e-05
1.03511e-05
1.03511e-05
1.03511e-05
1.03512e-05
1.03513e-05
1.03514e-05
1.03517e-05
1.0352e-05
1.03526e-05
1.03535e-05
1.03549e-05
1.03571e-05
1.03605e-05
1.03659e-05
1.03744e-05
1.0388e-05
1.04094e-05
1.04436e-05
1.0498e-05
1.05844e-05
1.07213e-05
1.09363e-05
1.12702e-05
1.17784e-05
1.25307e-05
1.36044e-05
1.50698e-05
1.69739e-05
1.93263e-05
2.20964e-05
2.52213e-05
2.86205e-05
3.22085e-05
3.59047e-05
3.96377e-05
4.33469e-05
4.69794e-05
5.04829e-05
5.38115e-05
5.69262e-05
5.97849e-05
6.23338e-05
6.45175e-05
6.63028e-05
6.76934e-05
6.8731e-05
6.9476e-05
7.00001e-05
7.03607e-05
7.06184e-05
1.03512e-05
1.03513e-05
1.03514e-05
1.03516e-05
1.0352e-05
1.03524e-05
1.03532e-05
1.03544e-05
1.03562e-05
1.0359e-05
1.03634e-05
1.03702e-05
1.03808e-05
1.03974e-05
1.04235e-05
1.04644e-05
1.05286e-05
1.06293e-05
1.07865e-05
1.10295e-05
1.14004e-05
1.19549e-05
1.27602e-05
1.38877e-05
1.53991e-05
1.73318e-05
1.96885e-05
2.2436e-05
2.5514e-05
2.88473e-05
3.23578e-05
3.5972e-05
3.96244e-05
4.32587e-05
4.68269e-05
5.02822e-05
5.35803e-05
5.66834e-05
5.95558e-05
6.21529e-05
6.44226e-05
6.63231e-05
6.78414e-05
6.90004e-05
6.98502e-05
7.04534e-05
7.08727e-05
7.1159e-05
7.1357e-05
7.14929e-05
7.15878e-05
1.03516e-05
1.03519e-05
1.03524e-05
1.0353e-05
1.03541e-05
1.03557e-05
1.03581e-05
1.03618e-05
1.03675e-05
1.03762e-05
1.03897e-05
1.04106e-05
1.0443e-05
1.04931e-05
1.05708e-05
1.06907e-05
1.08749e-05
1.11551e-05
1.15749e-05
1.21899e-05
1.30647e-05
1.42637e-05
1.58391e-05
1.7818e-05
2.0195e-05
2.29343e-05
2.5977e-05
2.92535e-05
3.26925e-05
3.62273e-05
3.97986e-05
4.33549e-05
4.6852e-05
5.02487e-05
5.35034e-05
5.65795e-05
5.94451e-05
6.20635e-05
6.43888e-05
6.63761e-05
6.80009e-05
6.92702e-05
7.02213e-05
7.09075e-05
7.13888e-05
7.17192e-05
7.19446e-05
7.20976e-05
7.21976e-05
7.22629e-05
7.23176e-05
7.23636e-05
1.0354e-05
1.03554e-05
1.03576e-05
1.03609e-05
1.03659e-05
1.03735e-05
1.0385e-05
1.04026e-05
1.04295e-05
1.04706e-05
1.05334e-05
1.06292e-05
1.07751e-05
1.09953e-05
1.13242e-05
1.18071e-05
1.24991e-05
1.3461e-05
1.47493e-05
1.64053e-05
1.84452e-05
2.08556e-05
2.35976e-05
2.66142e-05
2.98408e-05
3.32126e-05
3.66701e-05
4.01598e-05
4.3635e-05
4.70555e-05
5.03849e-05
5.35853e-05
5.66219e-05
5.94644e-05
6.20821e-05
6.44357e-05
6.6482e-05
6.81901e-05
6.95539e-05
7.05969e-05
7.13638e-05
7.19091e-05
7.22875e-05
7.25434e-05
7.27158e-05
7.28296e-05
7.29e-05
7.29465e-05
7.29874e-05
7.30095e-05
7.30044e-05
7.29911e-05
1.03652e-05
1.03721e-05
1.03824e-05
1.0398e-05
1.04214e-05
1.04567e-05
1.051e-05
1.05903e-05
1.07111e-05
1.08919e-05
1.11599e-05
1.15521e-05
1.21151e-05
1.29028e-05
1.39703e-05
1.53649e-05
1.7116e-05
1.92284e-05
2.16815e-05
2.44336e-05
2.743e-05
3.0611e-05
3.39186e-05
3.72998e-05
4.07072e-05
4.40989e-05
4.74385e-05
5.06934e-05
5.38302e-05
5.68157e-05
5.96213e-05
6.22199e-05
6.4579e-05
6.66591e-05
6.8426e-05
6.9865e-05
7.09879e-05
7.18297e-05
7.24374e-05
7.28629e-05
7.31533e-05
7.33475e-05
7.34761e-05
7.35543e-05
7.35989e-05
7.36327e-05
7.36585e-05
7.36548e-05
7.36381e-05
7.36102e-05
7.35734e-05
7.35362e-05
1.04174e-05
1.04492e-05
1.04967e-05
1.05672e-05
1.0672e-05
1.0827e-05
1.10548e-05
1.13859e-05
1.18595e-05
1.25228e-05
1.34264e-05
1.46182e-05
1.61343e-05
1.79916e-05
2.01843e-05
2.26851e-05
2.54507e-05
2.84293e-05
3.15666e-05
3.48111e-05
3.81162e-05
4.14401e-05
4.47458e-05
4.80004e-05
5.11746e-05
5.42393e-05
5.71637e-05
5.99205e-05
6.24852e-05
6.48304e-05
6.69214e-05
6.87241e-05
7.02184e-05
7.14063e-05
7.23127e-05
7.29781e-05
7.34504e-05
7.3776e-05
7.39927e-05
7.41348e-05
7.42242e-05
7.4272e-05
7.42987e-05
7.43208e-05
7.43234e-05
7.43061e-05
7.42758e-05
7.42339e-05
7.41882e-05
7.41414e-05
7.40964e-05
7.4053e-05
1.06513e-05
1.07904e-05
1.09926e-05
1.12837e-05
1.16973e-05
1.22744e-05
1.30605e-05
1.4101e-05
1.54342e-05
1.70837e-05
1.9054e-05
2.13297e-05
2.38785e-05
2.66572e-05
2.96172e-05
3.27101e-05
3.58908e-05
3.91186e-05
4.23571e-05
4.55738e-05
4.87394e-05
5.18277e-05
5.48129e-05
5.76672e-05
6.03647e-05
6.28829e-05
6.51982e-05
6.72805e-05
6.90979e-05
7.0627e-05
7.18627e-05
7.2822e-05
7.35384e-05
7.40537e-05
7.44118e-05
7.46528e-05
7.481e-05
7.4909e-05
7.49614e-05
7.49852e-05
7.49994e-05
7.50033e-05
7.4987e-05
7.49553e-05
7.49129e-05
7.48618e-05
7.48079e-05
7.47536e-05
7.47004e-05
7.46474e-05
7.45957e-05
7.45454e-05
1.16065e-05
1.21268e-05
1.28325e-05
1.37653e-05
1.49625e-05
1.64506e-05
1.82402e-05
2.03246e-05
2.26806e-05
2.52731e-05
2.80602e-05
3.09978e-05
3.40432e-05
3.71575e-05
4.03055e-05
4.34561e-05
4.65806e-05
4.96533e-05
5.26506e-05
5.555e-05
5.83263e-05
6.09553e-05
6.3416e-05
6.56877e-05
6.77446e-05
6.95573e-05
7.11018e-05
7.23685e-05
7.33672e-05
7.41244e-05
7.46767e-05
7.50654e-05
7.53298e-05
7.55013e-05
7.56078e-05
7.56682e-05
7.56924e-05
7.56979e-05
7.56971e-05
7.56842e-05
7.56513e-05
7.56057e-05
7.55509e-05
7.5491e-05
7.54293e-05
7.53688e-05
7.53085e-05
7.52481e-05
7.51884e-05
7.51287e-05
7.50697e-05
7.50114e-05
1.46803e-05
1.60497e-05
1.77001e-05
1.96299e-05
2.18229e-05
2.42508e-05
2.6878e-05
2.96653e-05
3.25737e-05
3.55663e-05
3.861e-05
4.16749e-05
4.47343e-05
4.77632e-05
5.0739e-05
5.36408e-05
5.64485e-05
5.91395e-05
6.16916e-05
6.40851e-05
6.63016e-05
6.83187e-05
7.011e-05
7.16522e-05
7.29328e-05
7.39561e-05
7.47431e-05
7.53255e-05
7.57401e-05
7.60242e-05
7.621e-05
7.63247e-05
7.63911e-05
7.64165e-05
7.64159e-05
7.6409e-05
7.63943e-05
7.63603e-05
7.63119e-05
7.62556e-05
7.6191e-05
7.61229e-05
7.60544e-05
7.59867e-05
7.59188e-05
7.58516e-05
7.57847e-05
7.57177e-05
7.56507e-05
7.55834e-05
7.55165e-05
7.545e-05
2.35643e-05
2.60503e-05
2.8699e-05
3.14754e-05
3.43456e-05
3.72785e-05
4.02462e-05
4.32236e-05
4.61879e-05
4.91175e-05
5.19925e-05
5.47942e-05
5.75047e-05
6.0104e-05
6.25716e-05
6.48892e-05
6.70402e-05
6.90052e-05
7.07608e-05
7.22845e-05
7.35628e-05
7.45965e-05
7.54017e-05
7.6005e-05
7.64391e-05
7.67398e-05
7.69382e-05
7.70597e-05
7.71291e-05
7.71582e-05
7.7154e-05
7.71399e-05
7.71195e-05
7.70861e-05
7.70346e-05
7.69743e-05
7.69057e-05
7.68313e-05
7.67556e-05
7.6681e-05
7.66064e-05
7.65318e-05
7.64577e-05
7.63836e-05
7.63095e-05
7.62354e-05
7.61609e-05
7.60861e-05
7.60109e-05
7.59358e-05
7.58608e-05
3.34904e-05
3.63119e-05
3.9177e-05
4.20625e-05
4.49475e-05
4.78123e-05
5.06384e-05
5.34083e-05
5.61054e-05
5.87138e-05
6.12155e-05
6.35918e-05
6.58259e-05
6.79026e-05
6.98049e-05
7.15118e-05
7.30028e-05
7.42641e-05
7.52942e-05
7.61052e-05
7.67196e-05
7.71667e-05
7.74795e-05
7.76867e-05
7.78137e-05
7.7886e-05
7.79165e-05
7.79092e-05
7.78895e-05
7.78618e-05
7.78245e-05
7.77708e-05
7.77067e-05
7.76357e-05
7.75564e-05
7.74742e-05
7.73917e-05
7.73097e-05
7.72275e-05
7.71462e-05
7.70654e-05
7.69845e-05
7.69036e-05
7.68225e-05
7.67411e-05
7.66592e-05
7.65769e-05
7.64941e-05
7.64107e-05
7.63273e-05
7.62438e-05
4.40538e-05
4.68407e-05
4.96014e-05
5.23197e-05
5.49801e-05
5.75683e-05
6.00699e-05
6.24686e-05
6.47474e-05
6.6891e-05
6.88856e-05
7.07158e-05
7.23632e-05
7.38089e-05
7.50398e-05
7.60531e-05
7.6858e-05
7.74738e-05
7.79263e-05
7.82449e-05
7.84573e-05
7.85882e-05
7.86615e-05
7.86908e-05
7.86831e-05
7.86581e-05
7.86215e-05
7.85777e-05
7.85247e-05
7.84553e-05
7.8379e-05
7.82953e-05
7.82067e-05
7.81172e-05
7.80285e-05
7.79398e-05
7.78511e-05
7.7763e-05
7.7675e-05
7.75871e-05
7.74994e-05
7.74115e-05
7.73233e-05
7.72347e-05
7.71455e-05
7.70559e-05
7.69656e-05
7.68747e-05
7.67831e-05
7.66913e-05
7.65992e-05
5.67009e-05
5.91759e-05
6.15662e-05
6.38569e-05
6.60325e-05
6.80792e-05
6.99844e-05
7.17345e-05
7.33129e-05
7.47024e-05
7.5891e-05
7.68755e-05
7.76631e-05
7.82704e-05
7.87201e-05
7.90388e-05
7.92525e-05
7.93841e-05
7.94559e-05
7.9483e-05
7.94742e-05
7.94434e-05
7.93986e-05
7.93482e-05
7.92906e-05
7.92172e-05
7.91358e-05
7.90495e-05
7.89555e-05
7.8859e-05
7.87625e-05
7.86666e-05
7.85704e-05
7.84753e-05
7.83808e-05
7.82862e-05
7.81917e-05
7.80971e-05
7.80024e-05
7.79074e-05
7.78121e-05
7.77163e-05
7.76199e-05
7.7523e-05
7.74253e-05
7.73269e-05
7.72279e-05
7.7128e-05
7.70279e-05
7.69273e-05
6.53724e-05
6.74396e-05
6.93837e-05
7.11933e-05
7.28561e-05
7.4357e-05
7.56808e-05