/*--------------------------------*- C++ -*----------------------------------*\
| =========                 |                                                 |
| \\      /  F ield         | OpenFOAM: The Open Source CFD Toolbox           |
|  \\    /   O peration     | Version:  v1706                                 |
|   \\  /    A nd           | Web:      www.OpenFOAM.com                      |
|    \\/     M anipulation  |                                                 |
\*---------------------------------------------------------------------------*/
FoamFile
{
    version     2.0;
    format      ascii;
    class       volScalarField;
    location    "1.1e-05";
    object      p;
}
// * * * * * * * * * * * * * * * * * * * * * * * * * * * * * * * * * * * * * //

dimensions      [1 -1 -2 0 0 0 0];


internalField   nonuniform List<scalar> 
30038
(
21.9139
21.9139
21.9139
21.9139
21.9139
21.9139
21.9139
21.9139
21.9139
21.9139
21.9139
21.9139
21.9139
21.9139
21.9139
21.9139
21.9139
21.9139
21.9139
21.9139
21.9139
21.9139
21.9139
21.9139
21.9139
21.9139
21.9139
21.9139
21.9139
21.9139
21.9139
21.9139
21.9139
21.9139
21.9139
21.9139
21.9139
21.9139
21.9139
21.9139
21.9139
21.9139
21.9139
21.9139
21.9139
21.9139
21.9139
21.9139
21.9139
21.9139
21.9139
21.9139
21.9139
21.9139
21.9139
21.9139
21.9139
21.9139
21.9139
21.9139
21.9139
21.9139
21.9139
21.9139
21.9139
21.9139
21.9139
21.9139
21.9139
21.9139
21.9139
21.9139
21.9139
21.9139
21.9139
21.9139
21.9139
21.9139
21.9139
21.9139
21.9139
21.9139
21.9139
21.9139
21.9139
21.9139
21.9139
21.9139
21.9139
21.9139
21.9139
21.9139
21.9139
21.9139
21.9139
21.9139
21.9139
21.9139
21.9139
21.9139
21.9139
21.9139
21.9139
21.9139
21.9139
21.9139
21.9139
21.9139
21.9139
21.9139
21.9139
21.9139
21.9139
21.9139
21.9139
21.9139
21.9139
21.9139
21.9139
21.9139
21.9139
21.9139
21.9139
21.9139
21.9139
21.9139
21.9139
21.9139
21.9139
21.9139
21.9139
21.9139
21.9139
21.9139
21.9139
21.9139
21.9139
21.9139
21.9139
21.9139
21.9139
21.9139
21.9139
21.9139
21.9139
21.9139
21.9139
21.9139
21.9139
21.9139
21.9139
21.9139
21.9139
21.9139
21.9139
21.9139
21.9139
21.9139
21.9139
21.9139
21.9139
21.9139
21.9139
21.9139
21.9139
21.9139
21.9139
21.9139
21.9139
21.9139
21.9139
21.9139
21.9139
21.9139
21.9139
21.9139
21.9139
21.9139
21.9139
21.9139
21.9139
21.9139
21.9139
21.9139
21.9139
21.9139
21.9139
21.9139
21.9139
21.9139
21.9139
21.9139
21.9139
21.9139
21.9139
21.9139
21.9139
21.9139
21.9139
21.9139
21.9139
21.9139
21.9139
21.9139
21.9139
21.9139
21.9139
21.9139
21.9139
21.9139
21.9139
21.9139
21.9139
21.9139
21.9139
21.9139
21.9139
21.9139
21.9139
21.9139
21.9139
21.9139
21.9139
21.9139
21.9139
21.9139
21.9139
21.9139
21.9139
21.9139
21.9139
21.9139
21.9139
21.9139
21.9139
21.9139
21.9139
21.9139
21.9139
21.9139
21.9139
21.9139
21.9139
21.9139
21.9139
21.9139
21.9139
21.9139
21.9139
21.9139
21.9139
21.9139
21.9139
21.9139
21.9139
21.9139
21.9139
21.9139
21.9139
21.9139
21.9139
21.9139
21.9139
21.9139
21.9139
21.9139
21.9139
21.9139
21.9139
21.9139
21.9139
21.9139
21.9139
21.9139
21.9139
21.9139
21.9139
21.9139
21.9139
21.9139
21.9139
21.9139
21.9139
21.9139
21.9139
21.9139
21.9139
21.9139
21.9139
21.9139
21.9139
21.9139
21.9139
21.9139
21.9139
21.9139
21.9139
21.9139
21.9139
21.9139
21.9139
21.9139
21.9139
21.9139
21.9139
21.9139
21.9139
21.9139
21.9139
21.9139
21.9139
21.9139
21.9139
21.9139
21.9139
21.9139
21.9139
21.9139
21.9139
21.9139
21.9139
21.9139
21.9139
21.9139
21.9139
21.9139
21.9139
21.9139
21.9139
21.9139
21.9139
21.9139
21.9139
21.9139
21.9139
21.9139
21.9139
21.9139
21.9139
21.9139
21.9139
21.9139
21.9139
21.9139
21.9139
21.9139
21.9139
21.9139
21.9139
21.9139
21.9139
21.9139
21.9139
21.9139
21.9139
21.9139
21.9139
21.9139
21.9139
21.9139
21.9139
21.9139
21.9139
21.9139
21.9139
21.9139
21.9139
21.9139
21.9139
21.9139
21.9139
21.9139
21.9139
21.9139
21.9139
21.9139
21.9139
21.9139
21.9139
21.9139
21.9139
21.9139
21.9139
21.9139
21.9139
21.9139
21.9139
21.9139
21.9139
21.9139
21.9139
21.9139
21.9139
21.9139
21.9139
21.9139
21.9139
21.9139
21.9139
21.9139
21.9139
21.9139
21.9139
21.9139
21.9139
21.9139
21.9139
21.9139
21.9139
21.9139
21.9139
21.9139
21.9139
21.9139
21.9139
21.9139
21.9139
21.9139
21.9139
21.9139
21.9139
21.9139
21.9139
21.9139
21.9139
21.9139
21.9139
21.9139
21.9139
21.9139
21.9139
21.9139
21.9139
21.9139
21.9139
21.9139
21.9139
21.9139
21.9139
21.9139
21.9139
21.9139
21.9139
21.9139
21.9139
21.9139
21.9139
21.9139
21.9139
21.9139
21.9139
21.9139
21.9139
21.9139
21.9139
21.9139
21.9139
21.9139
21.9139
21.9139
21.9139
21.9139
21.9139
21.9139
21.9139
21.9139
21.9139
21.9139
21.9139
21.9139
21.9139
21.9139
21.9139
21.9139
21.9139
21.9139
21.9139
21.9139
21.9139
21.9139
21.9139
21.9139
21.9139
21.9139
21.9139
21.9139
21.9139
21.9139
21.9139
21.9139
21.9139
21.9139
21.9139
21.9139
21.9139
21.9139
21.9139
21.9139
21.9139
21.9139
21.9139
21.9139
21.9139
21.9139
21.9139
21.9139
21.9139
21.9139
21.9139
21.9139
21.9139
21.9139
21.9139
21.9139
21.9139
21.9139
21.9139
21.9139
21.9139
21.9139
21.9139
21.9139
21.9139
21.9139
21.9139
21.9139
21.9139
21.9139
21.9139
21.9139
21.9139
21.9139
21.9139
21.9139
21.9139
21.9139
21.9139
21.9139
21.9139
21.9139
21.9139
21.9139
21.9139
21.9139
21.9139
21.9139
21.9139
21.9139
21.9139
21.9139
21.9139
21.9139
21.9139
21.9139
21.9139
21.9139
21.9139
21.9139
21.9139
21.9139
21.9139
21.9139
21.9139
21.9139
21.9139
21.9139
21.9139
21.9139
21.9139
21.9139
21.9139
21.9139
21.9139
21.9139
21.9139
21.9139
21.9139
21.9139
21.9139
21.9139
21.9139
21.9139
21.9139
21.9139
21.9139
21.9139
21.9139
21.9139
21.9139
21.9139
21.9139
21.9139
21.9139
21.9139
21.9139
21.9139
21.9139
21.9139
21.9139
21.9139
21.9139
21.9139
21.9139
21.9139
21.9139
21.9139
21.9139
21.9139
21.9139
21.9139
21.9139
21.9139
21.9139
21.9139
21.9139
21.9139
21.9139
21.9139
21.9139
21.9139
21.9139
21.9139
21.9139
21.9139
21.9139
21.9139
21.9139
21.9139
21.9139
21.9139
21.9139
21.9139
21.9139
21.9139
21.9139
21.9139
21.9139
21.9139
21.9139
21.9139
21.9139
21.9139
21.9139
21.9139
21.9139
21.9139
21.9139
21.9139
21.9139
21.9139
21.9139
21.9139
21.9139
21.9139
21.9139
21.9139
21.9139
21.9139
21.9139
21.9139
21.9139
21.9139
21.9139
21.9139
21.9139
21.9139
21.9139
21.9139
21.9139
21.9139
21.9139
21.9139
21.9139
21.9139
21.9139
21.9139
21.9139
21.9139
21.9139
21.9139
21.9139
21.9139
21.9139
21.9139
21.9139
21.9139
21.9139
21.9139
21.9139
21.9139
21.9139
21.9139
21.9139
21.9139
21.9139
21.9139
21.9139
21.9139
21.9139
21.9139
21.9139
21.9139
21.9139
21.9139
21.9139
21.9139
21.9139
21.9139
21.9139
21.9139
21.9139
21.9139
21.9139
21.9139
21.9139
21.9139
21.9139
21.9139
21.9139
21.9139
21.9139
21.9139
21.9139
21.9139
21.9139
21.9139
21.9139
21.9139
21.9139
21.9139
21.9139
21.9139
21.9139
21.9139
21.9139
21.9139
21.9139
21.9139
21.9139
21.9139
21.9139
21.9139
21.9139
21.9139
21.9139
21.9139
21.9139
21.9139
21.9139
21.9139
21.9139
21.9139
21.9139
21.9139
21.9139
21.9139
21.9139
21.9139
21.9139
21.9139
21.9139
21.9139
21.9139
21.9139
21.9139
21.9139
21.9139
21.9139
21.9139
21.9139
21.9139
21.9139
21.9139
21.9139
21.9139
21.9139
21.9139
21.9139
21.9139
21.9139
21.9139
21.9139
21.9139
21.9139
21.9139
21.9139
21.9139
21.9139
21.9139
21.9139
21.9139
21.9139
21.9139
21.9139
21.9139
21.9139
21.9139
21.9139
21.9139
21.9139
21.9139
21.9139
21.9139
21.9139
21.9139
21.9139
21.9139
21.9139
21.9139
21.9139
21.9139
21.9139
21.9139
21.9139
21.9139
21.9139
21.9139
21.9139
21.9139
21.9139
21.9139
21.9139
21.9139
21.9139
21.9139
21.9139
21.9139
21.9139
21.9139
21.9139
21.9139
21.9139
21.9139
21.9139
21.9139
21.9139
21.9139
21.9139
21.9139
21.9139
21.9139
21.9139
21.9139
21.9139
21.9139
21.9139
21.9139
21.9139
21.9139
21.9139
21.9139
21.9139
21.9139
21.9139
21.9139
21.9139
21.9139
21.9139
21.9139
21.9139
21.9139
21.9139
21.9139
21.9139
21.9139
21.9139
21.9139
21.9139
21.9139
21.9139
21.9139
21.9139
21.9139
21.9139
21.9139
21.9139
21.9139
21.9139
21.9139
21.9139
21.9139
21.9139
21.9139
21.9139
21.9139
21.9139
21.9139
21.9139
21.9139
21.9139
21.9139
21.9139
21.9139
21.9139
21.9139
21.9139
21.9139
21.9139
21.9139
21.9139
21.9139
21.9139
21.9139
21.9139
21.9139
21.9139
21.9139
21.9139
21.9139
21.9139
21.9139
21.9139
21.9139
21.9139
21.9139
21.9139
21.9139
21.9139
21.9139
21.9139
21.9139
21.9139
21.9139
21.9139
21.9139
21.9139
21.9139
21.9139
21.9139
21.9139
21.9139
21.9139
21.9139
21.9139
21.9139
21.9139
21.9139
21.9139
21.9139
21.9139
21.9139
21.9139
21.9139
21.9139
21.9139
21.9139
21.9139
21.9139
21.9139
21.9139
21.9139
21.9139
21.9139
21.9139
21.9139
21.9139
21.9139
21.9139
21.9139
21.9139
21.9139
21.9139
21.9139
21.9139
21.9139
21.9139
21.9139
21.9139
21.9139
21.9139
21.9139
21.9139
21.9139
21.9139
21.9139
21.9139
21.9139
21.9139
21.9139
21.9139
21.9139
21.9139
21.9139
21.9139
21.9139
21.9139
21.9139
21.9139
21.9139
21.9139
21.9139
21.9139
21.9139
21.9139
21.9139
21.9139
21.9139
21.9139
21.9139
21.9139
21.9139
21.9139
21.9139
21.9139
21.9139
21.9139
21.9139
21.9139
21.9139
21.9139
21.9139
21.9139
21.9139
21.9139
21.9139
21.9139
21.9139
21.9139
21.9139
21.9139
21.9139
21.9139
21.9139
21.9139
21.9139
21.9139
21.9139
21.9139
21.9139
21.9139
21.9139
21.9139
21.9139
21.9139
21.9139
21.9139
21.9139
21.9139
21.9139
21.9139
21.9139
21.9139
21.9139
21.9139
21.9139
21.9139
21.9139
21.9139
21.9139
21.9139
21.9139
21.9139
21.9139
21.9139
21.9139
21.9139
21.9139
21.9139
21.9139
21.9139
21.9139
21.9139
21.9139
21.9139
21.9139
21.9139
21.9139
21.9139
21.9139
21.9139
21.9139
21.9139
21.9139
21.9139
21.9139
21.9139
21.9139
21.9139
21.9139
21.9139
21.9139
21.9139
21.9139
21.9139
21.9139
21.9139
21.9139
21.9139
21.9139
21.9139
21.9139
21.9139
21.9139
21.9139
21.9139
21.9139
21.9139
21.9139
21.9139
21.9139
21.9139
21.9139
21.9139
21.9139
21.9139
21.9139
21.9139
21.9139
21.9139
21.9139
21.9139
21.9139
21.9139
21.9139
21.9139
21.9139
21.9139
21.9139
21.9139
21.9139
21.9139
21.9139
21.9139
21.9139
21.9139
21.9139
21.9139
21.9139
21.9139
21.9139
21.9139
21.9139
21.9139
21.9139
21.9139
21.9139
21.9139
21.9139
21.9139
21.9139
21.9139
21.9139
21.9139
21.9139
21.9139
21.9139
21.9139
21.9139
21.9139
21.9139
21.9139
21.9139
21.9139
21.9139
21.9139
21.9139
21.9139
21.9139
21.9139
21.9139
21.9139
21.9139
21.9139
21.9139
21.9139
21.9139
21.9139
21.9139
21.9139
21.9139
21.9139
21.9139
21.9139
21.9139
21.9139
21.9139
21.9139
21.9139
21.9139
21.9139
21.9139
21.9139
21.9139
21.9139
21.9139
21.9139
21.9139
21.9139
21.9139
21.9139
21.9139
21.914
21.9139
21.9139
21.9139
21.9139
21.9139
21.9139
21.9139
21.9139
21.9139
21.9139
21.9139
21.9139
21.9139
21.9139
21.9139
21.9139
21.9139
21.9139
21.9139
21.9139
21.9139
21.9139
21.9139
21.9139
21.9139
21.9139
21.9139
21.9139
21.9139
21.9139
21.9139
21.9139
21.9139
21.9139
21.9139
21.9139
21.9139
21.9139
21.9139
21.9139
21.9139
21.9139
21.9139
21.9139
21.9139
21.9139
21.914
21.914
21.9142
21.9144
21.9139
21.9139
21.9139
21.9139
21.9139
21.9139
21.9139
21.9139
21.9139
21.9139
21.9139
21.9139
21.9139
21.9139
21.9139
21.9139
21.9139
21.9139
21.9139
21.9139
21.9139
21.9139
21.9139
21.9139
21.9139
21.9139
21.9139
21.9139
21.9139
21.9139
21.9139
21.9139
21.9139
21.9139
21.9139
21.9139
21.9139
21.9139
21.9139
21.9139
21.9139
21.9139
21.9139
21.914
21.914
21.9141
21.9143
21.9147
21.9154
21.9168
21.9139
21.9139
21.9139
21.9139
21.9139
21.9139
21.9139
21.9139
21.9139
21.9139
21.9139
21.9139
21.9139
21.9139
21.9139
21.9139
21.9139
21.9139
21.9139
21.9139
21.9139
21.9139
21.9139
21.9139
21.9139
21.9139
21.9139
21.9139
21.9139
21.9139
21.9139
21.9139
21.9139
21.9139
21.9139
21.9139
21.9139
21.9139
21.9139
21.9139
21.914
21.914
21.9141
21.9143
21.9147
21.9153
21.9165
21.9186
21.9225
21.9304
21.9139
21.9139
21.9139
21.9139
21.9139
21.9139
21.9139
21.9139
21.9139
21.9139
21.9139
21.9139
21.9139
21.9139
21.9139
21.9139
21.9139
21.9139
21.9139
21.9139
21.9139
21.9139
21.9139
21.9139
21.9139
21.9139
21.9139
21.9139
21.9139
21.9139
21.9139
21.9139
21.9139
21.9139
21.9139
21.9139
21.9139
21.914
21.914
21.9142
21.9144
21.9147
21.9153
21.9164
21.9184
21.922
21.9285
21.9404
21.9624
22.0056
21.9139
21.9139
21.9139
21.9139
21.9139
21.9139
21.9139
21.9139
21.9139
21.9139
21.9139
21.9139
21.9139
21.9139
21.9139
21.9139
21.9139
21.9139
21.9139
21.9139
21.9139
21.9139
21.9139
21.9139
21.9139
21.9139
21.9139
21.9139
21.9139
21.9139
21.9139
21.9139
21.9139
21.914
21.914
21.9141
21.9142
21.9144
21.9147
21.9154
21.9165
21.9184
21.9219
21.9281
21.9392
21.9592
21.9952
22.0603
22.1799
22.4098
21.9139
21.9139
21.9139
21.9139
21.9139
21.9139
21.9139
21.9139
21.9139
21.9139
21.9139
21.9139
21.9139
21.9139
21.9139
21.9139
21.9139
21.9139
21.9139
21.9139
21.9139
21.9139
21.9139
21.9139
21.9139
21.9139
21.9139
21.9139
21.9139
21.9139
21.914
21.914
21.9141
21.9142
21.9144
21.9148
21.9154
21.9166
21.9185
21.922
21.9281
21.9388
21.9579
21.9918
22.0523
22.1602
22.3531
22.6982
23.3175
24.454
21.9139
21.9139
21.9139
21.9139
21.9139
21.9139
21.9139
21.9139
21.9139
21.9139
21.9139
21.9139
21.9139
21.9139
21.9139
21.9139
21.9139
21.9139
21.9139
21.9139
21.9139
21.9139
21.9139
21.9139
21.9139
21.9139
21.9139
21.914
21.914
21.9141
21.9142
21.9145
21.9149
21.9155
21.9167
21.9188
21.9223
21.9284
21.9391
21.9579
21.9907
22.0486
22.1505
22.3303
22.6471
23.2032
24.1714
25.8324
28.6221
33.2102
21.9139
21.9139
21.9139
21.9139
21.9139
21.9139
21.9139
21.9139
21.9139
21.9139
21.9139
21.9139
21.9139
21.9139
21.9139
21.9139
21.9139
21.9139
21.9139
21.9139
21.9139
21.9139
21.9139
21.9139
21.914
21.914
21.9141
21.9143
21.9145
21.915
21.9157
21.917
21.9191
21.9228
21.9292
21.9401
21.959
21.9917
22.0485
22.1474
22.3197
22.6195
23.1394
24.0339
25.5502
28.0605
32.0775
38.2344
47.2325
59.8346
21.9139
21.9139
21.9139
21.9139
21.9139
21.9139
21.9139
21.9139
21.9139
21.9139
21.9139
21.9139
21.9139
21.9139
21.9139
21.9139
21.9139
21.9139
21.9139
21.9139
21.914
21.914
21.9141
21.9142
21.9143
21.9146
21.9151
21.916
21.9174
21.9197
21.9237
21.9304
21.9418
21.9613
21.9947
22.052
22.1505
22.3198
22.611
23.1098
23.9581
25.3814
27.7168
31.428
37.0864
45.3099
56.6837
71.7147
90.8048
114.621
21.9139
21.9139
21.9139
21.9139
21.9139
21.9139
21.9139
21.9139
21.9139
21.9139
21.9139
21.9139
21.9139
21.9139
21.9139
21.9139
21.9139
21.914
21.914
21.9141
21.9142
21.9144
21.9148
21.9154
21.9163
21.9179
21.9205
21.9248
21.9321
21.9444
21.9651
22.0001
22.0593
22.1599
22.3307
22.6206
23.1113
23.9359
25.3039
27.5265
31.0303
36.3422
44.035
54.6532
68.6546
86.4012
108.195
134.399
165.464
202.871
21.9139
21.9139
21.9139
21.9139
21.9139
21.9139
21.9139
21.9139
21.9139
21.9139
21.9139
21.9139
21.9139
21.914
21.914
21.9141
21.9142
21.9143
21.9146
21.915
21.9157
21.9168
21.9186
21.9216
21.9265
21.9346
21.9481
21.9706
22.0082
22.071
22.1763
22.3529
22.649
23.1438
23.965
25.3109
27.4733
30.8492
35.9274
43.241
53.2995
66.534
83.2848
103.827
128.436
157.498
191.594
231.481
277.601
334.512
21.9139
21.9139
21.9139
21.9139
21.9139
21.9139
21.9139
21.9139
21.9139
21.914
21.914
21.914
21.9141
21.9142
21.9144
21.9148
21.9153
21.9161
21.9174
21.9196
21.923
21.9287
21.938
21.9533
21.9783
22.0197
22.088
22.201
22.3883
22.6982
23.2094
24.0469
25.402
27.5524
30.8715
35.8155
42.8803
52.5403
65.1977
81.1695
100.713
124.067
151.535
183.61
220.917
264.14
314.448
374.697
447.778
542.723
21.9139
21.9139
21.9139
21.9139
21.9139
21.9139
21.914
21.914
21.9141
21.9142
21.9143
21.9146
21.915
21.9157
21.9167
21.9183
21.9209
21.9251
21.9318
21.9427
21.9603
21.989
22.0356
22.1117
22.2362
22.4396
22.772
23.313
24.1874
25.5829
27.7676
31.0963
35.9968
42.9295
52.3331
64.578
79.9557
98.7025
121.035
147.212
177.628
212.9
253.643
300.699
355.858
422.343
503.791
602.976
717.099
847.108
21.9139
21.9139
21.914
21.914
21.9141
21.9142
21.9143
21.9145
21.9149
21.9154
21.9162
21.9175
21.9195
21.9228
21.9279
21.9361
21.9492
21.97
22.0036
22.0575
22.1444
22.2847
22.5111
22.8762
23.4623
24.3963
25.8654
28.1315
31.5345
36.477
43.3857
52.6629
64.6465
79.601
97.741
119.267
144.406
173.483
207.034
245.688
290.115
341.513
402.392
476.268
566.234
673.073
793.031
918.634
1037.5
1144.82
21.914
21.9141
21.9141
21.9143
21.9145
21.9148
21.9152
21.9159
21.917
21.9187
21.9213
21.9255
21.9319
21.9421
21.9581
21.9835
22.0237
22.0875
22.1892
22.3511
22.6092
23.0196
23.6693
24.6893
26.2687
28.6663
32.2097
37.2779
44.2649
53.5364
65.3963
80.0808
97.7812
118.681
142.982
170.965
203.072
239.942
282.186
330.666
387.211
454.887
537.035
635.578
749.177
871.991
994.862
1107.19
1201.65
1273.36
1324.11
21.9144
21.9147
21.9151
21.9158
21.9167
21.9182
21.9204
21.9239
21.9293
21.9376
21.9506
21.9707
22.0022
22.0516
22.129
22.2507
22.4422
22.7431
23.2151
23.9513
25.0889
26.8214
29.4058
33.1589
38.4368
45.6005
54.9782
66.8387
81.3893
98.7991
119.234
142.883
169.994
200.943
236.327
276.756
322.916
376.094
438.807
514.298
605.167
711.668
830.173
953.16
1070.83
1174.21
1257.39
1318.73
1359.46
1383.42
1395.05
21.9157
21.9166
21.9179
21.92
21.9231
21.9278
21.9349
21.9459
21.9628
21.9887
22.0288
22.0908
22.1869
22.336
22.5676
22.9265
23.4813
24.3331
25.6274
27.5632
30.397
34.4343
40.0075
47.4436
57.0325
69.0081
83.5494
100.805
120.925
144.091
170.524
200.556
234.703
273.599
317.846
368.382
427.179
497.187
581.293
680.785
793.857
914.77
1034.99
1145.1
1238.06
1309.75
1360.97
1392.72
1411.16
1417.99
1420.68
1423.17
21.9227
21.927
21.9335
21.9433
21.9581
21.9806
22.0148
22.0669
22.1466
22.2687
22.4556
22.7418
23.1792
23.8448
24.8499
26.3495
28.5491
31.7036
36.1059
42.0625
49.865
59.7645
71.9604
86.6053
103.829
123.767
146.592
172.511
201.82
234.968
272.588
315.251
363.708
419.442
485.021
563.343
656.34
763.538
880.973
1001.4
1115.93
1216.46
1297.99
1358.67
1399.88
1424.11
1437.02
1440.5
1443.39
1443.99
1441.25
1433.91
21.9559
21.9763
22.007
22.0531
22.1225
22.2273
22.3857
22.625
22.9864
23.5303
24.3444
25.5516
27.3173
29.8528
33.4096
38.2642
44.6945
52.9546
63.2571
75.7683
90.6165
107.914
127.788
150.4
175.952
204.716
237.089
273.669
315.041
361.833
415.166
477.205
550.711
637.953
739.382
852.49
971.427
1088.2
1194.48
1284.12
1353.73
1403.72
1435.67
1453.84
1461.33
1463.52
1465.95
1464.73
1459.86
1451.33
1440.13
1426.1
22.1104
22.2049
22.3457
22.5557
22.8685
23.3338
24.0228
25.0355
26.5077
28.6151
31.5721
35.6227
41.0226
48.017
56.8215
67.6112
80.5217
95.6607
113.127
133.041
155.56
180.881
209.257
241.052
276.807
317.126
362.57
414.025
473.27
542.848
625.147
721.231
829.703
946.081
1063.33
1173.4
1269.38
1347.17
1405.29
1445.05
1468.82
1481.49
1485.03
1486.94
1487.79
1485.08
1478.53
1468.53
1456.42
1442.29
1427.67
1412.01
22.806
23.2229
23.8327
24.7196
25.9976
27.8151
30.3558
33.8332
38.4775
44.5182
52.1645
61.5933
72.9448
86.3284
101.835
119.555
139.604
162.135
187.345
215.471
246.851
281.982
321.47
365.841
415.835
472.897
539.321
617.487
708.823
812.742
925.907
1042.3
1154.5
1255.33
1339.79
1405.3
1452.38
1482.8
1499.91
1507
1508.91
1510.85
1509.44
1504.56
1496.5
1485.68
1472.76
1458.35
1443.5
1428.28
1413.25
1397.58
25.7126
27.3426
29.6052
32.6875
36.7951
42.1377
48.9128
57.2922
67.4154
79.3925
93.3119
109.252
127.298
147.563
170.201
195.406
223.407
254.522
289.213
328.081
371.629
420.496
475.874
539.811
614.597
701.848
801.541
911.243
1025.94
1138.88
1242.98
1332.63
1404.78
1458.58
1495.28
1517.28
1528.75
1531.83
1533.15
1533.62
1530.62
1524.13
1514.59
1503.01
1489.25
1474.65
1459.69
1444.49
1429.31
1414.12
1399.27
1383.86
35.7983
40.6519
46.7956
54.3913
63.5734
74.4486
87.1025
101.608
118.036
136.47
157.023
179.852
205.153
233.148
264.14
298.564
337.004
379.952
427.973
482.078
544.092
616.18
700.021
795.96
902.241
1014.71
1127.33
1233.38
1327.02
1404.52
1464.15
1506.72
1534.15
1549.35
1555.13
1556.62
1558
1556.07
1550.91
1542.95
1532.46
1519.95
1505.86
1491.25
1476.18
1460.97
1445.79
1430.66
1415.65
1400.66
1386
1370.79
71.1955
82.8647
96.2326
111.363
128.323
147.199
168.108
191.21
216.702
244.802
275.801
310.114
348.302
390.852
438.278
491.462
552.038
622.032
703.113
795.829
898.923
1008.94
1120.53
1227.42
1323.75
1405.35
1470.1
1517.99
1550.31
1569.36
1578.65
1580.96
1581.81
1581.48
1577.89
1571.21
1561.84
1550.49
1537.05
1522.69
1507.93
1492.85
1477.7
1462.55
1447.44
1432.42
1417.48
1402.64
1387.82
1373.29
1358.25
122.736
140.268
159.635
180.962
204.415
230.187
258.493
289.617
323.964
362.073
404.421
451.481
504.054
563.617
632.054
710.971
801.014
901.261
1008.8
1118.9
1225.77
1323.68
1408.32
1477.17
1529.41
1566.19
1589.42
1601.74
1605.81
1606.75
1607.29
1604.55
1598.83
1590.75
1580.42
1568.13
1554.29
1539.88
1524.95
1509.82
1494.67
1479.55
1464.48
1449.47
1434.53
1419.67
1404.86
1390.16
1375.46
1361.04
1346.14
195.745
219.619
245.756
274.366
305.732
340.256
378.458
420.792
467.703
519.939
578.86
646.221
723.526
811.435
909.228
1014.4
1122.74
1228.93
1327.51
1414.14
1485.99
1541.87
1582.58
1609.46
1624.54
1631.17
1632.52
1632.73
1631.34
1626.97
1619.79
1610.34
1599.09
1585.82
1571.68
1557.1
1542.14
1527.07
1511.94
1496.83
1481.78
1466.79
1451.85
1436.98
1422.16
1407.41
1392.71
1378.1
1363.51
1349.2
1334.43
324.329
359.172
397.636
440.14
487.104
539.252
597.869
664.585
740.784
827.071
922.822
1025.83
1132.27
1237.3
1335.8
1423.42
1497.29
1556.03
1599.82
1629.8
1647.83
1656.8
1658.9
1659.08
1658.61
1654.9
1648.35
1639.99
1629.65
1617.36
1603.66
1589.44
1574.64
1559.61
1544.54
1529.46
1514.39
1499.36
1484.37
1469.44
1454.55
1439.72
1424.94
1410.21
1395.55
1380.95
1366.43
1351.94
1337.72
1323.07
462.666
509.881
562.185
620.821
687.293
762.838
847.963
942.065
1043.13
1147.66
1251.18
1348.94
1436.72
1511.72
1572.37
1618.41
1651
1671.73
1682.44
1685.99
1686.36
1685.95
1683.12
1677.57
1669.86
1660.21
1648.84
1635.61
1621.67
1607.24
1592.38
1577.39
1562.33
1547.24
1532.2
1517.19
1502.22
1487.29
1472.4
1457.55
1442.75
1427.99
1413.29
1398.64
1384.06
1369.54
1355.12
1340.72
1326.59
1312.07
647.957
714.561
789.865
874.242
967.055
1066.39
1169
1270.73
1367.23
1454.47
1529.73
1591.39
1639.02
1673.54
1696.22
1708.67
1713.77
1714.41
1713.69
1711.73
1706.9
1699.57
1690.77
1680.13
1667.65
1654.05
1639.95
1625.27
1610.37
1595.4
1580.37
1565.33
1550.3
1535.3
1520.34
1505.41
1490.51
1475.65
1460.83
1446.05
1431.31
1416.62
1401.99
1387.41
1372.91
1358.47
1344.14
1329.84
1315.8
1301.4
906.098
997.929
1095.72
1196.4
1296.14
1390.89
1476.92
1551.62
1613.53
1661.98
1697.68
1721.84
1735.95
1742.01
1743.09
1742.45
1740.85
1736.56
1729.68
1721.35
1711.38
1699.66
1686.51
1672.72
1658.34
1643.58
1628.68
1613.69
1598.67
1583.67
1568.67
1553.69
1538.74
1523.8
1508.9
1494.03
1479.18
1464.38
1449.61
1434.88
1420.2
1405.58
1391.01
1376.51
1362.08
1347.73
1333.48
1319.28
1305.33
1291.05
1229.96
1327.47
1420.04
1504.27
1577.71
1639.05
1687.57
1723.72
1748.87
1764.08
1770.93
1772.67
1772.14
1770.25
1766.61
1760.34
1752.21
1742.85
1731.86
1719.08
1705.54
1691.47
1676.91
1662.15
1647.26
1632.28
1617.29
1602.29
1587.31
1572.35
1557.4
1542.48
1527.56
1512.67
1497.81
1482.98
1468.18
1453.42
1438.7
1424.02
1409.4
1394.84
1380.34
1365.91
1351.56
1337.29
1323.13
1309.02
1295.16
1281.01
1536.59
1608.14
1668.17
1716.02
1752.05
1777.53
1793.33
1800.82
1802.91
1802.46
1800.37
1797.19
1791.41
1783.33
1774.41
1763.92
1751.67
1738.5
1724.83
1710.47
1695.79
1680.98
1666.08
1651.14
1636.19
1621.22
1606.25
1591.29
1576.34
1561.42
1546.5
1531.6
1516.72
1501.86
1487.04
1472.24
1457.48
1442.76
1428.09
1413.47
1398.9
1384.4
1369.97
1355.61
1341.34
1327.15
1313.08
1299.06
1285.29
1271.26
1747.46
1782.78
1807.99
1823.91
1831.76
1833.99
1833.61
1831.58
1828.14
1822.85
1814.92
1806.21
1796.27
1784.59
1771.65
1758.17
1744.06
1729.57
1714.95
1700.14
1685.23
1670.3
1655.35
1640.41
1625.47
1610.52
1595.58
1580.64
1565.71
1550.8
1535.91
1521.03
1506.17
1491.34
1476.54
1461.78
1447.06
1432.39
1417.76
1403.19
1388.69
1374.25
1359.88
1345.6
1331.4
1317.3
1303.31
1289.38
1275.71
1261.79
1863.72
1866.01
1865.55
1863.51
1859.81
1854.82
1847.25
1838.36
1828.73
1817.65
1804.93
1791.73
1777.95
1763.6
1749.05
1734.34
1719.52
1704.67
1689.77
1674.84
1659.9
1644.96
1630.03
1615.09
1600.15
1585.22
1570.29
1555.37
1540.47
1525.59
1510.73
1495.9
1481.1
1466.33
1451.6
1436.92
1422.29
1407.71
1393.19
1378.75
1364.37
1350.07
1335.86
1321.74
1307.71
1293.81
1279.98
1266.4
1252.6
1896.15
1892.23
1887.19
1880
1871.04
1861.56
1850.83
1838.41
1825.38
1811.96
1797.79
1783.37
1768.79
1754.05
1739.24
1724.39
1709.51
1694.61
1679.7
1664.76
1649.83
1634.88
1619.94
1605
1590.07
1575.13
1560.21
1545.3
1530.41
1515.54
1500.7
1485.88
1471.11
1456.37
1441.68
1427.03
1412.45
1397.92
1383.46
1369.07
1354.75
1340.52
1326.38
1312.33
1298.39
1284.57
1270.83
1257.34
1243.66
1913.18
1904.17
1894.69
1884.27
1872.23
1859.32
1846.11
1832.13
1817.83
1803.43
1788.79
1774.06
1759.27
1744.43
1729.56
1714.67
1699.77
1684.85
1669.92
1654.98
1640.03
1625.07
1610.12
1595.17
1580.23
1565.29
1550.37
1535.47
1520.59
1505.73
1490.91
1476.12
1461.37
1446.66
1432.01
1417.4
1402.86
1388.38
1373.97
1359.64
1345.39
1331.22
1317.15
1303.18
1289.32
1275.59
1261.94
1248.54
1234.98
1906.29
1893.47
1880.42
1866.73
1852.54
1838.26
1823.73
1809.06
1794.36
1779.59
1764.77
1749.92
1735.05
1720.15
1705.23
1690.3
1675.36
1660.41
1645.44
1630.47
1615.5
1600.54
1585.58
1570.63
1555.69
1540.77
1525.87
1511
1496.16
1481.36
1466.59
1451.87
1437.2
1422.58
1408.02
1393.52
1379.09
1364.73
1350.46
1336.27
1322.17
1308.17
1294.28
1280.49
1266.85
1253.29
1239.99
1226.54
1901.53
1887.45
1873.27
1858.89
1844.32
1829.7
1814.98
1800.21
1785.41
1770.58
1755.72
1740.83
1725.92
1710.98
1696.04
1681.07
1666.1
1651.12
1636.13
1621.14
1606.15
1591.17
1576.2
1561.25
1546.31
1531.4
1516.51
1501.65
1486.83
1472.04
1457.3
1442.61
1427.97
1413.39
1398.87
1384.41
1370.03
1355.73
1341.51
1327.38
1313.35
1299.42
1285.6
1271.9
1258.34
1244.88
1231.67
1218.34
1879.78
1865.23
1850.61
1835.91
1821.17
1806.38
1791.55
1776.69
1761.81
1746.9
1731.97
1717.01
1702.04
1687.05
1672.05
1657.05
1642.04
1627.03
1612.02
1597.01
1582.02
1567.05
1552.09
1537.15
1522.24
1507.36
1492.52
1477.71
1462.95
1448.24
1433.57
1418.96
1404.42
1389.94
1375.53
1361.2
1346.95
1332.79
1318.72
1304.75
1290.9
1277.16
1263.54
1250.07
1236.71
1223.6
1210.39
1871.83
1857.15
1842.43
1827.64
1812.83
1797.98
1783.09
1768.18
1753.25
1738.28
1723.3
1708.3
1693.29
1678.26
1663.23
1648.19
1633.16
1618.12
1603.09
1588.08
1573.08
1558.1
1543.14
1528.2
1513.3
1498.43
1483.6
1468.81
1454.07
1439.38
1424.75
1410.18
1395.67
1381.23
1366.87
1352.58
1338.39
1324.28
1310.28
1296.38
1282.6
1268.94
1255.41
1242.03
1228.77
1215.75
1202.64
1849.22
1834.42
1819.57
1804.69
1789.78
1774.83
1759.86
1744.87
1729.85
1714.82
1699.78
1684.72
1669.66
1654.59
1639.53
1624.47
1609.41
1594.37
1579.34
1564.33
1549.35
1534.39
1519.46
1504.56
1489.71
1474.89
1460.12
1445.41
1430.74
1416.14
1401.6
1387.13
1372.73
1358.41
1344.18
1330.04
1316
1302.06
1288.24
1274.53
1260.95
1247.5
1234.2
1221.02
1208.09
1195.1
1841.47
1826.59
1811.67
1796.72
1781.74
1766.74
1751.71
1736.66
1721.59
1706.51
1691.42
1676.33
1661.23
1646.14
1631.04
1615.96
1600.89
1585.83
1570.8
1555.78
1540.79
1525.84
1510.91
1496.03
1481.18
1466.38
1451.63
1436.94
1422.3
1407.73
1393.23
1378.79
1364.44
1350.18
1336
1321.92
1307.94
1294.07
1280.3
1266.66
1253.15
1239.77
1226.56
1213.47
1200.64
1187.76
1833.88
1818.92
1803.93
1788.91
1773.87
1758.8
1743.71
1728.61
1713.49
1698.37
1683.24
1668.11
1652.98
1637.86
1622.74
1607.64
1592.55
1577.48
1562.44
1547.42
1532.43
1517.47
1502.56
1487.68
1472.85
1458.07
1443.34
1428.67
1414.06
1399.52
1385.06
1370.67
1356.37
1342.15
1328.02
1313.99
1300.07
1286.25
1272.55
1258.97
1245.54
1232.24
1219.11
1206.12
1193.39
1180.63
1826.42
1811.39
1796.33
1781.24
1766.14
1751.01
1735.87
1720.71
1705.55
1690.39
1675.22
1660.06
1644.9
1629.75
1614.62
1599.49
1584.39
1569.31
1554.26
1539.24
1524.25
1509.3
1494.39
1479.52
1464.71
1449.94
1435.24
1420.6
1406.03
1391.52
1377.1
1362.75
1348.48
1334.31
1320.22
1306.24
1292.37
1278.61
1264.98
1251.48
1238.12
1224.91
1211.87
1198.97
1186.34
1173.7
1819.1
1803.99
1788.86
1773.72
1758.55
1743.37
1728.17
1712.98
1697.77
1682.57
1667.37
1652.17
1636.99
1621.81
1606.66
1591.52
1576.41
1561.32
1546.26
1531.24
1516.25
1501.3
1486.4
1471.55
1456.76
1442.02
1427.34
1412.73
1398.18
1383.71
1369.31
1355
1340.77
1326.63
1312.6
1298.67
1284.86
1271.17
1257.6
1244.18
1230.9
1217.77
1204.82
1192.02
1179.48
1166.95
1811.9
1796.73
1781.53
1766.32
1751.1
1735.87
1720.63
1705.39
1690.14
1674.9
1659.67
1644.44
1629.23
1614.04
1598.86
1583.71
1568.59
1553.49
1538.43
1523.41
1508.43
1493.5
1478.61
1463.78
1449
1434.28
1419.62
1405.03
1390.5
1376.05
1361.69
1347.41
1333.23
1319.14
1305.16
1291.29
1277.54
1263.91
1250.41
1237.06
1223.86
1210.81
1197.95
1185.25
1172.81
1160.4
1804.83
1789.59
1774.34
1759.07
1743.79
1728.51
1713.23
1697.94
1682.66
1667.39
1652.12
1636.87
1621.64
1606.43
1591.24
1576.07
1560.94
1545.85
1530.79
1515.77
1500.8
1485.87
1470.99
1456.17
1441.4
1426.69
1412.05
1397.48
1382.99
1368.57
1354.25
1340.01
1325.87
1311.83
1297.9
1284.09
1270.39
1256.83
1243.4
1230.12
1217
1204.04
1191.26
1178.65
1166.31
1154.02
1782.58
1767.27
1751.95
1736.62
1721.29
1705.97
1690.64
1675.33
1660.02
1644.73
1629.46
1614.2
1598.98
1583.78
1568.61
1553.47
1538.37
1523.31
1508.29
1493.32
1478.4
1463.52
1448.71
1433.95
1419.27
1404.65
1390.11
1375.65
1361.27
1346.98
1332.78
1318.69
1304.7
1290.82
1277.06
1263.42
1249.92
1236.56
1223.36
1210.31
1197.43
1184.75
1172.23
1159.99
1147.82
1775.69
1760.32
1744.95
1729.58
1714.21
1698.84
1683.48
1668.14
1652.81
1637.49
1622.2
1606.94
1591.7
1576.48
1561.3
1546.15
1531.05
1515.98
1500.96
1485.99
1471.07
1456.21
1441.41
1426.68
1412.01
1397.42
1382.91
1368.48
1354.13
1339.88
1325.73
1311.67
1297.73
1283.9
1270.2
1256.62
1243.18
1229.89
1216.76
1203.79
1191
1178.4
1165.98
1153.84
1141.78
1768.93
1753.51
1738.09
1722.68
1707.27
1691.87
1676.48
1661.11
1645.75
1630.42
1615.1
1599.81
1584.55
1569.33
1554.13
1538.97
1523.86
1508.8
1493.78
1478.81
1463.91
1449.06
1434.28
1419.56
1404.92
1390.36
1375.87
1361.47
1347.16
1332.94
1318.83
1304.82
1290.93
1277.15
1263.5
1249.98
1236.61
1223.38
1210.32
1197.43
1184.72
1172.21
1159.89
1147.85
1135.91
1746.83
1731.37
1715.92
1700.47
1685.04
1669.62
1654.21
1638.83
1623.47
1608.13
1592.82
1577.54
1562.3
1547.1
1531.94
1516.83
1501.77
1486.76
1471.8
1456.9