/*--------------------------------*- C++ -*----------------------------------*\
| =========                 |                                                 |
| \\      /  F ield         | OpenFOAM: The Open Source CFD Toolbox           |
|  \\    /   O peration     | Version:  v1706                                 |
|   \\  /    A nd           | Web:      www.OpenFOAM.com                      |
|    \\/     M anipulation  |                                                 |
\*---------------------------------------------------------------------------*/
FoamFile
{
    version     2.0;
    format      ascii;
    class       volScalarField;
    location    "1.1e-05";
    object      rho;
}
// * * * * * * * * * * * * * * * * * * * * * * * * * * * * * * * * * * * * * //

dimensions      [1 -3 0 0 0 0 0];


internalField   nonuniform List<scalar> 
30038
(
0.000511309
0.000511309
0.000511309
0.000511309
0.000511309
0.000511309
0.000511309
0.000511309
0.000511309
0.000511309
0.000511309
0.000511309
0.000511309
0.000511309
0.000511309
0.000511309
0.000511309
0.000511309
0.000511309
0.000511309
0.000511309
0.000511309
0.000511309
0.000511309
0.000511309
0.000511309
0.000511309
0.000511309
0.000511309
0.000511309
0.000511309
0.000511309
0.000511309
0.000511309
0.000511309
0.000511309
0.000511309
0.000511309
0.000511309
0.000511309
0.000511309
0.000511309
0.000511309
0.000511309
0.000511309
0.000511309
0.000511309
0.000511309
0.000511309
0.000511309
0.000511309
0.000511309
0.000511309
0.000511309
0.000511309
0.000511309
0.000511309
0.000511309
0.000511309
0.000511309
0.000511309
0.000511309
0.000511309
0.000511309
0.000511309
0.000511309
0.000511309
0.000511309
0.000511309
0.000511309
0.000511309
0.000511309
0.000511309
0.000511309
0.000511309
0.000511309
0.000511309
0.000511309
0.000511309
0.000511309
0.000511309
0.000511309
0.000511309
0.000511309
0.000511309
0.000511309
0.000511309
0.000511309
0.000511309
0.000511309
0.000511309
0.000511309
0.000511309
0.000511309
0.000511309
0.000511309
0.000511309
0.000511309
0.000511309
0.000511309
0.000511309
0.000511309
0.000511309
0.000511309
0.000511309
0.000511309
0.000511309
0.000511309
0.000511309
0.000511309
0.000511309
0.000511309
0.000511309
0.000511309
0.000511309
0.000511309
0.000511309
0.000511309
0.000511309
0.000511309
0.000511309
0.000511309
0.000511309
0.000511309
0.000511309
0.000511309
0.000511309
0.000511309
0.000511309
0.000511309
0.000511309
0.000511309
0.000511309
0.000511309
0.000511309
0.000511309
0.000511309
0.000511309
0.000511309
0.000511309
0.000511309
0.000511309
0.000511309
0.000511309
0.000511309
0.000511309
0.000511309
0.000511309
0.000511309
0.000511309
0.000511309
0.000511309
0.000511309
0.000511309
0.000511309
0.000511309
0.000511309
0.000511309
0.000511309
0.000511309
0.000511309
0.000511309
0.000511309
0.000511309
0.000511309
0.000511309
0.000511309
0.000511309
0.000511309
0.000511309
0.000511309
0.000511309
0.000511309
0.000511309
0.000511309
0.000511309
0.000511309
0.000511309
0.000511309
0.000511309
0.000511309
0.000511309
0.000511309
0.000511309
0.000511309
0.000511309
0.000511309
0.000511309
0.000511309
0.000511309
0.000511309
0.000511309
0.000511309
0.000511309
0.000511309
0.000511309
0.000511309
0.000511309
0.000511309
0.000511309
0.000511309
0.000511309
0.000511309
0.000511309
0.000511309
0.000511309
0.000511309
0.000511309
0.000511309
0.000511309
0.000511309
0.000511309
0.000511309
0.000511309
0.000511309
0.000511309
0.000511309
0.000511309
0.000511309
0.000511309
0.000511309
0.000511309
0.000511309
0.000511309
0.000511309
0.000511309
0.000511309
0.000511309
0.000511309
0.000511309
0.000511309
0.000511309
0.000511309
0.000511309
0.000511309
0.000511309
0.000511309
0.000511309
0.000511309
0.000511309
0.000511309
0.000511309
0.000511309
0.000511309
0.000511309
0.000511309
0.000511309
0.000511309
0.000511309
0.000511309
0.000511309
0.000511309
0.000511309
0.000511309
0.000511309
0.000511309
0.000511309
0.000511309
0.000511309
0.000511309
0.000511309
0.000511309
0.000511309
0.000511309
0.000511309
0.000511309
0.000511309
0.000511309
0.000511309
0.000511309
0.000511309
0.000511309
0.000511309
0.000511309
0.000511309
0.000511309
0.000511309
0.000511309
0.000511309
0.000511309
0.000511309
0.000511309
0.000511309
0.000511309
0.000511309
0.000511309
0.000511309
0.000511309
0.000511309
0.000511309
0.000511309
0.000511309
0.000511309
0.000511309
0.000511309
0.000511309
0.000511309
0.000511309
0.000511309
0.000511309
0.000511309
0.000511309
0.000511309
0.000511309
0.000511309
0.000511309
0.000511309
0.000511309
0.000511309
0.000511309
0.000511309
0.000511309
0.000511309
0.000511309
0.000511309
0.000511309
0.000511309
0.000511309
0.000511309
0.000511309
0.000511309
0.000511309
0.000511309
0.000511309
0.000511309
0.000511309
0.000511309
0.000511309
0.000511309
0.000511309
0.000511309
0.000511309
0.000511309
0.000511309
0.000511309
0.000511309
0.000511309
0.000511309
0.000511309
0.000511309
0.000511309
0.000511309
0.000511309
0.000511309
0.000511309
0.000511309
0.000511309
0.000511309
0.000511309
0.000511309
0.000511309
0.000511309
0.000511309
0.000511309
0.000511309
0.000511309
0.000511309
0.000511309
0.000511309
0.000511309
0.000511309
0.000511309
0.000511309
0.000511309
0.000511309
0.000511309
0.000511309
0.000511309
0.000511309
0.000511309
0.000511309
0.000511309
0.000511309
0.000511309
0.000511309
0.000511309
0.000511309
0.000511309
0.000511309
0.000511309
0.000511309
0.000511309
0.000511309
0.000511309
0.000511309
0.000511309
0.000511309
0.000511309
0.000511309
0.000511309
0.000511309
0.000511309
0.000511309
0.000511309
0.000511309
0.000511309
0.000511309
0.000511309
0.000511309
0.000511309
0.000511309
0.000511309
0.000511309
0.000511309
0.000511309
0.000511309
0.000511309
0.000511309
0.000511309
0.000511309
0.000511309
0.000511309
0.000511309
0.000511309
0.000511309
0.000511309
0.000511309
0.000511309
0.000511309
0.000511309
0.000511309
0.000511309
0.000511309
0.000511309
0.000511309
0.000511309
0.000511309
0.000511309
0.000511309
0.000511309
0.000511309
0.000511309
0.000511309
0.000511309
0.000511309
0.000511309
0.000511309
0.000511309
0.000511309
0.000511309
0.000511309
0.000511309
0.000511309
0.000511309
0.000511309
0.000511309
0.000511309
0.000511309
0.000511309
0.000511309
0.000511309
0.000511309
0.000511309
0.000511309
0.000511309
0.000511309
0.000511309
0.000511309
0.000511309
0.000511309
0.000511309
0.000511309
0.000511309
0.000511309
0.000511309
0.000511309
0.000511309
0.000511309
0.000511309
0.000511309
0.000511309
0.000511309
0.000511309
0.000511309
0.000511309
0.000511309
0.000511309
0.000511309
0.000511309
0.000511309
0.000511309
0.000511309
0.000511309
0.000511309
0.000511309
0.000511309
0.000511309
0.000511309
0.000511309
0.000511309
0.000511309
0.000511309
0.000511309
0.000511309
0.000511309
0.000511309
0.000511309
0.000511309
0.000511309
0.000511309
0.000511309
0.000511309
0.000511309
0.000511309
0.000511309
0.000511309
0.000511309
0.000511309
0.000511309
0.000511309
0.000511309
0.000511309
0.000511309
0.000511309
0.000511309
0.000511309
0.000511309
0.000511309
0.000511309
0.000511309
0.000511309
0.000511309
0.000511309
0.000511309
0.000511309
0.000511309
0.000511309
0.000511309
0.000511309
0.000511309
0.000511309
0.000511309
0.000511309
0.000511309
0.000511309
0.000511309
0.000511309
0.000511309
0.000511309
0.000511309
0.000511309
0.000511309
0.000511309
0.000511309
0.000511309
0.000511309
0.000511309
0.000511309
0.000511309
0.000511309
0.000511309
0.000511309
0.000511309
0.000511309
0.000511309
0.000511309
0.000511309
0.000511309
0.000511309
0.000511309
0.000511309
0.000511309
0.000511309
0.000511309
0.000511309
0.000511309
0.000511309
0.000511309
0.000511309
0.000511309
0.000511309
0.000511309
0.000511309
0.000511309
0.000511309
0.000511309
0.000511309
0.000511309
0.000511309
0.000511309
0.000511309
0.000511309
0.000511309
0.000511309
0.000511309
0.000511309
0.000511309
0.000511309
0.000511309
0.000511309
0.000511309
0.000511309
0.000511309
0.000511309
0.000511309
0.000511309
0.000511309
0.000511309
0.000511309
0.000511309
0.000511309
0.000511309
0.000511309
0.000511309
0.000511309
0.000511309
0.000511309
0.000511309
0.000511309
0.000511309
0.000511309
0.000511309
0.000511309
0.000511309
0.000511309
0.000511309
0.000511309
0.000511309
0.000511309
0.000511309
0.000511309
0.000511309
0.000511309
0.000511309
0.000511309
0.000511309
0.000511309
0.000511309
0.000511309
0.000511309
0.000511309
0.000511309
0.000511309
0.000511309
0.000511309
0.000511309
0.000511309
0.000511309
0.000511309
0.000511309
0.000511309
0.000511309
0.000511309
0.000511309
0.000511309
0.000511309
0.000511309
0.000511309
0.000511309
0.000511309
0.000511309
0.000511309
0.000511309
0.000511309
0.000511309
0.000511309
0.000511309
0.000511309
0.000511309
0.000511309
0.000511309
0.000511309
0.000511309
0.000511309
0.000511309
0.000511309
0.000511309
0.000511309
0.000511309
0.000511309
0.000511309
0.000511309
0.000511309
0.000511309
0.000511309
0.000511309
0.000511309
0.000511309
0.000511309
0.000511309
0.000511309
0.000511309
0.000511309
0.000511309
0.000511309
0.000511309
0.000511309
0.000511309
0.000511309
0.000511309
0.000511309
0.000511309
0.000511309
0.000511309
0.000511309
0.000511309
0.000511309
0.000511309
0.000511309
0.000511309
0.000511309
0.000511309
0.000511309
0.000511309
0.000511309
0.000511309
0.000511309
0.000511309
0.000511309
0.000511309
0.000511309
0.000511309
0.000511309
0.000511309
0.000511309
0.000511309
0.000511309
0.000511309
0.000511309
0.000511309
0.000511309
0.000511309
0.000511309
0.000511309
0.000511309
0.000511309
0.000511309
0.000511309
0.000511309
0.000511309
0.000511309
0.000511309
0.000511309
0.000511309
0.000511309
0.000511309
0.000511309
0.000511309
0.000511309
0.000511309
0.000511309
0.000511309
0.000511309
0.000511309
0.000511309
0.000511309
0.000511309
0.000511309
0.000511309
0.000511309
0.000511309
0.000511309
0.000511309
0.000511309
0.000511309
0.000511309
0.000511309
0.000511309
0.000511309
0.000511309
0.000511309
0.000511309
0.000511309
0.000511309
0.000511309
0.000511309
0.000511309
0.000511309
0.000511309
0.000511309
0.000511309
0.000511309
0.000511309
0.000511309
0.000511309
0.000511309
0.000511309
0.000511309
0.000511309
0.000511309
0.000511309
0.000511309
0.000511309
0.000511309
0.000511309
0.000511309
0.000511309
0.000511309
0.000511309
0.000511309
0.000511309
0.000511309
0.000511309
0.000511309
0.000511309
0.000511309
0.000511309
0.000511309
0.000511309
0.000511309
0.000511309
0.000511309
0.000511309
0.000511309
0.000511309
0.000511309
0.000511309
0.000511309
0.000511309
0.000511309
0.000511309
0.000511309
0.000511309
0.000511309
0.000511309
0.000511309
0.000511309
0.000511309
0.000511309
0.000511309
0.000511309
0.000511309
0.000511309
0.000511309
0.000511309
0.000511309
0.000511309
0.000511309
0.000511309
0.000511309
0.000511309
0.000511309
0.000511309
0.000511309
0.000511309
0.000511309
0.000511309
0.000511309
0.000511309
0.000511309
0.000511309
0.000511309
0.000511309
0.000511309
0.000511309
0.000511309
0.000511309
0.000511309
0.000511309
0.000511309
0.000511309
0.000511309
0.000511309
0.000511309
0.000511309
0.000511309
0.000511309
0.000511309
0.000511309
0.000511309
0.000511309
0.000511309
0.000511309
0.000511309
0.000511309
0.000511309
0.000511309
0.000511309
0.000511309
0.000511309
0.000511309
0.000511309
0.000511309
0.000511309
0.000511309
0.000511309
0.000511309
0.000511309
0.000511309
0.000511309
0.000511309
0.000511309
0.000511309
0.000511309
0.000511309
0.000511309
0.000511309
0.000511309
0.000511309
0.000511309
0.000511309
0.000511309
0.000511309
0.000511309
0.000511309
0.000511309
0.000511309
0.000511309
0.000511309
0.000511309
0.000511309
0.000511309
0.000511309
0.000511309
0.000511309
0.000511309
0.000511309
0.000511309
0.000511309
0.000511309
0.000511309
0.000511309
0.000511309
0.000511309
0.000511309
0.000511309
0.000511309
0.000511309
0.000511309
0.000511309
0.000511309
0.000511309
0.000511309
0.000511309
0.000511309
0.000511309
0.000511309
0.000511309
0.000511309
0.000511309
0.000511309
0.000511309
0.000511309
0.000511309
0.000511309
0.000511309
0.000511309
0.000511309
0.000511309
0.000511309
0.000511309
0.000511309
0.000511309
0.000511309
0.000511309
0.000511309
0.000511309
0.000511309
0.000511309
0.000511309
0.000511309
0.000511309
0.000511309
0.000511309
0.000511309
0.000511309
0.000511309
0.000511309
0.000511309
0.000511309
0.000511309
0.000511309
0.000511309
0.000511309
0.000511309
0.000511309
0.000511309
0.000511309
0.000511309
0.000511309
0.000511309
0.000511309
0.000511309
0.000511309
0.000511309
0.000511309
0.000511309
0.000511309
0.000511309
0.000511309
0.000511309
0.000511309
0.000511309
0.000511309
0.000511309
0.000511309
0.000511309
0.000511309
0.000511309
0.000511309
0.000511309
0.000511309
0.000511309
0.000511309
0.000511309
0.000511309
0.000511309
0.000511309
0.000511309
0.000511309
0.000511309
0.000511309
0.000511309
0.000511309
0.000511309
0.000511309
0.000511309
0.000511309
0.000511309
0.000511309
0.000511309
0.000511309
0.000511309
0.000511309
0.000511309
0.000511309
0.000511309
0.000511309
0.000511309
0.000511309
0.000511309
0.000511309
0.000511309
0.000511309
0.000511309
0.000511309
0.000511309
0.000511309
0.000511309
0.000511309
0.000511309
0.000511309
0.000511309
0.000511309
0.000511309
0.000511309
0.000511309
0.000511309
0.000511309
0.000511309
0.000511309
0.000511309
0.000511309
0.000511309
0.000511309
0.000511309
0.000511309
0.000511309
0.000511309
0.000511309
0.000511309
0.000511309
0.000511309
0.000511309
0.000511309
0.000511309
0.000511309
0.000511309
0.000511309
0.000511309
0.000511309
0.000511309
0.000511309
0.000511309
0.000511309
0.000511309
0.000511309
0.000511309
0.000511309
0.000511309
0.000511309
0.000511309
0.000511309
0.000511309
0.000511309
0.000511309
0.000511309
0.000511309
0.000511309
0.000511309
0.000511309
0.000511309
0.000511309
0.000511309
0.000511309
0.000511309
0.000511309
0.000511309
0.000511309
0.000511309
0.000511309
0.000511309
0.000511309
0.000511309
0.000511309
0.000511309
0.000511309
0.000511309
0.000511309
0.000511309
0.000511309
0.000511309
0.000511309
0.000511309
0.000511309
0.000511309
0.000511309
0.000511309
0.000511309
0.000511309
0.000511309
0.000511309
0.000511309
0.000511309
0.000511309
0.000511309
0.000511309
0.000511309
0.000511309
0.000511309
0.000511309
0.000511309
0.000511309
0.000511309
0.000511309
0.000511309
0.000511309
0.000511309
0.000511309
0.000511309
0.000511309
0.000511309
0.000511309
0.000511309
0.000511309
0.000511309
0.000511309
0.000511309
0.000511309
0.000511309
0.000511309
0.000511309
0.000511309
0.000511309
0.000511309
0.000511309
0.000511309
0.000511309
0.000511309
0.000511309
0.000511309
0.000511309
0.000511309
0.000511309
0.000511309
0.000511309
0.000511309
0.000511309
0.000511309
0.000511309
0.000511309
0.000511309
0.000511309
0.000511309
0.000511309
0.000511309
0.000511309
0.000511309
0.000511309
0.000511309
0.000511309
0.000511309
0.000511309
0.000511309
0.000511309
0.000511309
0.000511309
0.000511309
0.000511309
0.000511309
0.000511309
0.000511309
0.000511309
0.000511309
0.000511309
0.000511309
0.000511309
0.000511309
0.000511309
0.000511309
0.000511309
0.000511309
0.000511309
0.000511309
0.000511309
0.000511309
0.000511309
0.000511309
0.000511309
0.000511309
0.000511309
0.000511309
0.000511309
0.000511309
0.000511309
0.000511309
0.000511309
0.000511309
0.000511309
0.000511309
0.000511309
0.000511309
0.000511309
0.000511309
0.000511309
0.000511309
0.000511309
0.000511309
0.000511309
0.000511309
0.000511309
0.000511309
0.000511309
0.000511309
0.000511309
0.000511309
0.000511309
0.000511309
0.000511309
0.000511309
0.000511309
0.000511309
0.000511309
0.000511309
0.000511309
0.000511309
0.000511309
0.000511309
0.000511309
0.00051131
0.00051131
0.00051131
0.000511309
0.000511309
0.000511309
0.000511309
0.000511309
0.000511309
0.000511309
0.000511309
0.000511309
0.000511309
0.000511309
0.000511309
0.000511309
0.000511309
0.000511309
0.000511309
0.000511309
0.000511309
0.000511309
0.000511309
0.000511309
0.000511309
0.000511309
0.000511309
0.000511309
0.000511309
0.000511309
0.000511309
0.000511309
0.000511309
0.000511309
0.000511309
0.000511309
0.000511309
0.000511309
0.000511309
0.000511309
0.000511309
0.000511309
0.000511309
0.000511309
0.000511309
0.000511309
0.000511309
0.00051131
0.00051131
0.00051131
0.00051131
0.000511311
0.000511313
0.000511309
0.000511309
0.000511309
0.000511309
0.000511309
0.000511309
0.000511309
0.000511309
0.000511309
0.000511309
0.000511309
0.000511309
0.000511309
0.000511309
0.000511309
0.000511309
0.000511309
0.000511309
0.000511309
0.000511309
0.000511309
0.000511309
0.000511309
0.000511309
0.000511309
0.000511309
0.000511309
0.000511309
0.000511309
0.000511309
0.000511309
0.000511309
0.000511309
0.000511309
0.000511309
0.000511309
0.000511309
0.000511309
0.000511309
0.000511309
0.000511309
0.00051131
0.00051131
0.00051131
0.00051131
0.000511311
0.000511312
0.000511314
0.000511319
0.000511327
0.000511309
0.000511309
0.000511309
0.000511309
0.000511309
0.000511309
0.000511309
0.000511309
0.000511309
0.000511309
0.000511309
0.000511309
0.000511309
0.000511309
0.000511309
0.000511309
0.000511309
0.000511309
0.000511309
0.000511309
0.000511309
0.000511309
0.000511309
0.000511309
0.000511309
0.000511309
0.000511309
0.000511309
0.000511309
0.000511309
0.000511309
0.000511309
0.000511309
0.000511309
0.000511309
0.000511309
0.000511309
0.000511309
0.00051131
0.00051131
0.00051131
0.00051131
0.000511311
0.000511312
0.000511314
0.000511318
0.000511325
0.000511337
0.00051136
0.000511404
0.000511309
0.000511309
0.000511309
0.000511309
0.000511309
0.000511309
0.000511309
0.000511309
0.000511309
0.000511309
0.000511309
0.000511309
0.000511309
0.000511309
0.000511309
0.000511309
0.000511309
0.000511309
0.000511309
0.000511309
0.000511309
0.000511309
0.000511309
0.000511309
0.000511309
0.000511309
0.000511309
0.000511309
0.000511309
0.000511309
0.000511309
0.000511309
0.000511309
0.000511309
0.000511309
0.00051131
0.00051131
0.00051131
0.00051131
0.000511311
0.000511312
0.000511314
0.000511318
0.000511324
0.000511336
0.000511356
0.000511392
0.000511456
0.000511571
0.000511798
0.000511309
0.000511309
0.000511309
0.000511309
0.000511309
0.000511309
0.000511309
0.000511309
0.000511309
0.000511309
0.000511309
0.000511309
0.000511309
0.000511309
0.000511309
0.000511309
0.000511309
0.000511309
0.000511309
0.000511309
0.000511309
0.000511309
0.000511309
0.000511309
0.000511309
0.000511309
0.000511309
0.000511309
0.000511309
0.000511309
0.000511309
0.000511309
0.00051131
0.00051131
0.00051131
0.00051131
0.000511311
0.000511312
0.000511314
0.000511318
0.000511324
0.000511335
0.000511354
0.000511388
0.000511447
0.00051155
0.000511733
0.000512055
0.000512621
0.000513694
0.000511309
0.000511309
0.000511309
0.000511309
0.000511309
0.000511309
0.000511309
0.000511309
0.000511309
0.000511309
0.000511309
0.000511309
0.000511309
0.000511309
0.000511309
0.000511309
0.000511309
0.000511309
0.000511309
0.000511309
0.000511309
0.000511309
0.000511309
0.000511309
0.000511309
0.000511309
0.000511309
0.000511309
0.000511309
0.00051131
0.00051131
0.00051131
0.00051131
0.000511311
0.000511312
0.000511314
0.000511318
0.000511324
0.000511335
0.000511353
0.000511385
0.000511441
0.000511538
0.000511706
0.000511999
0.000512506
0.000513382
0.000514873
0.000517368
0.000521689
0.000511309
0.000511309
0.000511309
0.000511309
0.000511309
0.000511309
0.000511309
0.000511309
0.000511309
0.000511309
0.000511309
0.000511309
0.000511309
0.000511309
0.000511309
0.000511309
0.000511309
0.000511309
0.000511309
0.000511309
0.000511309
0.000511309
0.000511309
0.000511309
0.000511309
0.000511309
0.00051131
0.00051131
0.00051131
0.00051131
0.000511311
0.000511313
0.000511315
0.000511318
0.000511325
0.000511335
0.000511354
0.000511385
0.000511439
0.000511532
0.000511691
0.000511964
0.000512433
0.000513231
0.000514577
0.000516806
0.0005204
0.000525983
0.000534282
0.000546815
0.000511309
0.000511309
0.000511309
0.000511309
0.000511309
0.000511309
0.000511309
0.000511309
0.000511309
0.000511309
0.000511309
0.000511309
0.000511309
0.000511309
0.000511309
0.000511309
0.000511309
0.000511309
0.000511309
0.000511309
0.000511309
0.000511309
0.00051131
0.00051131
0.00051131
0.00051131
0.000511311
0.000511311
0.000511313
0.000511315
0.000511319
0.000511326
0.000511337
0.000511355
0.000511387
0.00051144
0.000511531
0.000511685
0.000511947
0.00051239
0.000513137
0.000514383
0.000516429
0.000519701
0.000524761
0.000532275
0.000542965
0.000557606
0.000576667
0.000602489
0.000511309
0.000511309
0.000511309
0.000511309
0.000511309
0.000511309
0.000511309
0.000511309
0.000511309
0.000511309
0.000511309
0.000511309
0.000511309
0.000511309
0.000511309
0.000511309
0.000511309
0.000511309
0.000511309
0.00051131
0.00051131
0.00051131
0.00051131
0.000511311
0.000511312
0.000511313
0.000511316
0.00051132
0.000511327
0.000511339
0.000511358
0.000511391
0.000511445
0.000511536
0.000511689
0.000511946
0.000512376
0.000513092
0.000514273
0.000516192
0.000519236
0.000523911
0.000530818
0.000540607
0.000553936
0.000571434
0.000593673
0.000621474
0.000655544
0.000700102
0.000511309
0.000511309
0.000511309
0.000511309
0.000511309
0.000511309
0.000511309
0.000511309
0.000511309
0.000511309
0.000511309
0.000511309
0.000511309
0.000511309
0.000511309
0.00051131
0.00051131
0.00051131
0.00051131
0.00051131
0.000511311
0.000511312
0.000511314
0.000511317
0.000511321
0.000511329
0.000511342
0.000511362
0.000511397
0.000511454
0.000511548
0.000511703
0.000511961
0.000512388
0.00051309
0.000514235
0.000516075
0.000518963
0.000523362
0.000529819
0.000538923
0.000551271
0.000567448
0.000587994
0.000613501
0.000644848
0.000683251
0.000730132
0.000785696
0.000860752
0.000511309
0.000511309
0.000511309
0.000511309
0.000511309
0.000511309
0.000511309
0.000511309
0.000511309
0.000511309
0.000511309
0.000511309
0.00051131
0.00051131
0.00051131
0.00051131
0.000511311
0.000511311
0.000511313
0.000511315
0.000511318
0.000511323
0.000511332
0.000511346
0.000511369
0.000511406
0.000511466
0.000511565
0.000511728
0.000511993
0.000512427
0.000513132
0.000514268
0.00051607
0.000518868
0.000523088
0.00052923
0.000537831
0.000549429
0.000564549
0.000583699
0.000607376
0.000636251
0.000671425
0.00071409
0.000765437
0.000827738
0.000906988
0.00100855
0.00115046
0.000511309
0.000511309
0.000511309
0.000511309
0.000511309
0.000511309
0.000511309
0.000511309
0.00051131
0.00051131
0.00051131
0.00051131
0.00051131
0.000511311
0.000511312
0.000511313
0.000511316
0.00051132
0.000511326
0.000511336
0.000511352
0.000511377
0.000511418
0.000511484
0.000511591
0.000511765
0.000512044
0.000512496
0.00051322
0.000514372
0.000516177
0.000518943
0.000523064
0.000529001
0.000537241
0.000548267
0.000562545
0.000580547
0.000602723
0.000629629
0.000662127
0.0007015
0.000748787
0.000805518
0.000875355
0.0009648
0.0010808
0.00122852
0.00140287
0.00160638
0.000511309
0.000511309
0.000511309
0.000511309
0.00051131
0.00051131
0.00051131
0.00051131
0.00051131
0.000511311
0.000511311
0.000511313
0.000511315
0.000511317
0.000511322
0.000511329
0.000511341
0.000511359
0.000511389
0.000511435
0.000511509
0.000511628
0.000511817
0.000512119
0.000512599
0.00051336
0.000514554
0.000516398
0.000519185
0.000523282
0.000529112
0.000537121
0.000547741
0.000561392
0.000578494
0.000599481
0.000624816
0.00065519
0.000691735
0.000735593
0.000787886
0.000850939
0.00092983
0.00103136
0.00116128
0.00132111
0.00150462
0.00169943
0.00188491
0.00205306
0.000511309
0.000511309
0.00051131
0.00051131
0.00051131
0.00051131
0.000511311
0.000511311
0.000511312
0.000511314
0.000511316
0.00051132
0.000511325
0.000511334
0.000511348
0.00051137
0.000511404
0.000511458
0.000511543
0.000511677
0.000511889
0.000512222
0.000512745
0.000513562
0.000514825
0.000516747
0.000519608
0.000523752
0.000529568
0.000537464
0.000547825
0.000561022
0.000577426
0.000597441
0.000621476
0.000650106
0.000684251
0.00072516
0.000773819
0.000831781
0.000902684
0.00099249
0.00110742
0.00125102
0.00142119
0.00160839
0.00179766
0.00197168
0.00211826
0.00222913
0.00230652
0.00051131
0.00051131
0.00051131
0.000511311
0.000511312
0.000511313
0.000511315
0.000511318
0.000511323
0.00051133
0.000511341
0.000511358
0.000511385
0.000511426
0.00051149
0.00051159
0.000511745
0.000511986
0.000512362
0.000512944
0.00051384
0.000515204
0.000517246
0.000520235
0.000524494
0.000530382
0.000538263
0.000548486
0.000561369
0.000577246
0.000596482
0.000619474
0.000646711
0.000678948
0.000717379
0.000763026
0.000817031
0.000881849
0.000962393
0.00106472
0.00119354
0.00134948
0.00152675
0.00171324
0.00189314
0.00205192
0.00217971
0.00227361
0.00233504
0.00237008
0.00238573
0.000511311
0.000511312
0.000511313
0.000511315
0.000511317
0.000511321
0.000511327
0.000511337
0.000511351
0.000511372
0.000511405
0.000511456
0.000511534
0.000511653
0.000511836
0.000512119
0.000512551
0.000513213
0.000514215
0.000515715
0.000517922
0.000521096
0.000525537
0.000531574
0.000539534
0.000549725
0.000562429
0.000577939
0.00059659
0.000618766
0.000644892
0.000675611
0.000711938
0.000755006
0.000805767
0.000865913
0.000939253
0.0010313
0.00114727
0.00128954
0.00145535
0.00163559
0.00181674
0.00198375
0.00212527
0.00223433
0.00231187
0.00235902
0.00238578
0.00239439
0.00239648
0.00239861
0.000511317
0.00051132
0.000511326
0.000511334
0.000511346
0.000511365
0.000511392
0.000511434
0.000511498
0.000511594
0.00051174
0.000511962
0.000512299
0.000512808
0.000513574
0.000514716
0.000516394
0.000518818
0.000522234
0.000526926
0.000533189
0.000541315
0.000551575
0.000564217
0.000579498
0.000597722
0.000619257
0.000644491
0.000673977
0.000708578
0.000749469
0.00079754
0.000854065
0.000921839
0.00100566
0.00111076
0.00124056
0.00139452
0.0015665
0.00174516
0.00191653
0.0020678
0.00219078
0.00228226
0.00234396
0.00237948
0.00239792
0.00240165
0.00240464
0.00240466
0.00240032
0.00238869
0.000511344
0.00051136
0.000511385
0.000511421
0.000511476
0.000511557
0.000511679
0.000511862
0.000512136
0.000512546
0.000513157
0.00051406
0.000515382
0.000517289
0.000519985
0.00052371
0.000528722
0.000535284
0.000543656
0.00055407
0.000566746
0.000581909
0.000599842
0.000620889
0.000645428
0.000673945
0.000707186
0.000746263
0.000792114
0.000845748
0.000909199
0.000986499
0.0010826
0.00120149
0.00134412
0.00150674
0.00168034
0.00185257
0.00201046
0.00214428
0.00224838
0.00232307
0.00237032
0.00239687
0.00240725
0.00240935
0.00241221
0.00241035
0.00240308
0.00239026
0.00237343
0.00235191
0.000511463
0.000511535
0.000511642
0.0005118
0.000512034
0.000512379
0.000512887
0.000513632
0.000514714
0.000516268
0.000518462
0.000521497
0.000525596
0.000530995
0.000537926
0.000546611
0.000557254
0.000570047
0.000585194
0.000602959
0.00062367
0.000647696
0.000675469
0.000707653
0.000745241
0.000789239
0.000840507
0.00090059
0.000972758
0.00106156
0.00117114
0.00130345
0.00145651
0.00162356
0.0017939
0.00195524
0.00209678
0.002212
0.0022983
0.00235721
0.00239208
0.00241061
0.00241519
0.00241732
0.00241859
0.00241495
0.00240562
0.00239117
0.00237343
0.00235241
0.00233047
0.00230672
0.000511974
0.000512278
0.000512721
0.000513362
0.000514285
0.000515599
0.000517446
0.000519994
0.000523437
0.00052798
0.000533831
0.00054119
0.00055025
0.000561189
0.000574178
0.000589402
0.000607112
0.000627621
0.000651287
0.000678502
0.000709866
0.000746272
0.000788756
0.000838099
0.000895541
0.000963692
0.00104663
0.00114846
0.00127168
0.0014156
0.00157532
0.00174183
0.00190395
0.00205079
0.00217453
0.0022709
0.00234032
0.00238506
0.00241029
0.00242065
0.0024231
0.00242603
0.00242449
0.00241804
0.00240691
0.00239172
0.00237323
0.00235232
0.0023306
0.00230823
0.00228608
0.0022628
0.000514028
0.000515185
0.000516797
0.000519008
0.000521985
0.000525909
0.000530963
0.000537327
0.000545172
0.000554663
0.000565958
0.00057921
0.00059459
0.000612338
0.000632756
0.000656195
0.000683018
0.000713777
0.000749286
0.000790575
0.000838383
0.000893742
0.00095876
0.00103704
0.00113252
0.00124794
0.00138351
0.00153575
0.0016973
0.00185816
0.00200775
0.00213751
0.00224253
0.00232127
0.00237514
0.00240749
0.00242463
0.00242928
0.00243141
0.00243272
0.00242938
0.00242105
0.00240825
0.0023924
0.00237312
0.0023524
0.00233106
0.00230929
0.00228748
0.0022656
0.00224418
0.00222179
0.000521073
0.000524559
0.000529037
0.000534665
0.000541596
0.000549974
0.000559942
0.00057164
0.000585209
0.000600813
0.000618682
0.000639115
0.000662456
0.000689051
0.000719407
0.000754275
0.000794656
0.000841268
0.000894993
0.000957579
0.00103221
0.00112256
0.00123145
0.00135963
0.0015047
0.00166069
0.00181878
0.00196909
0.00210293
0.0022145
0.0023009
0.00236298
0.00240318
0.00242589
0.00243497
0.0024376
0.0024404
0.00243883
0.00243283
0.00242275
0.00240904
0.00239226
0.00237298
0.00235278
0.00233182
0.00231055
0.00228927
0.00226803
0.00224691
0.0022258
0.00220514
0.00218355
0.000546755
0.000555701
0.000566182
0.000578323
0.000592258
0.000608147
0.000626222
0.000646779
0.000670148
0.000696662
0.000726794
0.00076125
0.000800973
0.000846685
0.000899165
0.000959905
0.00103172
0.00111801
0.00122154
0.00134337
0.00148185
0.00163212
0.0017865
0.00193595
0.00207187
0.00218793
0.00228075
0.00235004
0.00239714
0.00242537
0.0024399
0.00244407
0.00244625
0.00244718
0.00244383
0.00243604
0.00242445
0.00240998
0.00239226
0.00237304
0.00235313
0.00233266
0.00231201
0.0022913
0.00227062
0.00225001
0.00222947
0.00220907
0.00218865
0.00216864
0.00214775
0.000586109
0.000600459
0.000616698
0.000635062
0.000655843
0.000679356
0.000705918
0.000735984
0.000770232
0.000809551
0.000854647
0.000906225
0.000965615
0.00103532
0.00111847
0.0012177
0.00133417
0.00146677
0.00161149
0.00176166
0.00190905
0.00204541
0.00216431
0.00226193
0.00233676
0.00238995
0.00242412
0.0024432
0.00245026
0.00245286
0.00245528
0.00245338
0.00244735
0.00243799
0.0024255
0.0024101
0.00239227
0.00237349
0.00235386
0.00233382
0.00231368
0.00229353
0.00227339
0.00225331
0.00223328
0.00221333
0.00219343
0.00217364
0.00215383
0.00213441
0.00211416
0.00064531
0.000666406