/*--------------------------------*- C++ -*----------------------------------*\
| =========                 |                                                 |
| \\      /  F ield         | OpenFOAM: The Open Source CFD Toolbox           |
|  \\    /   O peration     | Version:  v1706                                 |
|   \\  /    A nd           | Web:      www.OpenFOAM.com                      |
|    \\/     M anipulation  |                                                 |
\*---------------------------------------------------------------------------*/
FoamFile
{
    version     2.0;
    format      ascii;
    class       volScalarField;
    location    "1.1e-05";
    object      Tov;
}
// * * * * * * * * * * * * * * * * * * * * * * * * * * * * * * * * * * * * * //

dimensions      [0 0 0 1 0 0 0];


internalField   nonuniform List<scalar> 
30038
(
144.4
144.4
144.4
144.4
144.4
144.4
144.4
144.4
144.4
144.4
144.4
144.4
144.4
144.4
144.4
144.4
144.4
144.4
144.4
144.4
144.4
144.4
144.4
144.4
144.4
144.4
144.4
144.4
144.4
144.4
144.4
144.4
144.4
144.4
144.4
144.4
144.4
144.4
144.4
144.4
144.4
144.4
144.4
144.4
144.4
144.4
144.4
144.4
144.4
144.4
144.4
144.4
144.4
144.4
144.4
144.4
144.4
144.4
144.4
144.4
144.4
144.4
144.4
144.4
144.4
144.4
144.4
144.4
144.4
144.4
144.4
144.4
144.4
144.4
144.4
144.4
144.4
144.4
144.4
144.4
144.4
144.4
144.4
144.4
144.4
144.4
144.4
144.4
144.4
144.4
144.4
144.4
144.4
144.4
144.4
144.4
144.4
144.4
144.4
144.4
144.4
144.4
144.4
144.4
144.4
144.4
144.4
144.4
144.4
144.4
144.4
144.4
144.4
144.4
144.4
144.4
144.4
144.4
144.4
144.4
144.4
144.4
144.4
144.4
144.4
144.4
144.4
144.4
144.4
144.4
144.4
144.4
144.4
144.4
144.4
144.4
144.4
144.4
144.4
144.4
144.4
144.4
144.4
144.4
144.4
144.4
144.4
144.4
144.4
144.4
144.4
144.4
144.4
144.4
144.4
144.4
144.4
144.4
144.4
144.4
144.4
144.4
144.4
144.4
144.4
144.4
144.4
144.4
144.4
144.4
144.4
144.4
144.4
144.4
144.4
144.4
144.4
144.4
144.4
144.4
144.4
144.4
144.4
144.4
144.4
144.4
144.4
144.4
144.4
144.4
144.4
144.4
144.4
144.4
144.4
144.4
144.4
144.4
144.4
144.4
144.4
144.4
144.4
144.4
144.4
144.4
144.4
144.4
144.4
144.4
144.4
144.4
144.4
144.4
144.4
144.4
144.4
144.4
144.4
144.4
144.4
144.4
144.4
144.4
144.4
144.4
144.4
144.4
144.4
144.4
144.4
144.4
144.4
144.4
144.4
144.4
144.4
144.4
144.4
144.4
144.4
144.4
144.4
144.4
144.4
144.4
144.4
144.4
144.4
144.4
144.4
144.4
144.4
144.4
144.4
144.4
144.4
144.4
144.4
144.4
144.4
144.4
144.4
144.4
144.4
144.4
144.4
144.4
144.4
144.4
144.4
144.4
144.4
144.4
144.4
144.4
144.4
144.4
144.4
144.4
144.4
144.4
144.4
144.4
144.4
144.4
144.4
144.4
144.4
144.4
144.4
144.4
144.4
144.4
144.4
144.4
144.4
144.4
144.4
144.4
144.4
144.4
144.4
144.4
144.4
144.4
144.4
144.4
144.4
144.4
144.4
144.4
144.4
144.4
144.4
144.4
144.4
144.4
144.4
144.4
144.4
144.4
144.4
144.4
144.4
144.4
144.4
144.4
144.4
144.4
144.4
144.4
144.4
144.4
144.4
144.4
144.4
144.4
144.4
144.4
144.4
144.4
144.4
144.4
144.4
144.4
144.4
144.4
144.4
144.4
144.4
144.4
144.4
144.4
144.4
144.4
144.4
144.4
144.4
144.4
144.4
144.4
144.4
144.4
144.4
144.4
144.4
144.4
144.4
144.4
144.4
144.4
144.4
144.4
144.4
144.4
144.4
144.4
144.4
144.4
144.4
144.4
144.4
144.4
144.4
144.4
144.4
144.4
144.4
144.4
144.4
144.4
144.4
144.4
144.4
144.4
144.4
144.4
144.4
144.4
144.4
144.4
144.4
144.4
144.4
144.4
144.4
144.4
144.4
144.4
144.4
144.4
144.4
144.4
144.4
144.4
144.4
144.4
144.4
144.4
144.4
144.4
144.4
144.4
144.4
144.4
144.4
144.4
144.4
144.4
144.4
144.4
144.4
144.4
144.4
144.4
144.4
144.4
144.4
144.4
144.4
144.4
144.4
144.4
144.4
144.4
144.4
144.4
144.4
144.4
144.4
144.4
144.4
144.4
144.4
144.4
144.4
144.4
144.4
144.4
144.4
144.4
144.4
144.4
144.4
144.4
144.4
144.4
144.4
144.4
144.4
144.4
144.4
144.4
144.4
144.4
144.4
144.4
144.4
144.4
144.4
144.4
144.4
144.4
144.4
144.4
144.4
144.4
144.4
144.4
144.4
144.4
144.4
144.4
144.4
144.4
144.4
144.4
144.4
144.4
144.4
144.4
144.4
144.4
144.4
144.4
144.4
144.4
144.4
144.4
144.4
144.4
144.4
144.4
144.4
144.4
144.4
144.4
144.4
144.4
144.4
144.4
144.4
144.4
144.4
144.4
144.4
144.4
144.4
144.4
144.4
144.4
144.4
144.4
144.4
144.4
144.4
144.4
144.4
144.4
144.4
144.4
144.4
144.4
144.4
144.4
144.4
144.4
144.4
144.4
144.4
144.4
144.4
144.4
144.4
144.4
144.4
144.4
144.4
144.4
144.4
144.4
144.4
144.4
144.4
144.4
144.4
144.4
144.4
144.4
144.4
144.4
144.4
144.4
144.4
144.4
144.4
144.4
144.4
144.4
144.4
144.4
144.4
144.4
144.4
144.4
144.4
144.4
144.4
144.4
144.4
144.4
144.4
144.4
144.4
144.4
144.4
144.4
144.4
144.4
144.4
144.4
144.4
144.4
144.4
144.4
144.4
144.4
144.4
144.4
144.4
144.4
144.4
144.4
144.4
144.4
144.4
144.4
144.4
144.4
144.4
144.4
144.4
144.4
144.4
144.4
144.4
144.4
144.4
144.4
144.4
144.4
144.4
144.4
144.4
144.4
144.4
144.4
144.4
144.4
144.4
144.4
144.4
144.4
144.4
144.4
144.4
144.4
144.4
144.4
144.4
144.4
144.4
144.4
144.4
144.4
144.4
144.4
144.4
144.4
144.4
144.4
144.4
144.4
144.4
144.4
144.4
144.4
144.4
144.4
144.4
144.4
144.4
144.4
144.4
144.4
144.4
144.4
144.4
144.4
144.4
144.4
144.4
144.4
144.4
144.4
144.4
144.4
144.4
144.4
144.4
144.4
144.4
144.4
144.4
144.4
144.4
144.4
144.4
144.4
144.4
144.4
144.4
144.4
144.4
144.4
144.4
144.4
144.4
144.4
144.4
144.4
144.4
144.4
144.4
144.4
144.4
144.4
144.4
144.4
144.4
144.4
144.4
144.4
144.4
144.4
144.4
144.4
144.4
144.4
144.4
144.4
144.4
144.4
144.4
144.4
144.4
144.4
144.4
144.4
144.4
144.4
144.4
144.4
144.4
144.4
144.4
144.4
144.4
144.4
144.4
144.4
144.4
144.4
144.4
144.4
144.4
144.4
144.4
144.4
144.4
144.4
144.4
144.4
144.4
144.4
144.4
144.4
144.4
144.4
144.4
144.4
144.4
144.4
144.4
144.4
144.4
144.4
144.4
144.4
144.4
144.4
144.4
144.4
144.4
144.4
144.4
144.4
144.4
144.4
144.4
144.4
144.4
144.4
144.4
144.4
144.4
144.4
144.4
144.4
144.4
144.4
144.4
144.4
144.4
144.4
144.4
144.4
144.4
144.4
144.4
144.4
144.4
144.4
144.4
144.4
144.4
144.4
144.4
144.4
144.4
144.4
144.4
144.4
144.4
144.4
144.4
144.4
144.4
144.4
144.4
144.4
144.4
144.4
144.4
144.4
144.4
144.4
144.4
144.4
144.4
144.4
144.4
144.4
144.4
144.4
144.4
144.4
144.4
144.4
144.4
144.4
144.4
144.4
144.4
144.4
144.4
144.4
144.4
144.4
144.4
144.4
144.4
144.4
144.4
144.4
144.4
144.4
144.4
144.4
144.4
144.4
144.4
144.4
144.4
144.4
144.4
144.4
144.4
144.4
144.4
144.4
144.4
144.4
144.4
144.4
144.4
144.4
144.4
144.4
144.4
144.4
144.4
144.4
144.4
144.4
144.4
144.4
144.4
144.4
144.4
144.4
144.4
144.4
144.4
144.4
144.4
144.4
144.4
144.4
144.4
144.4
144.4
144.4
144.4
144.4
144.4
144.4
144.4
144.4
144.4
144.4
144.4
144.4
144.4
144.4
144.4
144.4
144.4
144.4
144.4
144.4
144.4
144.4
144.4
144.4
144.4
144.4
144.4
144.4
144.4
144.4
144.4
144.4
144.4
144.4
144.4
144.4
144.4
144.4
144.4
144.4
144.4
144.4
144.4
144.4
144.4
144.4
144.4
144.4
144.4
144.4
144.4
144.4
144.4
144.4
144.4
144.4
144.4
144.4
144.4
144.4
144.4
144.4
144.4
144.4
144.4
144.4
144.4
144.4
144.4
144.4
144.4
144.4
144.4
144.4
144.4
144.4
144.4
144.4
144.4
144.4
144.4
144.4
144.4
144.4
144.4
144.4
144.4
144.4
144.4
144.4
144.4
144.4
144.4
144.4
144.4
144.4
144.4
144.4
144.4
144.4
144.4
144.4
144.4
144.4
144.4
144.4
144.4
144.4
144.4
144.4
144.4
144.4
144.4
144.4
144.4
144.4
144.4
144.4
144.4
144.4
144.4
144.4
144.4
144.4
144.4
144.4
144.4
144.4
144.4
144.4
144.4
144.4
144.4
144.4
144.4
144.4
144.4
144.4
144.4
144.4
144.4
144.4
144.4
144.4
144.4
144.4
144.4
144.4
144.4
144.4
144.4
144.4
144.4
144.4
144.4
144.4
144.4
144.4
144.4
144.4
144.4
144.4
144.4
144.4
144.4
144.4
144.4
144.4
144.4
144.4
144.4
144.4
144.4
144.4
144.4
144.4
144.4
144.4
144.4
144.4
144.4
144.4
144.4
144.4
144.4
144.4
144.4
144.4
144.4
144.4
144.4
144.4
144.4
144.4
144.4
144.4
144.4
144.4
144.4
144.4
144.4
144.4
144.4
144.4
144.4
144.4
144.4
144.4
144.4
144.4
144.4
144.4
144.4
144.4
144.4
144.4
144.4
144.4
144.4
144.4
144.4
144.4
144.4
144.4
144.4
144.4
144.4
144.4
144.4
144.4
144.4
144.4
144.4
144.4
144.4
144.4
144.4
144.4
144.4
144.4
144.4
144.4
144.4
144.4
144.4
144.4
144.4
144.4
144.4
144.4
144.4
144.4
144.4
144.4
144.4
144.4
144.4
144.4
144.4
144.4
144.4
144.4
144.4
144.4
144.4
144.4
144.4
144.4
144.4
144.4
144.4
144.4
144.4
144.4
144.4
144.4
144.4
144.4
144.4
144.401
144.4
144.4
144.4
144.4
144.4
144.4
144.4
144.4
144.4
144.4
144.4
144.4
144.4
144.4
144.4
144.4
144.4
144.4
144.4
144.4
144.4
144.4
144.4
144.4
144.4
144.4
144.4
144.4
144.4
144.4
144.4
144.4
144.4
144.4
144.4
144.4
144.4
144.4
144.4
144.4
144.4
144.4
144.4
144.4
144.4
144.4
144.4
144.401
144.402
144.403
144.4
144.4
144.4
144.4
144.4
144.4
144.4
144.4
144.4
144.4
144.4
144.4
144.4
144.4
144.4
144.4
144.4
144.4
144.4
144.4
144.4
144.4
144.4
144.4
144.4
144.4
144.4
144.4
144.4
144.4
144.4
144.4
144.4
144.4
144.4
144.4
144.4
144.4
144.4
144.4
144.4
144.4
144.4
144.4
144.401
144.402
144.403
144.405
144.409
144.418
144.4
144.4
144.4
144.4
144.4
144.4
144.4
144.4
144.4
144.4
144.4
144.4
144.4
144.4
144.4
144.4
144.4
144.4
144.4
144.4
144.4
144.4
144.4
144.4
144.4
144.4
144.4
144.4
144.4
144.4
144.4
144.4
144.4
144.4
144.4
144.4
144.4
144.4
144.4
144.4
144.4
144.401
144.402
144.403
144.405
144.409
144.416
144.429
144.454
144.503
144.4
144.4
144.4
144.4
144.4
144.4
144.4
144.4
144.4
144.4
144.4
144.4
144.4
144.4
144.4
144.4
144.4
144.4
144.4
144.4
144.4
144.4
144.4
144.4
144.4
144.4
144.4
144.4
144.4
144.4
144.4
144.4
144.4
144.4
144.4
144.4
144.4
144.401
144.401
144.402
144.403
144.405
144.409
144.416
144.428
144.451
144.492
144.567
144.705
144.977
144.4
144.4
144.4
144.4
144.4
144.4
144.4
144.4
144.4
144.4
144.4
144.4
144.4
144.4
144.4
144.4
144.4
144.4
144.4
144.4
144.4
144.4
144.4
144.4
144.4
144.4
144.4
144.4
144.4
144.4
144.4
144.4
144.4
144.4
144.401
144.401
144.402
144.403
144.405
144.409
144.416
144.428
144.45
144.489
144.559
144.685
144.912
145.323
146.078
147.527
144.4
144.4
144.4
144.4
144.4
144.4
144.4
144.4
144.4
144.4
144.4
144.4
144.4
144.4
144.4
144.4
144.4
144.4
144.4
144.4
144.4
144.4
144.4
144.4
144.4
144.4
144.4
144.4
144.4
144.4
144.4
144.401
144.401
144.402
144.403
144.406
144.41
144.417
144.429
144.451
144.489
144.557
144.677
144.891
145.273
145.954
147.172
149.35
153.256
160.39
144.4
144.4
144.4
144.4
144.4
144.4
144.4
144.4
144.4
144.4
144.4
144.4
144.4
144.4
144.4
144.4
144.4
144.4
144.4
144.4
144.4
144.4
144.4
144.4
144.4
144.4
144.4
144.4
144.401
144.401
144.402
144.404
144.406
144.41
144.418
144.431
144.453
144.491
144.559
144.677
144.885
145.25
145.894
147.03
149.03
152.539
158.633
169.042
186.394
214.482
144.4
144.4
144.4
144.4
144.4
144.4
144.4
144.4
144.4
144.4
144.4
144.4
144.4
144.4
144.4
144.4
144.4
144.4
144.4
144.4
144.4
144.4
144.4
144.4
144.401
144.401
144.401
144.402
144.404
144.407
144.411
144.419
144.433
144.456
144.496
144.565
144.684
144.891
145.25
145.875
146.964
148.859
152.141
157.777
167.292
182.936
207.68
244.914
297.853
368.674
144.4
144.4
144.4
144.4
144.4
144.4
144.4
144.4
144.4
144.4
144.4
144.4
144.4
144.4
144.4
144.4
144.4
144.4
144.4
144.4
144.4
144.401
144.401
144.402
144.403
144.405
144.408
144.413
144.422
144.437
144.462
144.504
144.576
144.7
144.911
145.273
145.896
146.967
148.808
151.959
157.308
166.249
180.827
203.749
238.114
286.806
351.737
433.323
530.536
640.982
144.4
144.4
144.4
144.4
144.4
144.4
144.4
144.4
144.4
144.4
144.4
144.4
144.4
144.4
144.4
144.4
144.4
144.4
144.401
144.401
144.402
144.403
144.406
144.409
144.415
144.425
144.442
144.469
144.515
144.593
144.724
144.945
145.32
145.956
147.037
148.871
151.973
157.176
165.777
179.668
201.351
233.714
279.501
340.616
417.582
509.43
614.029
728.624
850.415
976.314
144.4
144.4
144.4
144.4
144.4
144.4
144.4
144.4
144.4
144.4
144.4
144.4
144.4
144.4
144.401
144.401
144.402
144.403
144.404
144.407
144.411
144.418
144.43
144.448
144.479
144.531
144.616
144.759
144.996
145.394
146.061
147.18
149.054
152.183
157.367
165.835
179.362
200.281
231.289
274.979
333.217
406.639
494.505
594.935
705.347
822.901
944.784
1068.18
1190.41
1309.37
144.4
144.4
144.4
144.4
144.4
144.4
144.4
144.4
144.4
144.4
144.401
144.401
144.401
144.402
144.403
144.405
144.409
144.414
144.422
144.436
144.458
144.494
144.553
144.649
144.808
145.07
145.502
146.219
147.405
149.368
152.603
157.893
166.422
179.879
200.462
230.689
272.989
329.138
399.808
484.421
581.336
688.222
802.444
921.36
1042.33
1162.66
1279.92
1391.9
1495.86
1589.41
144.4
144.4
144.4
144.4
144.4
144.4
144.4
144.401
144.401
144.402
144.403
144.404
144.407
144.411
144.418
144.428
144.444
144.471
144.513
144.582
144.694
144.876
145.171
145.654
146.443
147.733
149.839
153.264
158.787
167.573
181.247
201.893
231.867
273.42
328.199
396.848
478.876
572.825
676.586
787.75
903.859
1022.53
1141.28
1257.73
1369.68
1474.88
1570.48
1653.65
1722.21
1776.71
144.4
144.4
144.4
144.401
144.401
144.402
144.403
144.404
144.406
144.409
144.415
144.423
144.436
144.456
144.489
144.541
144.623
144.756
144.968
145.31
145.862
146.752
148.188
150.502
154.214
160.115
169.363
183.543
204.642
234.863
276.268
330.342
397.65
477.731
569.257
670.312
778.688
892.114
1008.4
1125.32
1240.61
1352.19
1458.05
1555.85
1642.81
1716.52
1775.78
1821.23
1854.49
1878.69
144.401
144.401
144.402
144.402
144.404
144.405
144.408
144.413
144.42
144.43
144.447
144.473
144.514
144.579
144.68
144.841
145.096
145.502
146.147
147.175
148.813
151.416
155.531
161.975
171.914
186.907
208.854
239.804
281.624
335.607
402.2
480.928
570.545
669.296
775.156
886.039
999.917
1114.81
1228.64
1339.4
1445.24
1544.2
1633.86
1711.72
1776.06
1826.61
1864.56
1891.94
1911.26
1924.59
1934.12
144.403
144.405
144.408
144.412
144.418
144.427
144.442
144.464
144.498
144.551
144.633
144.761
144.961
145.274
145.766
146.539
147.755
149.666
152.66
157.323
164.507
175.401
191.543
214.749
246.909
289.676
344.133
410.576
488.483
576.664
673.492
777.119
885.633
997.165
1109.92
1222.04
1331.62
1436.91
1536.2
1627.45
1708.3
1776.78
1832
1874.44
1905.72
1928
1943.53
1954.15
1961.5
1966.55
1970.07
144.411
144.417
144.426
144.438
144.458
144.488
144.533
144.603
144.71
144.875
145.13
145.524
146.135
147.083
148.554
150.834
154.353
159.747
167.916
180.074
197.741
222.641
256.489
300.708
356.152
422.946
500.503
587.666
682.923
784.583
890.899
1000.16
1110.72
1220.94
1329.03
1433.35
1532.34
1624.28
1707.08
1778.69
1837.81
1884.34
1919.4
1944.81
1962.67
1974.96
1983.36
1989.06
1992.78
1995.21
1997.25
1998.96
144.456
144.483
144.524
144.587
144.681
144.824
145.041
145.373
145.88
146.656
147.845
149.664
152.443
156.665
163.025
172.479
186.27
205.885
232.94
268.953
315.098
371.984
439.561
517.165
603.666
697.649
797.571
901.842
1008.9
1117.25
1225.41
1331.78
1434.79
1533
1624.93
1708.75
1782.52
1844.71
1894.76
1933.28
1961.73
1982.02
1996.14
2005.69
2012.14
2016.39
2019.02
2020.75
2022.28
2023.1
2022.9
2022.39
144.667
144.797
144.992
145.285
145.727
146.394
147.402
148.925
151.223
154.677
159.838
167.469
178.583
194.439
216.477
246.169
284.812
333.311
392.028
460.737
538.703
624.819
717.767
816.138
918.496
1023.43
1129.55
1235.56
1340.01
1441.43
1538.47
1629.8
1713.88
1788.93
1853.33
1906.22
1947.76
1979.05
2001.72
2017.63
2028.51
2035.79
2040.61
2043.54
2045.21
2046.47
2047.44
2047.29
2046.65
2045.6
2044.2
2042.8
145.651
146.253
147.15
148.486
150.477
153.436
157.81
164.224
173.515
186.746
205.172
230.148
262.967
304.674
355.895
416.746
486.845
565.397
651.326
743.412
840.372
940.917
1043.77
1147.67
1251.44
1353.79
1453.37
1548.91
1639.19
1722.9
1798.44
1864.24
1919.25
1963.28
1997.04
2021.93
2039.64
2051.87
2060.02
2065.37
2068.73
2070.52
2071.52
2072.35
2072.44
2071.78
2070.63
2069.04
2067.31
2065.54
2063.84
2062.19
150.083
152.736
156.611
162.237
170.318
181.76
197.655
219.218
247.671
284.087
329.233
383.455
446.647
518.293
597.56
683.418
774.743
870.379
969.168
1069.96
1171.62
1273.07
1373.17
1470.7
1564.45
1653.3
1736.11
1811.49
1877.95
1934.35
1980.25
2016.07
2042.93
2062.31
2075.8
2084.89
2090.82
2094.56
2096.54
2097.43
2097.96
2098.1
2097.47
2096.26
2094.66
2092.71
2090.67
2088.61
2086.59
2084.58
2082.61
2080.7
168.535
178.816
193.01
212.197
237.5
269.955
310.377
359.243
416.636
482.26
555.5
635.515
721.332
811.927
906.263
1003.31
1102.03
1201.41
1300.46
1398.19
1493.46
1585.17
1672.27
1753.75
1828.39
1894.84
1951.93
1999.09
2036.48
2064.95
2085.78
2100.47
2110.48
2116.97
2121
2123.29
2124.2
2124.4
2124.36
2123.86
2122.61
2120.87
2118.79
2116.5
2114.16
2111.85
2109.56
2107.26
2104.99
2102.72
2100.48
2098.26
231.47
261.107
298.024
342.751
395.486
456.085
524.104
598.873
679.569
765.291
855.118
948.127
1043.4
1140.01
1237.05
1333.63
1428.84
1521.67
1611.1
1696.16
1775.93
1849.35
1915.21
1972.38
2020.18
2058.6
2088.27
2110.3
2126.02
2136.8
2143.86
2148.22
2150.74
2151.7
2151.67
2151.4
2150.83
2149.53
2147.68
2145.53
2143.06
2140.47
2137.85
2135.27
2132.68
2130.11
2127.57
2125.01
2122.46
2119.89
2117.35
2114.81
438.723
502.411
572.66
648.784
730.004
815.502
904.459
996.058
1089.49
1183.92
1278.53
1372.53
1465.09
1555.3
1642.23
1724.98
1802.72
1874.51
1939.26
1995.93
2043.79
2082.71
2113.17
2136.06
2152.57
2164.02
2171.59
2176.22
2178.86
2179.96
2179.8
2179.25
2178.46
2177.18
2175.21
2172.9
2170.27
2167.42
2164.52
2161.67
2158.82
2155.96
2153.13
2150.3
2147.47
2144.64
2141.79
2138.94
2136.07
2133.2
2130.34
705.546
787.054
872.135
960.064
1050.12
1141.59
1233.73
1325.81
1417.1
1506.87
1594.3
1678.52
1758.72
1834.13
1903.92
1967.13
2022.77
2070.16
2109.08
2139.85
2163.23
2180.29
2192.25
2200.18
2205.03
2207.8
2208.96
2208.67
2207.91
2206.84
2205.4
2203.34
2200.87
2198.15
2195.1
2191.95
2188.78
2185.63
2182.48
2179.37
2176.27
2173.17
2170.07
2166.97
2163.85
2160.72
2157.57
2154.4
2151.22
2148.03
2144.84
1022
1110.35
1199.71
1289.42
1378.82
1467.27
1554.1
1638.57
1719.88
1797.29
1870.1
1937.58
1998.84
2053.01
2099.43
2137.85
2168.49
2192.02
2209.34
2221.56
2229.71
2234.74
2237.55
2238.67
2238.37
2237.4
2235.98
2234.29
2232.24
2229.57
2226.62
2223.4
2219.99
2216.55
2213.13
2209.72
2206.31
2202.93
2199.54
2196.17
2192.8
2189.43
2186.04
2182.64
2179.23
2175.79
2172.33
2168.85
2165.34
2161.83
2158.31
1437.47
1522.92
1606.65
1687.98
1766.17
1840.56
1910.53
1975.39
2034.37
2086.67
2131.67
2169.14
2199.24
2222.52
2239.8
2252.06
2260.3
2265.37
2268.13
2269.17
2268.82
2267.63
2265.89
2263.94
2261.7
2258.87
2255.72
2252.38
2248.75
2245.03
2241.31
2237.6
2233.9
2230.23
2226.59
2222.94
2219.3
2215.66
2212.02
2208.37
2204.7
2201.02
2197.32
2193.59
2189.84
2186.07
2182.27
2178.44
2174.61
2170.75
1742.34
1817.22
1888.39
1955.26
2017.24
2073.62
2123.68
2166.88
2202.99
2232.15
2254.83
2271.76
2283.84
2291.95
2296.94
2299.6
2300.51
2300.03
2298.62
2296.61
2294.32
2291.82
2288.87
2285.5
2281.95
2278.11
2274.12
2270.13
2266.16
2262.18
2258.21
2254.28
2250.35
2246.44
2242.54
2238.64
2234.73
2230.81
2226.88
2222.94
2218.98
2214.99
2210.98
2206.95
2202.89
2198.79
2194.68
2190.53
2186.37
2182.18
2004.11
2062.95
2116.45
2163.95
2204.99
2239.38
2267.23
2288.97
2305.28
2316.94
2324.73
2329.51
2331.98
2332.62
2331.98
2330.39
2328.08
2325.42
2322.64
2319.56
2315.93
2312.11
2308.12
2303.88
2299.6
2295.34
2291.08
2286.83
2282.61
2278.42
2274.23
2270.05
2265.88
2261.71
2257.54
2253.37
2249.18
2244.98
2240.75
2236.51
2232.25
2227.96
2223.64
2219.29
2214.91
2210.5
2206.06
2201.59
2197.1
2192.58
2207.29
2245.86
2278.2
2304.43
2324.94
2340.35
2351.34
2358.63
2363.08
2365.25
2365.56
2364.72
2362.88
2360.22
2357.26
2354.17
2350.81
2346.98
2342.92
2338.73
2334.27
2329.7
2325.16
2320.62
2316.08
2311.57
2307.1
2302.63
2298.19
2293.75
2289.32
2284.89
2280.46
2276.02
2271.58
2267.12
2262.64
2258.15
2253.63
2249.09
2244.52
2239.92
2235.29
2230.63
2225.93
2221.2
2216.44
2211.64
2206.83
2201.98
2343.65
2362.66
2376.92
2387.04
2393.69
2397.65
2399.4
2399.31
2398.22
2396.08
2393.08
2389.83
2386.38
2382.69
2378.7
2374.36
2369.89
2365.23
2360.4
2355.57
2350.77
2345.95
2341.15
2336.4
2331.65
2326.92
2322.22
2317.53
2312.84
2308.16
2303.47
2298.78
2294.07
2289.36
2284.63
2279.89
2275.12
2270.33
2265.51
2260.66
2255.78
2250.87
2245.93
2240.95
2235.94
2230.89
2225.81
2220.69
2215.55
2210.37
2423.97
2429.85
2433.17
2434.37
2433.92
2432.46
2429.97
2426.64
2423.04
2419.24
2415.24
2411.05
2406.41
2401.65
2396.78
2391.7
2386.58
2381.5
2376.41
2371.32
2366.28
2361.26
2356.27
2351.29
2346.33
2341.38
2336.43
2331.49
2326.55
2321.61
2316.66
2311.69
2306.71
2301.72
2296.7
2291.67
2286.6
2281.51
2276.39
2271.24
2266.05
2260.83
2255.57
2250.28
2244.95
2239.57
2234.17
2228.73
2223.26
2217.75
2470.16
2469.3
2467.39
2464.5
2460.85
2456.88
2452.75
2448.39
2443.88
2439.04
2434
2428.9
2423.58
2418.16
2412.79
2407.43
2402.06
2396.75
2391.46
2386.18
2380.93
2375.7
2370.49
2365.29
2360.09
2354.9
2349.71
2344.51
2339.31
2334.1
2328.88
2323.64
2318.38
2313.1
2307.79
2302.46
2297.1
2291.71
2286.28
2280.82
2275.33
2269.79
2264.22
2258.6
2252.95
2247.26
2241.53
2235.77
2229.98
2224.15
2495.66
2491.33
2486.84
2482.14
2477.3
2472.23
2466.89
2461.49
2455.96
2450.29
2444.64
2439.02
2433.37
2427.76
2422.2
2416.65
2411.13
2405.64
2400.16
2394.69
2389.24
2383.8
2378.36
2372.92
2367.48
2362.03
2356.58
2351.11
2345.63
2340.13
2334.61
2329.07
2323.5
2317.9
2312.27
2306.61
2300.92
2295.18
2289.42
2283.61
2277.76
2271.87
2265.94
2259.97
2253.96
2247.91
2241.83
2235.72
2229.57
2516.44
2511.29
2505.92
2500.32
2494.62
2488.85
2482.92
2476.98
2471.1
2465.2
2459.3
2453.47
2447.66
2441.86
2436.1
2430.36
2424.64
2418.93
2413.23
2407.54
2401.86
2396.18
2390.5
2384.81
2379.11
2373.41
2367.69
2361.95
2356.19
2350.42
2344.61
2338.78
2332.92
2327.03
2321.1
2315.14
2309.14
2303.1
2297.02
2290.9
2284.74
2278.53
2272.28
2266
2259.67
2253.31
2246.91
2240.48
2234.01
2534.25
2528.26
2522.21
2516.05
2509.83
2503.67
2497.52
2491.34
2485.24
2479.17
2473.11
2467.08
2461.08
2455.09
2449.13
2443.19
2437.25
2431.32
2425.4
2419.48
2413.55
2407.63
2401.7
2395.75
2389.8
2383.83
2377.84
2371.83
2365.79
2359.73
2353.64
2347.52
2341.37
2335.18
2328.95
2322.69
2316.38
2310.03
2303.64
2297.21
2290.73
2284.22
2277.65
2271.05
2264.41
2257.73
2251.02
2244.28
2237.49
2543.14
2536.7
2530.3
2523.87
2517.49
2511.16
2504.83
2498.54
2492.29
2486.05
2479.83
2473.63
2467.45
2461.27
2455.11
2448.95
2442.8
2436.64
2430.48
2424.31
2418.14
2411.95
2405.75
2399.53
2393.29
2387.03
2380.74
2374.43
2368.08
2361.7
2355.29
2348.84
2342.35
2335.82
2329.26
2322.64
2315.99
2309.29
2302.55
2295.76
2288.93
2282.06
2275.14
2268.19
2261.2
2254.17
2247.12
2240.03
2556.82
2550.17
2543.59
2537.01
2530.46
2523.95
2517.46
2510.99
2504.55
2498.12
2491.7
2485.3
2478.9
2472.51
2466.13
2459.74
2453.35
2446.95
2440.55
2434.13
2427.7
2421.26
2414.8
2408.31
2401.8
2395.26
2388.69
2382.1
2375.46
2368.8
2362.09
2355.34
2348.56
2341.73
2334.86
2327.94
2320.98
2313.97
2306.92
2299.82
2292.68
2285.5
2278.27
2271.01
2263.71
2256.38
2249.03
2241.63
2562.8
2556.05
2549.31
2542.59
2535.91
2529.23
2522.58
2515.94
2509.31
2502.68
2496.07
2489.45
2482.84
2476.22
2469.6
2462.97
2456.34
2449.68
2443.02
2436.33
2429.62
2422.89
2416.14
2409.35
2402.54
2395.69
2388.8
2381.88
2374.92
2367.93
2360.88
2353.8
2346.67
2339.49
2332.27
2325.01
2317.69
2310.33
2302.93
2295.48
2287.99
2280.46
2272.89
2265.29
2257.65
2249.99
2242.3
2574.6
2567.67
2560.76
2553.87
2547
2540.13
2533.28
2526.44
2519.6
2512.76
2505.93
2499.09
2492.25
2485.4
2478.54
2471.67
2464.79
2457.88
2450.96
2444.01
2437.04
2430.04
2423.01
2415.95
2408.86
2401.72
2394.56
2387.35
2380.1
2372.8
2365.47
2358.08
2350.65
2343.18
2335.65
2328.08
2320.47
2312.8
2305.09
2297.34
2289.55
2281.71
2273.84
2265.94
2258.03
2250.1
2242.12
2578.45
2571.36
2564.28
2557.21
2550.15
2543.1
2536.04
2528.99
2521.94
2514.88
2507.82
2500.74
2493.66
2486.55
2479.44
2472.3
2465.14
2457.96
2450.75
2443.51
2436.24
2428.94
2421.6
2414.22
2406.81
2399.35
2391.86
2384.32
2376.73
2369.1
2361.42
2353.69
2345.91
2338.09
2330.22
2322.3
2314.34
2306.32
2298.27
2290.18
2282.07
2273.92
2265.74
2257.55
2249.34
2241.09
2588.36
2581.08
2573.81
2566.54
2559.28
2552.02
2544.75
2537.48
2530.21
2522.92
2515.62
2508.31
2500.98
2493.64
2486.27
2478.88
2471.46
2464.02
2456.55
2449.04
2441.5
2433.92
2426.3
2418.65
2410.95
2403.21
2395.42
2387.59
2379.71
2371.79
2363.81
2355.79
2347.71
2339.59
2331.42
2323.2
2314.94
2306.65
2298.32
2289.96
2281.56
2273.14
2264.68
2256.2
2247.71
2239.18
2597.4
2589.92
2582.45
2574.99
2567.51
2560.04
2552.55
2545.06
2537.56
2530.04
2522.51
2514.96
2507.39
2499.79
2492.17
2484.53
2476.85
2469.14
2461.4
2453.63
2445.81
2437.96
2430.07
2422.13
2414.15
2406.12
2398.05
2389.93
2381.76
2373.54
2365.27
2356.95
2348.58
2340.17
2331.72
2323.23
2314.69
2306.12
2297.52
2288.87
2280.19
2271.48
2262.75
2253.99
2245.23
2236.44
2605.55
2597.88
2590.21
2582.53
2574.85
2567.15
2559.45
2551.73
2544
2536.25
2528.47
2520.68
2512.86
2505.02
2497.15
2489.24
2481.31
2473.33
2465.33
2457.28
2449.19
2441.06
2432.89
2424.68
2416.41
2408.1
2399.74
2391.33
2382.87
2374.36
2365.81
2357.22
2348.58
2339.89
2331.17
2322.4
2313.58
2304.73
2295.83
2286.91
2277.95
2268.97
2259.97
2250.95
2241.93
2232.88
2612.82
2604.95
2597.07
2589.18
2581.28
2573.36
2565.43
2557.49
2549.52
2541.53
2533.52
2525.48
2517.41
2509.32
2501.19
2493.03
2484.83
2476.59
2468.32
2460
2451.64
2443.24
2434.79
2426.3
2417.75
2409.15
2400.51
2391.83
2383.1
2374.32
2365.5
2356.63
2347.72
2338.75
2329.74
2320.69
2311.59
2302.46
2293.29
2284.1
2274.87
2265.63
2256.37
2247.1
2237.82
2228.53
2619.2
2611.12
2603.03
2594.92
2586.8
2578.67
2570.51
2562.33
2554.13
2545.9
2537.64
2529.36
2521.04
2512.69
2504.31
2495.89
2487.43
2478.93
2470.39
2461.8
2453.17
2444.49
2435.76
2426.99
2418.18
2409.32
2400.41
2391.46
2382.46
2373.42
2364.32
2355.17
2345.97
2336.73
2327.45
2318.12
2308.76
2299.36
2289.93
2280.47
2270.99
2261.49
2251.98
2242.46
2232.94
2223.4
2624.69
2616.4
2608.09
2599.77
2591.42
2583.06
2574.67
2566.26
2557.82
2549.35
2540.85
2532.32
2523.75
2515.15
2506.51
2497.83
2489.11
2480.34
2471.53
2462.67
2453.78
2444.84
2435.86
2426.83
2417.75
2408.63
2399.46
2390.23
2380.96
2371.63
2362.26
2352.84
2343.38
2333.87
2324.31
2314.72
2305.1
2295.44
2285.75
2276.04
2266.31
2256.56
2246.81
2237.05
2227.31
2217.54
2620.77
2612.25
2603.7
2595.13
2586.54
2577.92
2569.27
2560.6
2551.89
2543.14
2534.36
2525.55
2516.69
2507.79
2498.85
2489.87
2480.85
2471.79
2462.68
2453.53
2444.34
2435.1
2425.8
2416.46
2407.06
2397.62
2388.13
2378.58
2368.99
2359.36
2349.67
2339.94
2330.17
2320.36
2310.51
2300.63
2290.72
2280.79
2270.83
2260.86
2250.88
2240.89
2230.91
2220.94
2210.96
2624.25
2615.5
2606.74
2597.94
2589.12
2580.27
2571.38
2562.46
2553.51
2544.52
2535.49
2526.42
2517.32
2508.18
2498.99
2489.76
2480.5
2471.19
2461.83
2452.42
2442.96
2433.46
2423.9
2414.29
2404.63
2394.93
2385.17
2375.37
2365.52
2355.62
2345.68
2335.7
2325.67
2315.61
2305.52
2295.39
2285.24
2275.06
2264.87
2254.67
2244.46
2234.26
2224.06
2213.87
2203.68
2626.82
2617.86
2608.86
2599.84
2590.79
2581.7
2572.58
2563.42
2554.22
2545
2535.74
2526.43
2517.09
2507.71
2498.28
2488.81
2479.29
2469.72
2460.1
2450.43
2440.72
2430.95
2421.14
2411.27
2401.36
2391.4
2381.39
2371.33
2361.23
2351.08
2340.89
2330.66
2320.39
2310.09
2299.76
2289.39
2279.01
2268.6
2258.19
2247.76
2237.34
2226.92
2216.51
2206.12
2195.73
2619.31
2610.09
2600.83
2591.55
2582.24
2572.89
2563.5
2554.08
2544.62
2535.13
2525.59
2516
2506.37
2496.69
2486.97
2477.2
2467.38
2457.51
2447.59
2437.62
2427.61
2417.54
2407.43
2397.26
2387.05
2376.8
2366.49
2356.15
2345.76
2335.33
2324.86
2314.35
2303.82
2293.25
2282.66
2272.05
2261.43
2250.79
2240.16
2229.52
2218.9
2208.3
2197.72
2187.14
2619.86
2610.42
2600.96
2591.45
2581.92
2572.35
2562.74
2553.09
2543.39
2533.65
2523.87
2514.04
2504.16
2494.24
2484.27
2474.26
2464.19
2454.08
2443.91
2433.7
2423.44
2413.13
2402.77
2392.37
2381.92
2371.42
2360.88
2350.29
2339.67
2329.01
2318.31
2307.58
2296.82
2286.03
2275.22
2264.4
2253.56
2242.72
2231.88
2221.05
2210.24
2199.45
2188.68
2177.93
2619.56
2609.91
2600.23
2590.51
2580.74
2570.94
2561.09
2551.21
2541.28
2531.3
2521.28
2511.21
2501.1
2490.94
2480.73
2470.48
2460.17
2449.82
2439.42
2428.97
2418.47
2407.92
2397.33
2386.69
2376
2365.28
2354.51
2343.69
2332.84
2321.96
2311.04
2300.09
2289.11
2278.11
2267.1
2256.07
2245.03
2234
2222.97
2211.95
2200.95
2189.98
2179.05
2168.13
2618.4
2608.53
2598.63
2588.68
2578.69
2568.66
2558.59
2548.47
2538.31
2528.1
2517.85
2507.55
2497.21
2486.81
2476.37
2465.88
2455.35
2444.76
2434.13
2423.45
2412.72
2401.94
2391.12
2380.25
2369.34
2358.39
2347.4
2336.37
2325.3
2314.2
2303.07
2291.91
2280.73
2269.53
2258.31
2247.09
2235.86
2224.64
2213.43
2202.23
2191.07
2179.93
2168.84
2157.77
2606.29
2596.16
2585.99
2575.78
2565.53
2555.23
2544.89
2534.5
2524.07
2513.59
2503.07
2492.5
2481.88
2471.21
2460.49
2449.73
2438.92
2428.06
2417.15
2406.2
2395.21
2384.16
2373.08
2361.95
2350.79
2339.58
2328.34
2317.07
2305.76
2294.43
2283.07
2271.69
2260.3
2248.9
2237.49
2226.08
2214.68
2203.3
2191.94
2180.62
2169.33
2158.09
2146.87
2603.19
2592.84
2582.46
2572.03
2561.56
2551.04
2540.48
2529.88
2519.22
2508.53
2497.78
2486.99
2476.15
2465.26
2454.32
2443.34
2432.31
2421.24
2410.12
2398.95
2387.74
2376.49
2365.19
2353.86
2342.48
2331.08
2319.63
2308.16
2296.66
2285.13
2273.59
2262.03
2250.45
2238.87
2227.29
2215.72
2204.16
2192.62
2181.1
2169.63
2158.2
2146.81
2135.46
2599.24
2588.69
2578.09
2567.45
2556.77
2546.04
2535.27
2524.45
2513.58
2502.67
2491.71
2480.7
2469.64
2458.54
2447.4
2436.2
2424.96
2413.68
2402.35
2390.98
2379.56
2368.11
2356.61
2345.08
2333.51
2321.91
2310.28
2298.61
2286.93
2275.22
2263.5
2251.76
2240.02
2228.27
2216.53
2204.8
2193.08
2181.39
2169.73
2158.12
2146.55
2135.04
2123.56
2583.72
2572.91
2562.07
2551.18
2540.24
2529.26
2518.23
2507.15
2496.03
2484.87
2473.65
2462.39
2451.09
2439.73
2428.34
2416.9
2405.41
2393.88
2382.31
2370.7
2359.05
2347.37
2335.65
2323.89
2312.11
2300.29
2288.46
2276.6
2264.72
2252.83
2240.93
2229.02
2217.12
2205.22
2193.34
2181.48
2169.65
2157.86
2146.11
2134.42
2122.78
2111.19
2577.94
2566.94
2555.89
2544.8
2533.66
2522.47
2511.24
2499.97
2488.65
2477.28
2465.87
2454.41
2442.9
2431.36
2419.77
2408.13
2396.45
2384.74
2372.98
2361.18
2349.35
2337.49
2325.59
2313.66
2301.7
2289.72
2277.71
2265.69
2253.65
2241.6
2229.54
2217.49
2205.44
2193.4
2181.37
2169.38
2157.42
2145.5
2133.63
2121.82
2110.08
2098.37
2571.38
2560.18
2548.93
2537.65
2526.31
2514.93
2503.51
2492.04
2480.53
2468.97
2457.37
2445.72
2434.03
2422.29
2410.52
2398.7
2386.84
2374.94
2363.01
2351.04
2339.03