/*--------------------------------*- C++ -*----------------------------------*\
| =========                 |                                                 |
| \\      /  F ield         | OpenFOAM: The Open Source CFD Toolbox           |
|  \\    /   O peration     | Version:  v1706                                 |
|   \\  /    A nd           | Web:      www.OpenFOAM.com                      |
|    \\/     M anipulation  |                                                 |
\*---------------------------------------------------------------------------*/
FoamFile
{
    version     2.0;
    format      ascii;
    class       volScalarField;
    location    "1.1e-05";
    object      Tt;
}
// * * * * * * * * * * * * * * * * * * * * * * * * * * * * * * * * * * * * * //

dimensions      [0 0 0 1 0 0 0];


internalField   nonuniform List<scalar> 
30038
(
144.4
144.4
144.4
144.4
144.4
144.4
144.4
144.4
144.4
144.4
144.4
144.4
144.4
144.4
144.4
144.4
144.4
144.4
144.4
144.4
144.4
144.4
144.4
144.4
144.4
144.4
144.4
144.4
144.4
144.4
144.4
144.4
144.4
144.4
144.4
144.4
144.4
144.4
144.4
144.4
144.4
144.4
144.4
144.4
144.4
144.4
144.4
144.4
144.4
144.4
144.4
144.4
144.4
144.4
144.4
144.4
144.4
144.4
144.4
144.4
144.4
144.4
144.4
144.4
144.4
144.4
144.4
144.4
144.4
144.4
144.4
144.4
144.4
144.4
144.4
144.4
144.4
144.4
144.4
144.4
144.4
144.4
144.4
144.4
144.4
144.4
144.4
144.4
144.4
144.4
144.4
144.4
144.4
144.4
144.4
144.4
144.4
144.4
144.4
144.4
144.4
144.4
144.4
144.4
144.4
144.4
144.4
144.4
144.4
144.4
144.4
144.4
144.4
144.4
144.4
144.4
144.4
144.4
144.4
144.4
144.4
144.4
144.4
144.4
144.4
144.4
144.4
144.4
144.4
144.4
144.4
144.4
144.4
144.4
144.4
144.4
144.4
144.4
144.4
144.4
144.4
144.4
144.4
144.4
144.4
144.4
144.4
144.4
144.4
144.4
144.4
144.4
144.4
144.4
144.4
144.4
144.4
144.4
144.4
144.4
144.4
144.4
144.4
144.4
144.4
144.4
144.4
144.4
144.4
144.4
144.4
144.4
144.4
144.4
144.4
144.4
144.4
144.4
144.4
144.4
144.4
144.4
144.4
144.4
144.4
144.4
144.4
144.4
144.4
144.4
144.4
144.4
144.4
144.4
144.4
144.4
144.4
144.4
144.4
144.4
144.4
144.4
144.4
144.4
144.4
144.4
144.4
144.4
144.4
144.4
144.4
144.4
144.4
144.4
144.4
144.4
144.4
144.4
144.4
144.4
144.4
144.4
144.4
144.4
144.4
144.4
144.4
144.4
144.4
144.4
144.4
144.4
144.4
144.4
144.4
144.4
144.4
144.4
144.4
144.4
144.4
144.4
144.4
144.4
144.4
144.4
144.4
144.4
144.4
144.4
144.4
144.4
144.4
144.4
144.4
144.4
144.4
144.4
144.4
144.4
144.4
144.4
144.4
144.4
144.4
144.4
144.4
144.4
144.4
144.4
144.4
144.4
144.4
144.4
144.4
144.4
144.4
144.4
144.4
144.4
144.4
144.4
144.4
144.4
144.4
144.4
144.4
144.4
144.4
144.4
144.4
144.4
144.4
144.4
144.4
144.4
144.4
144.4
144.4
144.4
144.4
144.4
144.4
144.4
144.4
144.4
144.4
144.4
144.4
144.4
144.4
144.4
144.4
144.4
144.4
144.4
144.4
144.4
144.4
144.4
144.4
144.4
144.4
144.4
144.4
144.4
144.4
144.4
144.4
144.4
144.4
144.4
144.4
144.4
144.4
144.4
144.4
144.4
144.4
144.4
144.4
144.4
144.4
144.4
144.4
144.4
144.4
144.4
144.4
144.4
144.4
144.4
144.4
144.4
144.4
144.4
144.4
144.4
144.4
144.4
144.4
144.4
144.4
144.4
144.4
144.4
144.4
144.4
144.4
144.4
144.4
144.4
144.4
144.4
144.4
144.4
144.4
144.4
144.4
144.4
144.4
144.4
144.4
144.4
144.4
144.4
144.4
144.4
144.4
144.4
144.4
144.4
144.4
144.4
144.4
144.4
144.4
144.4
144.4
144.4
144.4
144.4
144.4
144.4
144.4
144.4
144.4
144.4
144.4
144.4
144.4
144.4
144.4
144.4
144.4
144.4
144.4
144.4
144.4
144.4
144.4
144.4
144.4
144.4
144.4
144.4
144.4
144.4
144.4
144.4
144.4
144.4
144.4
144.4
144.4
144.4
144.4
144.4
144.4
144.4
144.4
144.4
144.4
144.4
144.4
144.4
144.4
144.4
144.4
144.4
144.4
144.4
144.4
144.4
144.4
144.4
144.4
144.4
144.4
144.4
144.4
144.4
144.4
144.4
144.4
144.4
144.4
144.4
144.4
144.4
144.4
144.4
144.4
144.4
144.4
144.4
144.4
144.4
144.4
144.4
144.4
144.4
144.4
144.4
144.4
144.4
144.4
144.4
144.4
144.4
144.4
144.4
144.4
144.4
144.4
144.4
144.4
144.4
144.4
144.4
144.4
144.4
144.4
144.4
144.4
144.4
144.4
144.4
144.4
144.4
144.4
144.4
144.4
144.4
144.4
144.4
144.4
144.4
144.4
144.4
144.4
144.4
144.4
144.4
144.4
144.4
144.4
144.4
144.4
144.4
144.4
144.4
144.4
144.4
144.4
144.4
144.4
144.4
144.4
144.4
144.4
144.4
144.4
144.4
144.4
144.4
144.4
144.4
144.4
144.4
144.4
144.4
144.4
144.4
144.4
144.4
144.4
144.4
144.4
144.4
144.4
144.4
144.4
144.4
144.4
144.4
144.4
144.4
144.4
144.4
144.4
144.4
144.4
144.4
144.4
144.4
144.4
144.4
144.4
144.4
144.4
144.4
144.4
144.4
144.4
144.4
144.4
144.4
144.4
144.4
144.4
144.4
144.4
144.4
144.4
144.4
144.4
144.4
144.4
144.4
144.4
144.4
144.4
144.4
144.4
144.4
144.4
144.4
144.4
144.4
144.4
144.4
144.4
144.4
144.4
144.4
144.4
144.4
144.4
144.4
144.4
144.4
144.4
144.4
144.4
144.4
144.4
144.4
144.4
144.4
144.4
144.4
144.4
144.4
144.4
144.4
144.4
144.4
144.4
144.4
144.4
144.4
144.4
144.4
144.4
144.4
144.4
144.4
144.4
144.4
144.4
144.4
144.4
144.4
144.4
144.4
144.4
144.4
144.4
144.4
144.4
144.4
144.4
144.4
144.4
144.4
144.4
144.4
144.4
144.4
144.4
144.4
144.4
144.4
144.4
144.4
144.4
144.4
144.4
144.4
144.4
144.4
144.4
144.4
144.4
144.4
144.4
144.4
144.4
144.4
144.4
144.4
144.4
144.4
144.4
144.4
144.4
144.4
144.4
144.4
144.4
144.4
144.4
144.4
144.4
144.4
144.4
144.4
144.4
144.4
144.4
144.4
144.4
144.4
144.4
144.4
144.4
144.4
144.4
144.4
144.4
144.4
144.4
144.4
144.4
144.4
144.4
144.4
144.4
144.4
144.4
144.4
144.4
144.4
144.4
144.4
144.4
144.4
144.4
144.4
144.4
144.4
144.4
144.4
144.4
144.4
144.4
144.4
144.4
144.4
144.4
144.4
144.4
144.4
144.4
144.4
144.4
144.4
144.4
144.4
144.4
144.4
144.4
144.4
144.4
144.4
144.4
144.4
144.4
144.4
144.4
144.4
144.4
144.4
144.4
144.4
144.4
144.4
144.4
144.4
144.4
144.4
144.4
144.4
144.4
144.4
144.4
144.4
144.4
144.4
144.4
144.4
144.4
144.4
144.4
144.4
144.4
144.4
144.4
144.4
144.4
144.4
144.4
144.4
144.4
144.4
144.4
144.4
144.4
144.4
144.4
144.4
144.4
144.4
144.4
144.4
144.4
144.4
144.4
144.4
144.4
144.4
144.4
144.4
144.4
144.4
144.4
144.4
144.4
144.4
144.4
144.4
144.4
144.4
144.4
144.4
144.4
144.4
144.4
144.4
144.4
144.4
144.4
144.4
144.4
144.4
144.4
144.4
144.4
144.4
144.4
144.4
144.4
144.4
144.4
144.4
144.4
144.4
144.4
144.4
144.4
144.4
144.4
144.4
144.4
144.4
144.4
144.4
144.4
144.4
144.4
144.4
144.4
144.4
144.4
144.4
144.4
144.4
144.4
144.4
144.4
144.4
144.4
144.4
144.4
144.4
144.4
144.4
144.4
144.4
144.4
144.4
144.4
144.4
144.4
144.4
144.4
144.4
144.4
144.4
144.4
144.4
144.4
144.4
144.4
144.4
144.4
144.4
144.4
144.4
144.4
144.4
144.4
144.4
144.4
144.4
144.4
144.4
144.4
144.4
144.4
144.4
144.4
144.4
144.4
144.4
144.4
144.4
144.4
144.4
144.4
144.4
144.4
144.4
144.4
144.4
144.4
144.4
144.4
144.4
144.4
144.4
144.4
144.4
144.4
144.4
144.4
144.4
144.4
144.4
144.4
144.4
144.4
144.4
144.4
144.4
144.4
144.4
144.4
144.4
144.4
144.4
144.4
144.4
144.4
144.4
144.4
144.4
144.4
144.4
144.4
144.4
144.4
144.4
144.4
144.4
144.4
144.4
144.4
144.4
144.4
144.4
144.4
144.4
144.4
144.4
144.4
144.4
144.4
144.4
144.4
144.4
144.4
144.4
144.4
144.4
144.4
144.4
144.4
144.4
144.4
144.4
144.4
144.4
144.4
144.4
144.4
144.4
144.4
144.4
144.4
144.4
144.4
144.4
144.4
144.4
144.4
144.4
144.4
144.4
144.4
144.4
144.4
144.4
144.4
144.4
144.4
144.4
144.4
144.4
144.4
144.4
144.4
144.4
144.4
144.4
144.4
144.4
144.4
144.4
144.4
144.4
144.4
144.4
144.4
144.4
144.4
144.4
144.4
144.4
144.4
144.4
144.4
144.4
144.4
144.4
144.4
144.4
144.4
144.4
144.4
144.4
144.4
144.4
144.4
144.4
144.4
144.4
144.4
144.4
144.4
144.4
144.4
144.4
144.4
144.4
144.4
144.4
144.4
144.4
144.4
144.4
144.4
144.4
144.4
144.4
144.4
144.4
144.4
144.4
144.4
144.4
144.4
144.4
144.4
144.4
144.4
144.4
144.4
144.4
144.4
144.4
144.4
144.4
144.4
144.4
144.4
144.4
144.4
144.4
144.4
144.4
144.4
144.4
144.4
144.4
144.4
144.4
144.4
144.4
144.4
144.4
144.4
144.4
144.4
144.4
144.4
144.4
144.4
144.4
144.4
144.4
144.4
144.4
144.4
144.4
144.4
144.4
144.4
144.4
144.4
144.4
144.4
144.4
144.4
144.4
144.4
144.4
144.4
144.4
144.4
144.4
144.4
144.4
144.4
144.4
144.4
144.4
144.4
144.4
144.4
144.4
144.4
144.4
144.4
144.4
144.4
144.4
144.4
144.4
144.4
144.4
144.4
144.4
144.4
144.4
144.4
144.4
144.4
144.4
144.4
144.4
144.4
144.4
144.4
144.4
144.4
144.4
144.4
144.4
144.4
144.401
144.4
144.4
144.4
144.4
144.4
144.4
144.4
144.4
144.4
144.4
144.4
144.4
144.4
144.4
144.4
144.4
144.4
144.4
144.4
144.4
144.4
144.4
144.4
144.4
144.4
144.4
144.4
144.4
144.4
144.4
144.4
144.4
144.4
144.4
144.4
144.4
144.4
144.4
144.4
144.4
144.4
144.4
144.4
144.4
144.4
144.4
144.4
144.401
144.402
144.403
144.4
144.4
144.4
144.4
144.4
144.4
144.4
144.4
144.4
144.4
144.4
144.4
144.4
144.4
144.4
144.4
144.4
144.4
144.4
144.4
144.4
144.4
144.4
144.4
144.4
144.4
144.4
144.4
144.4
144.4
144.4
144.4
144.4
144.4
144.4
144.4
144.4
144.4
144.4
144.4
144.4
144.4
144.4
144.4
144.401
144.402
144.403
144.405
144.409
144.418
144.4
144.4
144.4
144.4
144.4
144.4
144.4
144.4
144.4
144.4
144.4
144.4
144.4
144.4
144.4
144.4
144.4
144.4
144.4
144.4
144.4
144.4
144.4
144.4
144.4
144.4
144.4
144.4
144.4
144.4
144.4
144.4
144.4
144.4
144.4
144.4
144.4
144.4
144.4
144.4
144.4
144.401
144.402
144.403
144.405
144.409
144.416
144.429
144.454
144.503
144.4
144.4
144.4
144.4
144.4
144.4
144.4
144.4
144.4
144.4
144.4
144.4
144.4
144.4
144.4
144.4
144.4
144.4
144.4
144.4
144.4
144.4
144.4
144.4
144.4
144.4
144.4
144.4
144.4
144.4
144.4
144.4
144.4
144.4
144.4
144.4
144.4
144.401
144.401
144.402
144.403
144.405
144.409
144.416
144.428
144.451
144.492
144.567
144.705
144.977
144.4
144.4
144.4
144.4
144.4
144.4
144.4
144.4
144.4
144.4
144.4
144.4
144.4
144.4
144.4
144.4
144.4
144.4
144.4
144.4
144.4
144.4
144.4
144.4
144.4
144.4
144.4
144.4
144.4
144.4
144.4
144.4
144.4
144.4
144.401
144.401
144.402
144.403
144.405
144.409
144.416
144.428
144.45
144.489
144.559
144.685
144.912
145.323
146.078
147.527
144.4
144.4
144.4
144.4
144.4
144.4
144.4
144.4
144.4
144.4
144.4
144.4
144.4
144.4
144.4
144.4
144.4
144.4
144.4
144.4
144.4
144.4
144.4
144.4
144.4
144.4
144.4
144.4
144.4
144.4
144.4
144.401
144.401
144.402
144.403
144.406
144.41
144.417
144.429
144.451
144.489
144.557
144.677
144.891
145.273
145.954
147.172
149.35
153.256
160.39
144.4
144.4
144.4
144.4
144.4
144.4
144.4
144.4
144.4
144.4
144.4
144.4
144.4
144.4
144.4
144.4
144.4
144.4
144.4
144.4
144.4
144.4
144.4
144.4
144.4
144.4
144.4
144.4
144.401
144.401
144.402
144.404
144.406
144.41
144.418
144.431
144.453
144.491
144.559
144.677
144.885
145.25
145.894
147.03
149.03
152.539
158.633
169.042
186.394
214.482
144.4
144.4
144.4
144.4
144.4
144.4
144.4
144.4
144.4
144.4
144.4
144.4
144.4
144.4
144.4
144.4
144.4
144.4
144.4
144.4
144.4
144.4
144.4
144.4
144.401
144.401
144.401
144.402
144.404
144.407
144.411
144.419
144.433
144.456
144.496
144.565
144.684
144.891
145.25
145.875
146.964
148.859
152.141
157.777
167.292
182.936
207.68
244.914
297.853
368.675
144.4
144.4
144.4
144.4
144.4
144.4
144.4
144.4
144.4
144.4
144.4
144.4
144.4
144.4
144.4
144.4
144.4
144.4
144.4
144.4
144.4
144.401
144.401
144.402
144.403
144.405
144.408
144.413
144.422
144.437
144.462
144.504
144.576
144.7
144.911
145.273
145.896
146.967
148.808
151.959
157.308
166.249
180.827
203.749
238.114
286.806
351.737
433.323
530.536
640.982
144.4
144.4
144.4
144.4
144.4
144.4
144.4
144.4
144.4
144.4
144.4
144.4
144.4
144.4
144.4
144.4
144.4
144.4
144.401
144.401
144.402
144.403
144.406
144.409
144.415
144.425
144.442
144.469
144.515
144.593
144.724
144.945
145.32
145.956
147.037
148.871
151.973
157.176
165.777
179.668
201.351
233.714
279.501
340.616
417.582
509.431
614.03
728.625
850.417
976.316
144.4
144.4
144.4
144.4
144.4
144.4
144.4
144.4
144.4
144.4
144.4
144.4
144.4
144.4
144.401
144.401
144.402
144.403
144.404
144.407
144.411
144.418
144.43
144.448
144.479
144.531
144.616
144.759
144.996
145.394
146.061
147.18
149.054
152.183
157.367
165.835
179.362
200.281
231.289
274.979
333.218
406.639
494.506
594.935
705.348
822.903
944.786
1068.18
1190.41
1309.38
144.4
144.4
144.4
144.4
144.4
144.4
144.4
144.4
144.4
144.4
144.401
144.401
144.401
144.402
144.403
144.405
144.409
144.414
144.422
144.436
144.458
144.494
144.553
144.649
144.808
145.07
145.502
146.219
147.405
149.368
152.603
157.893
166.422
179.879
200.462
230.69
272.989
329.138
399.808
484.421
581.337
688.222
802.445
921.362
1042.33
1162.67
1279.93
1391.91
1495.87
1589.42
144.4
144.4
144.4
144.4
144.4
144.4
144.4
144.401
144.401
144.402
144.403
144.404
144.407
144.411
144.418
144.428
144.444
144.471
144.513
144.582
144.694
144.876
145.171
145.654
146.443
147.733
149.839
153.264
158.787
167.573
181.247
201.893
231.867
273.421
328.199
396.848
478.876
572.825
676.587
787.751
903.862
1022.54
1141.29
1257.73
1369.69
1474.89
1570.5
1653.67
1722.23
1776.73
144.4
144.4
144.4
144.401
144.401
144.402
144.403
144.404
144.406
144.409
144.415
144.423
144.436
144.456
144.489
144.541
144.623
144.756
144.968
145.31
145.862
146.752
148.188
150.502
154.214
160.115
169.363
183.543
204.642
234.863
276.268
330.342
397.65
477.732
569.258
670.313
778.69
892.117
1008.4
1125.33
1240.62
1352.2
1458.07
1555.87
1642.83
1716.54
1775.81
1821.26
1854.52
1878.73
144.401
144.401
144.402
144.402
144.404
144.405
144.408
144.413
144.42
144.43
144.447
144.473
144.514
144.579
144.68
144.841
145.096
145.502
146.147
147.175
148.813
151.416
155.531
161.975
171.914
186.907
208.854
239.804
281.624
335.608
402.2
480.928
570.546
669.297
775.157
886.041
999.92
1114.82
1228.65
1339.41
1445.25
1544.22
1633.88
1711.74
1776.09
1826.64
1864.6
1891.98
1911.31
1924.64
1934.18
144.403
144.405
144.408
144.412
144.418
144.427
144.442
144.464
144.498
144.551
144.633
144.761
144.961
145.274
145.766
146.539
147.755
149.666
152.66
157.323
164.507
175.401
191.543
214.749
246.909
289.676
344.133
410.576
488.483
576.664
673.493
777.12
885.636
997.168
1109.93
1222.05
1331.63
1436.92
1536.22
1627.47
1708.32
1776.81
1832.03
1874.48
1905.76
1928.05
1943.59
1954.21
1961.57
1966.62
1970.15
144.411
144.417
144.426
144.438
144.458
144.488
144.533
144.603
144.71
144.875
145.13
145.524
146.135
147.083
148.554
150.834
154.353
159.747
167.916
180.074
197.741
222.641
256.489
300.708
356.152
422.947
500.503
587.667
682.924
784.585
890.902
1000.16
1110.73
1220.94
1329.04
1433.36
1532.35
1624.3
1707.1
1778.72
1837.84
1884.38
1919.45
1944.86
1962.73
1975.03
1983.42
1989.13
1992.86
1995.3
1997.34
1999.07
144.456
144.483
144.524
144.587
144.681
144.824
145.041
145.373
145.88
146.656
147.845
149.664
152.443
156.665
163.025
172.479
186.27
205.885
232.94
268.953
315.098
371.984
439.562
517.166
603.667
697.651
797.573
901.845
1008.91
1117.26
1225.42
1331.79
1434.81
1533.02
1624.95
1708.77
1782.55
1844.74
1894.8
1933.33
1961.78
1982.08
1996.2
2005.76
2012.21
2016.47
2019.11
2020.85
2022.39
2023.21
2023.03
2022.53
144.667
144.797
144.992
145.285
145.727
146.394
147.402
148.925
151.223
154.677
159.838
167.469
178.583
194.439
216.477
246.169
284.812
333.311
392.028
460.738
538.704
624.82
717.769
816.14
918.499
1023.43
1129.56
1235.57
1340.02
1441.45
1538.49
1629.82
1713.91
1788.96
1853.37
1906.26
1947.8
1979.1
2001.78
2017.7
2028.58
2035.87
2040.7
2043.64
2045.31
2046.59
2047.56
2047.42
2046.79
2045.75
2044.36
2042.97
145.651
146.253
147.15
148.486
150.477
153.436
157.81
164.224
173.515
186.746
205.172
230.148
262.967
304.674
355.895
416.746
486.846
565.398
651.328
743.413
840.375
940.921
1043.77
1147.68
1251.44
1353.8
1453.39
1548.93
1639.21
1722.93
1798.47
1864.28
1919.29
1963.33
1997.1
2021.99
2039.71
2051.95
2060.11
2065.46
2068.83
2070.63
2071.64
2072.47
2072.57
2071.92
2070.78
2069.21
2067.48
2065.72
2064.03
2062.4
150.083
152.736
156.611
162.237
170.318
181.76
197.655
219.218
247.671
284.087
329.233
383.455
446.648
518.293
597.561
683.42
774.745
870.382
969.172
1069.96
1171.63
1273.08
1373.19
1470.71
1564.47
1653.33
1736.14
1811.52
1877.99
1934.39
1980.3
2016.13
2043
2062.38
2075.88
2084.98
2090.92
2094.66
2096.65
2097.55
2098.09
2098.24
2097.62
2096.42
2094.82
2092.89
2090.86
2088.81
2086.8
2084.8
2082.85
2080.95
168.535
178.816
193.01
212.197
237.5
269.955
310.377
359.243
416.636
482.261
555.501
635.516
721.334
811.929
906.267
1003.31
1102.03
1201.42
1300.47
1398.2
1493.48
1585.19
1672.3
1753.78
1828.43
1894.88
1951.98
1999.15
2036.55
2065.02
2085.86
2100.55
2110.57
2117.07
2121.11
2123.41
2124.33
2124.53
2124.51
2124.02
2122.77
2121.05
2118.97
2116.7
2114.36
2112.07
2109.79
2107.5
2105.24
2102.98
2100.75
2098.55
231.47
261.107
298.024
342.751
395.486
456.085
524.105
598.874
679.57
765.294
855.121
948.131
1043.4
1140.02
1237.06
1333.64
1428.85
1521.69
1611.12
1696.19
1775.97
1849.39
1915.25
1972.43
2020.24
2058.67
2088.35
2110.38
2126.11
2136.9
2143.97
2148.34
2150.87
2151.84
2151.81
2151.55
2150.99
2149.7
2147.86
2145.72
2143.26
2140.68
2138.08
2135.51
2132.93
2130.37
2127.84
2125.3
2122.76
2120.21
2117.67
2115.15
438.723
502.411
572.661
648.785
730.006
815.505
904.463
996.064
1089.49
1183.93
1278.55
1372.54
1465.11
1555.33
1642.26
1725.01
1802.76
1874.56
1939.31
1995.98
2043.86
2082.79
2113.25
2136.15
2152.66
2164.12
2171.7
2176.34
2178.99
2180.1
2179.95
2179.41
2178.63
2177.36
2175.4
2173.1
2170.48
2167.64
2164.76
2161.91
2159.07
2156.23
2153.41
2150.59
2147.78
2144.96
2142.13
2139.28
2136.43
2133.58
2130.73
705.548
787.057
872.139
960.07
1050.13
1141.6
1233.74
1325.83
1417.12
1506.9
1594.33
1678.55
1758.75
1834.17
1903.97
1967.18
2022.83
2070.23
2109.15
2139.93
2163.33
2180.4
2192.36
2200.3
2205.16
2207.94
2209.11
2208.83
2208.08
2207.02
2205.59
2203.54
2201.08
2198.37
2195.33
2192.19
2189.04
2185.9
2182.76
2179.66
2176.57
2173.49
2170.4
2167.31
2164.21
2161.09
2157.95
2154.8
2151.63
2148.46
2145.28
1022.01
1110.36
1199.72
1289.43
1378.84
1467.29
1554.13
1638.6
1719.91
1797.32
1870.15
1937.63
1998.9
2053.08
2099.51
2137.93
2168.58
2192.12
2209.45
2221.68
2229.84
2234.87
2237.7
2238.83
2238.54
2237.57
2236.17
2234.49
2232.45
2229.79
2226.86
2223.64
2220.24
2216.81
2213.41
2210.01
2206.61
2203.24
2199.87
2196.51
2193.16
2189.8
2186.43
2183.04
2179.64
2176.21
2172.77
2169.3
2165.81
2162.32
2158.81
1437.49
1522.95
1606.68
1688.01
1766.21
1840.61
1910.58
1975.45
2034.43
2086.74
2131.76
2169.23
2199.34
2222.63
2239.92
2252.19
2260.43
2265.52
2268.29
2269.34
2269
2267.82
2266.09
2264.15
2261.93
2259.1
2255.96
2252.64
2249.02
2245.31
2241.6
2237.91
2234.21
2230.56
2226.93
2223.3
2219.67
2216.05
2212.41
2208.78
2205.12
2201.46
2197.77
2194.06
2190.33
2186.57
2182.78
2178.97
2175.15
2171.31
1742.38
1817.27
1888.44
1955.32
2017.31
2073.69
2123.76
2166.97
2203.09
2232.26
2254.95
2271.89
2283.98
2292.1
2297.1
2299.78
2300.69
2300.22
2298.82
2296.82
2294.55
2292.05
2289.12
2285.76
2282.22
2278.4
2274.42
2270.44
2266.48
2262.51
2258.56
2254.64
2250.72
2246.82
2242.94
2239.05
2235.16
2231.25
2227.34
2223.41
2219.46
2215.49
2211.49
2207.47
2203.43
2199.35
2195.25
2191.11
2186.97
2182.8
2004.17
2063.03
2116.53
2164.04
2205.09
2239.49
2267.35
2289.1
2305.42
2317.09
2324.89
2329.68
2332.16
2332.82
2332.19
2330.61
2328.3
2325.66
2322.89
2319.83
2316.2
2312.4
2308.42
2304.19
2299.93
2295.68
2291.43
2287.19
2282.99
2278.81
2274.63
2270.47
2266.31
2262.15
2258
2253.84
2249.66
2245.47
2241.27
2237.04
2232.79
2228.51
2224.21
2219.88
2215.52
2211.12
2206.7
2202.24
2197.77
2193.27
2207.4
2245.98
2278.33
2304.56
2325.08
2340.5
2351.51
2358.81
2363.27
2365.45
2365.77
2364.95
2363.12
2360.46
2357.52
2354.44
2351.09
2347.27
2343.23
2339.05
2334.6
2330.04
2325.51
2320.99
2316.46
2311.96
2307.5
2303.05
2298.62
2294.2
2289.78
2285.37
2280.95
2276.53
2272.09
2267.65
2263.19
2258.71
2254.2
2249.68
2245.12
2240.54
2235.92
2231.28
2226.6
2221.88
2217.14
2212.36
2207.56
2202.72
2343.8
2362.82
2377.09
2387.22
2393.89
2397.85
2399.62
2399.54
2398.46
2396.34
2393.35
2390.11
2386.67
2382.99
2379.01
2374.68
2370.23
2365.58
2360.76
2355.95
2351.15
2346.35
2341.57
2336.82
2332.09
2327.38
2322.69
2318.01
2313.34
2308.67
2303.99
2299.31
2294.63
2289.93
2285.21
2280.48
2275.73
2270.95
2266.15
2261.32
2256.46
2251.56
2246.63
2241.67
2236.67
2231.64
2226.57
2221.46
2216.34
2211.18
2424.18
2430.06
2433.4
2434.61
2434.16
2432.72
2430.24
2426.93
2423.33
2419.55
2415.56
2411.38
2406.75
2402
2397.15
2392.08
2386.97
2381.91
2376.83
2371.75
2366.73
2361.73
2356.74
2351.78
2346.83
2341.89
2336.96
2332.04
2327.11
2322.18
2317.25
2312.3
2307.33
2302.35
2297.35
2292.33
2287.28
2282.21
2277.1
2271.96
2266.79
2261.59
2256.34
2251.06
2245.74
2240.39
2235
2229.57
2224.12
2218.63
2470.42
2469.57
2467.67
2464.8
2461.16
2457.2
2453.09
2448.74
2444.24
2439.41
2434.38
2429.29
2423.99
2418.58
2413.23
2407.88
2402.53
2397.22
2391.95
2386.68
2381.44
2376.23
2371.03
2365.84
2360.66
2355.48
2350.31
2345.13
2339.94
2334.74
2329.54
2324.31
2319.07
2313.8
2308.51
2303.19
2297.85
2292.47
2287.06
2281.61
2276.13
2270.61
2265.05
2259.46
2253.82
2248.14
2242.43
2236.68
2230.91
2225.09
2496
2491.67
2487.2
2482.51
2477.69
2472.63
2467.3
2461.91
2456.4
2450.74
2445.1
2439.49
2433.86
2428.26
2422.71
2417.18
2411.67
2406.19
2400.73
2395.27
2389.84
2384.41
2378.99
2373.56
2368.14
2362.7
2357.26
2351.81
2346.34
2340.86
2335.35
2329.83
2324.27
2318.69
2313.07
2307.43
2301.75
2296.03
2290.28
2284.48
2278.65
2272.77
2266.86
2260.9
2254.91
2248.87
2242.8
2236.71
2230.57
2516.84
2511.7
2506.35
2500.76
2495.08
2489.32
2483.4
2477.47
2471.61
2465.72
2459.84
2454.02
2448.22
2442.43
2436.69
2430.96
2425.25
2419.56
2413.88
2408.2
2402.53
2396.86
2391.2
2385.53
2379.84
2374.15
2368.44
2362.72
2356.98
2351.22
2345.43
2339.61
2333.77
2327.89
2321.98
2316.03
2310.04
2304.02
2297.95
2291.84
2285.7
2279.51
2273.27
2267
2260.69
2254.34
2247.95
2241.54
2235.08
2534.72
2528.75
2522.72
2516.56
2510.36
2504.22
2498.07
2491.91
2485.83
2479.77
2473.71
2467.7
2461.71
2455.74
2449.8
2443.86
2437.94
2432.03
2426.12
2420.21
2414.3
2408.39
2402.47
2396.54
2390.6
2384.64
2378.67
2372.67
2366.65
2360.61
2354.53
2348.43
2342.28
2336.11
2329.9
2323.65
2317.35
2311.02
2304.64
2298.23
2291.76
2285.26
2278.71
2272.12
2265.49
2258.83
2252.13
2245.4
2238.63
2543.7
2537.28
2530.89
2524.47
2518.11
2511.79
2505.47
2499.2
2492.96
2486.73
2480.53
2474.35
2468.17
2462.01
2455.86
2449.72
2443.58
2437.44
2431.29
2425.14
2418.98
2412.8
2406.62
2400.41
2394.18
2387.94
2381.66
2375.36
2369.03
2362.67
2356.27
2349.83
2343.36
2336.84
2330.29
2323.69
2317.05
2310.36
2303.63
2296.86
2290.04
2283.18
2276.28
2269.34
2262.36
2255.34
2248.31
2241.22
2557.47
2550.83
2544.26
2537.7
2531.16
2524.67
2518.19
2511.73
2505.3
2498.89
2492.48
2486.09
2479.71
2473.33
2466.96
2460.59
2454.21
2447.83
2441.44
2435.04
2428.62
2422.19
2415.74
2409.27
2402.77
2396.25
2389.69
2383.11
2376.49
2369.83
2363.14
2356.41
2349.64
2342.82
2335.96
2329.06
2322.11
2315.11
2308.07
2300.99
2293.86
2286.69
2279.48
2272.22
2264.94
2257.62
2250.27
2242.88
2563.55
2556.81
2550.08
2543.38
2536.7
2530.04
2523.4
2516.77
2510.16
2503.55
2496.94
2490.34
2483.74
2477.14
2470.53
2463.92
2457.29
2450.65
2444
2437.33
2430.63
2423.92
2417.17
2410.4
2403.6
2396.76
2389.89
2382.99
2376.04
2369.05
2362.02
2354.95
2347.83
2340.67
2333.46
2326.21
2318.9
2311.56
2304.16
2296.73
2289.25
2281.73
2274.17
2266.58
2258.95
2251.3
2243.62
2575.43
2568.52
2561.62
2554.74
2547.88
2541.03
2534.19
2527.36
2520.54
2513.71
2506.89
2500.07
2493.24
2486.4
2479.56
2472.7
2465.82
2458.93
2452.02
2445.09
2438.13
2431.14
2424.13
2417.08
2410
2402.88
2395.72
2388.52
2381.29
2374
2366.68
2359.31
2351.89
2344.42
2336.91
2329.35
2321.75
2314.09
2306.39
2298.65
2290.87
2283.04
2275.18
2267.29
2259.38
2251.46
2243.5
2579.38
2572.31
2565.24
2558.18
2551.14
2544.09
2537.06
2530.02
2522.98
2515.93
2508.88
2501.81
2494.74
2487.65
2480.55
2473.42
2466.28
2459.11
2451.91
2444.68
2437.42
2430.13
2422.81
2415.44
2408.04
2400.6
2393.11
2385.58
2378
2370.38
2362.71
2354.99
2347.23
2339.42
2331.55
2323.64
2315.69
2307.68
2299.64
2291.56
2283.45
2275.31
2267.15
2258.96
2250.76
2242.51
2589.39
2582.12
2574.86
2567.61
2560.36
2553.1
2545.85
2538.59
2531.33
2524.06
2516.77
2509.47
2502.16
2494.82
2487.47
2480.09
2472.68
2465.25
2457.79
2450.29
2442.76
2435.19
2427.59
2419.94
2412.25
2404.52
2396.75
2388.93
2381.06
2373.14
2365.17
2357.16
2349.1
2340.98
2332.82
2324.61
2316.36
2308.08
2299.75
2291.39
2283.01
2274.59
2266.14
2257.67
2249.18
2240.66
2598.52
2591.06
2583.6
2576.14
2568.68
2561.22
2553.74
2546.26
2538.77
2531.27
2523.74
2516.2
2508.64
2501.06
2493.45
2485.82
2478.15
2470.45
2462.72
2454.96
2447.15
2439.31
2431.43
2423.5
2415.53
2407.51
2399.45
2391.33
2383.17
2374.96
2366.7
2358.39
2350.03
2341.63
2333.19
2324.7
2316.17
2307.61
2299.01
2290.36
2281.69
2272.98
2264.26
2255.51
2246.75
2237.96
2606.77
2599.11
2591.45
2583.78
2576.11
2568.42
2560.73
2553.02
2545.3
2537.56
2529.8
2522.01
2514.2
2506.37
2498.51
2490.61
2482.69
2474.73
2466.73
2458.69
2450.61
2442.49
2434.33
2426.12
2417.87
2409.56
2401.21
2392.81
2384.35
2375.85
2367.31
2358.73
2350.09
2341.41
2332.69
2323.93
2315.12
2306.27
2297.38
2288.46
2279.5
2270.53
2261.53
2252.52
2243.5
2234.45
2614.14
2606.27
2598.4
2590.52
2582.63
2574.72
2566.8
2558.87
2550.91
2542.93
2534.93
2526.9
2518.84
2510.75
2502.63
2494.48
2486.29
2478.06
2469.8
2461.49
2453.14
2444.74
2436.3
2427.81
2419.27
2410.68
2402.04
2393.37
2384.65
2375.87
2367.06
2358.2
2349.29
2340.33
2331.32
2322.28
2313.19
2304.06
2294.89
2285.7
2276.48
2267.24
2257.98
2248.71
2239.44
2230.14
2620.61
2612.54
2604.46
2596.36
2588.25
2580.12
2571.97
2563.8
2555.6
2547.38
2539.14
2530.86
2522.55
2514.21
2505.84
2497.42
2488.97
2480.48
2471.94
2463.36
2454.74
2446.06
2437.34
2428.58
2419.77
2410.92
2402.02
2393.07
2384.08
2375.04
2365.94
2356.8
2347.61
2338.37
2329.09
2319.76
2310.4
2301
2291.57
2282.12
2272.64
2263.14
2253.63
2244.11
2234.6
2225.06
2626.19
2617.91
2609.61
2601.29
2592.96
2584.6
2576.22
2567.81
2559.38
2550.92
2542.43
2533.9
2525.35
2516.75
2508.12
2499.44
2490.73
2481.97
2473.16
2464.31
2455.42
2446.49
2437.51
2428.48
2419.41
2410.3
2401.13
2391.9
2382.63
2373.31
2363.94
2354.52
2345.06
2335.55
2326.01
2316.42
2306.79
2297.13
2287.44
2277.73
2268
2258.26
2248.5
2238.75
2229
2219.23
2622.38
2613.86
2605.32
2596.76
2588.17
2579.56
2570.92
2562.25
2553.54
2544.8
2536.03
2527.22
2518.37
2509.47
2500.54
2491.56
2482.55
2473.49
2464.39
2455.24
2446.05
2436.81
2427.52
2418.18
2408.79
2399.35
2389.86
2380.32
2370.73
2361.09
2351.41
2341.68
2331.91
2322.1
2312.25
2302.37
2292.46
2282.53
2272.57
2262.59
2252.61
2242.63
2232.64
2222.67
2212.68
2625.94
2617.21
2608.44
2599.65
2590.84
2581.99
2573.11
2564.2
2555.25
2546.26
2537.24
2528.17
2519.07
2509.94
2500.75
2491.53
2482.27
2472.96
2463.61
2454.2
2444.74
2435.24
2425.68
2416.08
2406.42
2396.71
2386.96
2377.16
2367.31
2357.41
2347.47
2337.48
2327.46
2317.4
2307.3
2297.17
2287.02
2276.84
2266.65
2256.44
2246.23
2236.02
2225.82
2215.63
2205.43
2628.61
2619.65
2610.66
2601.64
2592.59
2583.51
2574.39
2565.23
2556.04
2546.82
2537.56
2528.26
2518.92
2509.54
2500.11
2490.64
2481.12
2471.56
2461.94
2452.28
2442.56
2432.8
2422.98
2413.12
2403.2
2393.24
2383.23
2373.17
2363.07
2352.92
2342.73
2332.49
2322.22
2311.92
2301.58
2291.22
2280.83
2270.42
2260
2249.57
2239.14
2228.71
2218.3
2207.91
2197.51
2621.18
2611.97
2602.72
2593.43
2584.12
2574.78
2565.4
2555.97
2546.52
2537.03
2527.49
2517.9
2508.27
2498.6
2488.87
2479.1
2469.28
2459.41
2449.49
2439.52
2429.51
2419.44
2409.33
2399.16
2388.95
2378.69
2368.38
2358.03
2347.64
2337.21
2326.73
2316.22
2305.68
2295.11
2284.52
2273.91
2263.28
2252.64
2241.99
2231.35
2220.73
2210.11
2199.53
2188.94
2621.82
2612.39
2602.92
2593.42
2583.88
2574.31
2564.71
2555.05
2545.36
2535.62
2525.83
2516.01
2506.13
2496.21
2486.24
2476.22
2466.15
2456.04
2445.87
2435.66
2425.39
2415.08
2404.72
2394.31
2383.86
2373.36
2362.81
2352.22
2341.59
2330.93
2320.22
2309.49
2298.72
2287.93
2277.11
2266.28
2255.44
2244.59
2233.75
2222.91
2212.09
2201.29
2190.51
2179.75
2621.6
2611.96
2602.27
2592.55
2582.78
2572.98
2563.14
2553.25
2543.31
2533.34
2523.32
2513.25
2503.13
2492.97
2482.76
2472.5
2462.19
2451.84
2441.43
2430.98
2420.47
2409.92
2399.33
2388.68
2377.99
2367.26
2356.48
2345.66
2334.81
2323.91
2312.99
2302.03
2291.05
2280.04
2269.02
2257.98
2246.94
2235.89
2224.85
2213.83
2202.82
2191.84
2180.9
2169.97
2620.53
2610.66
2600.75
2590.8
2580.81
2570.77
2560.7
2550.58
2540.41
2530.2
2519.95
2509.65
2499.3
2488.9
2478.45
2467.96
2457.42
2446.83
2436.19
2425.5
2414.77
2403.99
2393.16
2382.29
2371.37
2360.41
2349.41
2338.37
2327.3
2316.19
2305.05
2293.88
2282.69
2271.48
2260.26
2249.03
2237.79
2226.56
2215.33
2204.13
2192.95
2181.81
2170.7
2159.62
2608.48
2598.35
2588.18
2577.97
2567.71
2557.41
2547.06
2536.67
2526.23
2515.75
2505.22
2494.64
2484.02
2473.34
2462.62
2451.85
2441.03
2430.17
2419.26
2408.3
2397.29
2386.24
2375.15
2364.02
2352.84
2341.63
2330.38
2319.09
2307.78
2296.44
2285.07
2273.68
2262.28
2250.86
2239.44
2228.03
2216.62
2205.23
2193.86
2182.52
2171.22
2159.96
2148.73
2605.45
2595.1
2584.71
2574.28
2563.8
2553.28
2542.71
2532.1
2521.44
2510.74
2499.98
2489.18
2478.34
2467.44
2456.5
2445.51
2434.47
2423.39
2412.26
2401.08
2389.87
2378.6
2367.3
2355.95
2344.57
2333.15
2321.7
2310.22
2298.7
2287.17
2275.61
2264.04
2252.45
2240.86
2229.27
2217.68
2206.11
2194.55
2183.03
2171.54
2160.09
2148.7
2137.33
2601.57
2591.01
2580.41
2569.76
2559.07
2548.34
2537.55
2526.73
2515.85
2504.93
2493.96
2482.95
2471.88
2460.77
2449.62
2438.41
2427.16
2415.87
2404.53
2393.15
2381.72
2370.26
2358.75
2347.21
2335.63
2324.01
2312.37
2300.69
2289
2277.28
2265.54
2253.79
2242.04
2230.27
2218.52
2206.77
2195.04
2183.34
2171.67
2160.04
2148.45
2136.92
2125.43
2586.1
2575.29
2564.44
2553.53
2542.59
2531.6
2520.56
2509.47
2498.34
2487.17
2475.94
2464.67
2453.36
2441.99
2430.59
2419.13
2407.64
2396.1
2384.51
2372.89
2361.23
2349.53
2337.8
2326.03
2314.23
2302.41
2290.56
2278.68
2266.79
2254.89
2242.97
2231.05
2219.14
2207.22
2195.33
2183.45
2171.61
2159.8
2148.03
2136.32
2124.67
2113.06
2580.38
2569.37
2558.31
2547.2
2536.06
2524.86
2513.62
2502.33
2491
2479.62
2468.2
2456.73
2445.21
2433.65
2422.05
2410.4
2398.71
2386.98
2375.21
2363.4
2351.56
2339.68
2327.76
2315.82
2303.85
2291.85
2279.83
2267.79
2255.74
2243.67
2231.6
2219.53
2207.46
2195.4
2183.37
2171.35
2159.38
2147.44
2135.56
2123.73
2111.97
2100.25
2573.87
2562.66
2551.4
2540.1
2528.76
2517.37
2505.93
2494.45
2482.92
2471.35
2459.73
2448.07
2436.37
2424.62
2412.83
2401
2389.13
2377.21
2365.26
2353.28