/*--------------------------------*- C++ -*----------------------------------*\
| =========                 |                                                 |
| \\      /  F ield         | OpenFOAM: The Open Source CFD Toolbox           |
|  \\    /   O peration     | Version:  v1706                                 |
|   \\  /    A nd           | Web:      www.OpenFOAM.com                      |
|    \\/     M anipulation  |                                                 |
\*---------------------------------------------------------------------------*/
FoamFile
{
    version     2.0;
    format      ascii;
    class       volScalarField;
    location    "1.1e-05";
    object      Tv;
}
// * * * * * * * * * * * * * * * * * * * * * * * * * * * * * * * * * * * * * //

dimensions      [0 0 0 1 0 0 0];


internalField   nonuniform List<scalar> 
30038
(
144.4
144.4
144.4
144.4
144.4
144.4
144.4
144.4
144.4
144.4
144.4
144.4
144.4
144.4
144.4
144.4
144.4
144.4
144.4
144.4
144.4
144.4
144.4
144.4
144.4
144.4
144.4
144.4
144.4
144.4
144.4
144.4
144.4
144.4
144.4
144.4
144.4
144.4
144.4
144.4
144.4
144.4
144.4
144.4
144.4
144.4
144.4
144.4
144.4
144.4
144.4
144.4
144.4
144.4
144.4
144.4
144.4
144.4
144.4
144.4
144.4
144.4
144.4
144.4
144.4
144.4
144.4
144.4
144.4
144.4
144.4
144.4
144.4
144.4
144.4
144.4
144.4
144.4
144.4
144.4
144.4
144.4
144.4
144.4
144.4
144.4
144.4
144.4
144.4
144.4
144.4
144.4
144.4
144.4
144.4
144.4
144.4
144.4
144.4
144.4
144.4
144.4
144.4
144.4
144.4
144.4
144.4
144.4
144.4
144.4
144.4
144.4
144.4
144.4
144.4
144.4
144.4
144.4
144.4
144.4
144.4
144.4
144.4
144.4
144.4
144.4
144.4
144.4
144.4
144.4
144.4
144.4
144.4
144.4
144.4
144.4
144.4
144.4
144.4
144.4
144.4
144.4
144.4
144.4
144.4
144.4
144.4
144.4
144.4
144.4
144.4
144.4
144.4
144.4
144.4
144.4
144.4
144.4
144.4
144.4
144.4
144.4
144.4
144.4
144.4
144.4
144.4
144.4
144.4
144.4
144.4
144.4
144.4
144.4
144.4
144.4
144.4
144.4
144.4
144.4
144.4
144.4
144.4
144.4
144.4
144.4
144.4
144.4
144.4
144.4
144.4
144.4
144.4
144.4
144.4
144.4
144.4
144.4
144.4
144.4
144.4
144.4
144.4
144.4
144.4
144.4
144.4
144.4
144.4
144.4
144.4
144.4
144.4
144.4
144.4
144.4
144.4
144.4
144.4
144.4
144.4
144.4
144.4
144.4
144.4
144.4
144.4
144.4
144.4
144.4
144.4
144.4
144.4
144.4
144.4
144.4
144.4
144.4
144.4
144.4
144.4
144.4
144.4
144.4
144.4
144.4
144.4
144.4
144.4
144.4
144.4
144.4
144.4
144.4
144.4
144.4
144.4
144.4
144.4
144.4
144.4
144.4
144.4
144.4
144.4
144.4
144.4
144.4
144.4
144.4
144.4
144.4
144.4
144.4
144.4
144.4
144.4
144.4
144.4
144.4
144.4
144.4
144.4
144.4
144.4
144.4
144.4
144.4
144.4
144.4
144.4
144.4
144.4
144.4
144.4
144.4
144.4
144.4
144.4
144.4
144.4
144.4
144.4
144.4
144.4
144.4
144.4
144.4
144.4
144.4
144.4
144.4
144.4
144.4
144.4
144.4
144.4
144.4
144.4
144.4
144.4
144.4
144.4
144.4
144.4
144.4
144.4
144.4
144.4
144.4
144.4
144.4
144.4
144.4
144.4
144.4
144.4
144.4
144.4
144.4
144.4
144.4
144.4
144.4
144.4
144.4
144.4
144.4
144.4
144.4
144.4
144.4
144.4
144.4
144.4
144.4
144.4
144.4
144.4
144.4
144.4
144.4
144.4
144.4
144.4
144.4
144.4
144.4
144.4
144.4
144.4
144.4
144.4
144.4
144.4
144.4
144.4
144.4
144.4
144.4
144.4
144.4
144.4
144.4
144.4
144.4
144.4
144.4
144.4
144.4
144.4
144.4
144.4
144.4
144.4
144.4
144.4
144.4
144.4
144.4
144.4
144.4
144.4
144.4
144.4
144.4
144.4
144.4
144.4
144.4
144.4
144.4
144.4
144.4
144.4
144.4
144.4
144.4
144.4
144.4
144.4
144.4
144.4
144.4
144.4
144.4
144.4
144.4
144.4
144.4
144.4
144.4
144.4
144.4
144.4
144.4
144.4
144.4
144.4
144.4
144.4
144.4
144.4
144.4
144.4
144.4
144.4
144.4
144.4
144.4
144.4
144.4
144.4
144.4
144.4
144.4
144.4
144.4
144.4
144.4
144.4
144.4
144.4
144.4
144.4
144.4
144.4
144.4
144.4
144.4
144.4
144.4
144.4
144.4
144.4
144.4
144.4
144.4
144.4
144.4
144.4
144.4
144.4
144.4
144.4
144.4
144.4
144.4
144.4
144.4
144.4
144.4
144.4
144.4
144.4
144.4
144.4
144.4
144.4
144.4
144.4
144.4
144.4
144.4
144.4
144.4
144.4
144.4
144.4
144.4
144.4
144.4
144.4
144.4
144.4
144.4
144.4
144.4
144.4
144.4
144.4
144.4
144.4
144.4
144.4
144.4
144.4
144.4
144.4
144.4
144.4
144.4
144.4
144.4
144.4
144.4
144.4
144.4
144.4
144.4
144.4
144.4
144.4
144.4
144.4
144.4
144.4
144.4
144.4
144.4
144.4
144.4
144.4
144.4
144.4
144.4
144.4
144.4
144.4
144.4
144.4
144.4
144.4
144.4
144.4
144.4
144.4
144.4
144.4
144.4
144.4
144.4
144.4
144.4
144.4
144.4
144.4
144.4
144.4
144.4
144.4
144.4
144.4
144.4
144.4
144.4
144.4
144.4
144.4
144.4
144.4
144.4
144.4
144.4
144.4
144.4
144.4
144.4
144.4
144.4
144.4
144.4
144.4
144.4
144.4
144.4
144.4
144.4
144.4
144.4
144.4
144.4
144.4
144.4
144.4
144.4
144.4
144.4
144.4
144.4
144.4
144.4
144.4
144.4
144.4
144.4
144.4
144.4
144.4
144.4
144.4
144.4
144.4
144.4
144.4
144.4
144.4
144.4
144.4
144.4
144.4
144.4
144.4
144.4
144.4
144.4
144.4
144.4
144.4
144.4
144.4
144.4
144.4
144.4
144.4
144.4
144.4
144.4
144.4
144.4
144.4
144.4
144.4
144.4
144.4
144.4
144.4
144.4
144.4
144.4
144.4
144.4
144.4
144.4
144.4
144.4
144.4
144.4
144.4
144.4
144.4
144.4
144.4
144.4
144.4
144.4
144.4
144.4
144.4
144.4
144.4
144.4
144.4
144.4
144.4
144.4
144.4
144.4
144.4
144.4
144.4
144.4
144.4
144.4
144.4
144.4
144.4
144.4
144.4
144.4
144.4
144.4
144.4
144.4
144.4
144.4
144.4
144.4
144.4
144.4
144.4
144.4
144.4
144.4
144.4
144.4
144.4
144.4
144.4
144.4
144.4
144.4
144.4
144.4
144.4
144.4
144.4
144.4
144.4
144.4
144.4
144.4
144.4
144.4
144.4
144.4
144.4
144.4
144.4
144.4
144.4
144.4
144.4
144.4
144.4
144.4
144.4
144.4
144.4
144.4
144.4
144.4
144.4
144.4
144.4
144.4
144.4
144.4
144.4
144.4
144.4
144.4
144.4
144.4
144.4
144.4
144.4
144.4
144.4
144.4
144.4
144.4
144.4
144.4
144.4
144.4
144.4
144.4
144.4
144.4
144.4
144.4
144.4
144.4
144.4
144.4
144.4
144.4
144.4
144.4
144.4
144.4
144.4
144.4
144.4
144.4
144.4
144.4
144.4
144.4
144.4
144.4
144.4
144.4
144.4
144.4
144.4
144.4
144.4
144.4
144.4
144.4
144.4
144.4
144.4
144.4
144.4
144.4
144.4
144.4
144.4
144.4
144.4
144.4
144.4
144.4
144.4
144.4
144.4
144.4
144.4
144.4
144.4
144.4
144.4
144.4
144.4
144.4
144.4
144.4
144.4
144.4
144.4
144.4
144.4
144.4
144.4
144.4
144.4
144.4
144.4
144.4
144.4
144.4
144.4
144.4
144.4
144.4
144.4
144.4
144.4
144.4
144.4
144.4
144.4
144.4
144.4
144.4
144.4
144.4
144.4
144.4
144.4
144.4
144.4
144.4
144.4
144.4
144.4
144.4
144.4
144.4
144.4
144.4
144.4
144.4
144.4
144.4
144.4
144.4
144.4
144.4
144.4
144.4
144.4
144.4
144.4
144.4
144.4
144.4
144.4
144.4
144.4
144.4
144.4
144.4
144.4
144.4
144.4
144.4
144.4
144.4
144.4
144.4
144.4
144.4
144.4
144.4
144.4
144.4
144.4
144.4
144.4
144.4
144.4
144.4
144.4
144.4
144.4
144.4
144.4
144.4
144.4
144.4
144.4
144.4
144.4
144.4
144.4
144.4
144.4
144.4
144.4
144.4
144.4
144.4
144.4
144.4
144.4
144.4
144.4
144.4
144.4
144.4
144.4
144.4
144.4
144.4
144.4
144.4
144.4
144.4
144.4
144.4
144.4
144.4
144.4
144.4
144.4
144.4
144.4
144.4
144.4
144.4
144.4
144.4
144.4
144.4
144.4
144.4
144.4
144.4
144.4
144.4
144.4
144.4
144.4
144.4
144.4
144.4
144.4
144.4
144.4
144.4
144.4
144.4
144.4
144.4
144.4
144.4
144.4
144.4
144.4
144.4
144.4
144.4
144.4
144.4
144.4
144.4
144.4
144.4
144.4
144.4
144.4
144.4
144.4
144.4
144.4
144.4
144.4
144.4
144.4
144.4
144.4
144.4
144.4
144.4
144.4
144.4
144.4
144.4
144.4
144.4
144.4
144.4
144.4
144.4
144.4
144.4
144.4
144.4
144.4
144.4
144.4
144.4
144.4
144.4
144.4
144.4
144.4
144.4
144.4
144.4
144.4
144.4
144.4
144.4
144.4
144.4
144.4
144.4
144.4
144.4
144.4
144.4
144.4
144.4
144.4
144.4
144.4
144.4
144.4
144.4
144.4
144.4
144.4
144.4
144.4
144.4
144.4
144.4
144.4
144.4
144.4
144.4
144.4
144.4
144.4
144.4
144.4
144.4
144.4
144.4
144.4
144.4
144.4
144.4
144.4
144.4
144.4
144.4
144.4
144.4
144.4
144.4
144.4
144.4
144.4
144.4
144.4
144.4
144.4
144.4
144.4
144.4
144.4
144.4
144.4
144.4
144.4
144.4
144.4
144.4
144.4
144.4
144.4
144.4
144.4
144.4
144.4
144.4
144.4
144.4
144.4
144.4
144.4
144.4
144.4
144.4
144.4
144.4
144.4
144.4
144.4
144.4
144.4
144.4
144.4
144.4
144.4
144.4
144.4
144.4
144.4
144.4
144.4
144.4
144.4
144.4
144.4
144.4
144.4
144.4
144.4
144.4
144.4
144.4
144.4
144.4
144.4
144.4
144.4
144.4
144.4
144.4
144.4
144.4
144.4
144.4
144.4
144.4
144.4
144.4
144.4
144.4
144.4
144.4
144.4
144.4
144.4
144.4
144.4
144.4
144.4
144.4
144.4
144.4
144.4
144.4
144.4
144.4
144.4
144.4
144.4
144.4
144.4
144.4
144.4
144.4
144.4
144.4
144.4
144.4
144.4
144.4
144.4
144.4
144.4
144.4
144.4
144.4
144.4
144.4
144.4
144.4
144.4
144.4
144.4
144.401
144.401
144.403
144.4
144.4
144.4
144.4
144.4
144.4
144.4
144.4
144.4
144.4
144.4
144.4
144.4
144.4
144.4
144.4
144.4
144.4
144.4
144.4
144.4
144.4
144.4
144.4
144.4
144.4
144.4
144.4
144.4
144.4
144.4
144.4
144.4
144.4
144.4
144.4
144.4
144.4
144.4
144.4
144.4
144.4
144.4
144.4
144.401
144.401
144.402
144.405
144.411
144.427
144.4
144.4
144.4
144.4
144.4
144.4
144.4
144.4
144.4
144.4
144.4
144.4
144.4
144.4
144.4
144.4
144.4
144.4
144.4
144.4
144.4
144.4
144.4
144.4
144.4
144.4
144.4
144.4
144.4
144.4
144.4
144.4
144.4
144.4
144.4
144.4
144.4
144.4
144.4
144.4
144.4
144.401
144.401
144.403
144.405
144.411
144.423
144.449
144.505
144.646
144.4
144.4
144.4
144.4
144.4
144.4
144.4
144.4
144.4
144.4
144.4
144.4
144.4
144.4
144.4
144.4
144.4
144.4
144.4
144.4
144.4
144.4
144.4
144.4
144.4
144.4
144.4
144.4
144.4
144.4
144.4
144.4
144.4
144.4
144.4
144.4
144.4
144.4
144.401
144.401
144.403
144.406
144.412
144.424
144.45
144.504
144.615
144.845
145.321
146.375
144.4
144.4
144.4
144.4
144.4
144.4
144.4
144.4
144.4
144.4
144.4
144.4
144.4
144.4
144.4
144.4
144.4
144.4
144.4
144.4
144.4
144.4
144.4
144.4
144.4
144.4
144.4
144.4
144.4
144.4
144.4
144.4
144.4
144.4
144.4
144.401
144.402
144.403
144.406
144.413
144.426
144.453
144.508
144.62
144.848
145.299
146.157
147.681
150.149
153.98
144.4
144.4
144.4
144.4
144.4
144.4
144.4
144.4
144.4
144.4
144.4
144.4
144.4
144.4
144.4
144.4
144.4
144.4
144.4
144.4
144.4
144.4
144.4
144.4
144.4
144.4
144.4
144.4
144.4
144.4
144.4
144.4
144.401
144.402
144.404
144.407
144.414
144.429
144.458
144.516
144.634
144.867
145.322
146.173
147.658
150.004
153.312
157.524
162.532
168.488
144.4
144.4
144.4
144.4
144.4
144.4
144.4
144.4
144.4
144.4
144.4
144.4
144.4
144.4
144.4
144.4
144.4
144.4
144.4
144.4
144.4
144.4
144.4
144.4
144.4
144.4
144.4
144.4
144.401
144.401
144.402
144.404
144.409
144.417
144.433
144.466
144.53
144.656
144.903
145.375
146.243
147.731
150.05
153.287
157.381
162.192
167.58
173.434
179.679
186.385
144.4
144.4
144.4
144.4
144.4
144.4
144.4
144.4
144.4
144.4
144.4
144.4
144.4
144.4
144.4
144.4
144.4
144.4
144.4
144.4
144.4
144.4
144.4
144.4
144.4
144.401
144.402
144.403
144.406
144.411
144.42
144.44
144.477
144.549
144.689
144.959
145.464
146.372
147.898
150.229
153.44
157.466
162.177
167.441
173.148
179.198
185.48
191.876
198.281
204.663
144.4
144.4
144.4
144.4
144.4
144.4
144.4
144.4
144.4
144.4
144.4
144.4
144.4
144.4
144.4
144.4
144.4
144.4
144.4
144.4
144.4
144.401
144.401
144.402
144.404
144.407
144.413
144.426
144.449
144.493
144.577
144.738
145.04
145.595
146.57
148.166
150.549
153.77
157.763
162.402
167.569
173.164
179.093
185.254
191.531
197.798
203.941
209.873
215.559
221.013
144.4
144.4
144.4
144.4
144.4
144.4
144.4
144.4
144.4
144.4
144.4
144.4
144.4
144.4
144.4
144.4
144.4
144.4
144.401
144.402
144.403
144.405
144.409
144.418
144.433
144.462
144.516
144.617
144.807
145.156
145.782
146.851
148.551
151.021
154.287
158.274
162.867
167.958
173.456
179.279
185.332
191.506
197.683
203.751
209.619
215.225
220.545
225.579
230.361
234.943
144.4
144.4
144.4
144.4
144.4
144.4
144.4
144.4
144.4
144.4
144.4
144.4
144.4
144.4
144.401
144.401
144.402
144.404
144.407
144.413
144.424
144.444
144.481
144.549
144.674
144.904
145.319
146.041
147.237
149.076
151.664
155.002
159.009
163.576
168.609
174.027
179.755
185.705
191.778
197.861
203.849
209.652
215.211
220.491
225.488
230.213
234.688
238.948
243.036
247.007
144.4
144.4
144.4
144.4
144.4
144.4
144.4
144.4
144.4
144.4
144.401
144.401
144.402
144.403
144.406
144.41
144.418
144.433
144.46
144.509
144.597
144.757
145.044
145.547
146.398
147.756
149.768
152.502
155.935
159.98
164.539
169.53
174.881
180.524
186.378
192.349
198.334
204.232
209.959
215.454
220.685
225.642
230.335
234.781
239.006
243.036
246.9
250.623
254.247
257.832
144.4
144.4
144.4
144.4
144.4
144.4
144.401
144.401
144.402
144.403
144.405
144.409
144.415
144.427
144.448
144.485
144.551
144.669
144.879
145.245
145.869
146.886
148.445
150.66
153.562
157.105
161.201
165.766
170.727
176.023
181.59
187.353
193.225
199.107
204.906
210.543
215.96
221.125
226.028
230.675
235.083
239.273
243.272
247.103
250.789
254.352
257.813
261.189
264.511
267.843
144.4
144.4
144.401
144.401
144.402
144.403
144.405
144.408
144.413
144.423
144.44
144.471
144.524
144.616
144.779
145.06
145.537
146.321
147.549
149.347
151.79
154.873
158.534
162.691
167.27
172.212
177.461
182.959
188.636
194.407
200.183
205.875
211.41
216.735
221.82
226.653
231.24
235.596
239.741
243.698
247.491
251.14
254.667
258.09
261.425
264.686
267.881
271.018
274.108
277.218
144.401
144.402
144.403
144.404
144.407
144.413
144.421
144.437
144.463
144.508
144.585
144.719
144.947
145.331
145.961
146.956
148.441
150.511
153.197
156.464
160.245
164.466
169.067
173.996
179.205
184.639
190.231
195.901
201.565
207.142
212.564
217.784
222.773
227.522
232.035
236.327
240.414
244.32
248.065
251.67
255.155
258.536
261.83
265.05
268.205
271.301
274.34
277.32
280.237
283.097
285.967
144.408
144.413
144.421
144.435
144.459
144.5
144.569
144.686
144.882
145.208
145.74
146.579
147.84
149.625
151.987
154.918
158.365
162.261
166.547
171.171
176.092
181.265
186.638
192.144
197.71
203.255
208.708
214.006
219.107
223.988
228.639
233.065
237.28
241.299
245.142
248.83
252.383
255.818
259.152
262.401
265.575
268.687
271.741
274.741
277.686
280.571
283.392
286.147
288.834
291.462
294.099
144.436
144.46
144.499
144.564
144.673
144.852
145.145
145.618
146.358
147.47
149.051
151.166
153.824
156.988
160.601
164.605
168.951
173.599
178.514
183.652
188.962
194.38
199.835
205.255
210.572
215.735
220.706
225.465
230.006
234.332
238.457
242.397
246.168
249.792
253.284
256.663
259.944
263.14
266.266
269.329
272.337
275.294
278.199
281.049
283.84
286.567
289.228
291.823
294.353
296.823
299.243
301.675
144.677
144.85
145.13
145.573
146.259
147.28
148.728
150.669
153.12
156.059
159.436
163.197
167.297
171.698
176.369
181.275
186.375
191.618
196.941
202.277
207.561
212.734
217.75
222.579
227.204
231.622
235.837
239.862
243.712
247.402
250.951
254.376
257.692
260.913
264.053
267.124
270.135
273.093
276.002
278.863
281.674
284.428
287.124
289.757
292.325
294.83
297.273
299.658
301.99
304.27
306.511
308.769
146.265
147.245
148.621
150.453
152.763
155.534
158.724
162.284
166.174
170.358
174.809
179.497
184.389
189.445
194.611
199.828
205.035
210.172
215.188
220.046
224.721
229.202
233.486
237.58
241.494
245.244
248.845
252.311
255.661
258.907
262.063
265.142
268.154
271.108
274.012
276.87
279.682
282.448
285.163
287.822
290.422
292.96
295.437
297.852
300.209
302.513
304.764
306.969
309.129
311.249
313.338
315.445
152.726
155.384
158.435
161.838
165.554
169.553
173.809
178.299
182.996
187.866
192.865
197.942
203.041
208.104
213.081
217.928
222.617
227.127
231.453
235.593
239.556
243.351
246.993
250.496
253.873
257.141
260.311
263.397
266.409
269.357
272.251
275.097
277.899
280.659
283.376
286.046
288.665
291.229
293.733
296.177
298.561
300.888
303.162
305.384
307.557
309.687
311.776
313.826
315.84
317.821
319.778
321.756
165.418
169.263
173.353
177.669
182.187
186.88
191.712
196.639
201.609
206.572
211.475
216.278
220.944
225.453
229.789
233.951
237.939
241.762
245.431
248.957
252.355
255.636
258.815
261.904
264.914
267.855
270.736
273.565
276.349
279.093
281.797
284.461
287.082
289.657
292.179
294.645
297.053
299.404
301.699
303.939
306.129
308.271
310.368
312.424
314.442
316.424
318.371
320.288
322.175
324.037
325.879
327.743
181.953
186.484
191.155
195.929
200.761
205.604
210.41
215.137
219.75
224.224
228.542
232.697
236.687
240.516
244.193
247.728
251.133
254.419
257.599
260.685
263.687
266.616
269.481
272.291
275.052
277.771
280.452
283.097
285.705
288.274
290.799
293.276
295.701
298.07
300.384
302.642
304.847
307.002
309.11
311.173
313.196
315.179
317.127
319.041
320.923
322.777
324.603
326.404
328.18
329.936
331.676
333.438
200.509
205.22
209.91
214.539
219.072
223.483
227.753
231.873
235.838
239.65
243.315
246.841
250.237
253.515
256.686
259.76
262.747
265.658
268.503
271.289
274.023
276.713
279.364
281.98
284.562
287.111
289.623
292.096
294.523
296.903
299.229
301.502
303.722
305.889
308.007
310.078
312.105
314.091
316.039
317.951
319.83
321.677
323.495
325.286
327.051
328.793
330.512
332.21
333.888
335.549
337.196
338.864
223.259
227.456
231.514
235.429
239.2
242.83
246.327
249.697
252.952
256.099
259.15
262.114
265
267.817
270.573
273.276
275.932
278.548
281.128
283.676
286.193
288.679
291.132
293.549
295.924
298.253
300.534
302.763
304.94
307.067
309.145
311.177
313.165
315.113
317.023
318.898
320.739
322.55
324.331
326.085
327.814
329.52
331.203
332.865
334.508
336.131
337.737
339.325
340.898
342.46
344.041
239.194
242.768
246.214
249.54
252.754
255.864
258.879
261.807
264.658
267.44
270.159
272.825
275.442
278.018
280.557
283.064
285.541
287.99
290.411
292.802
295.159
297.478
299.755
301.986
304.168
306.3
308.383
310.418
312.408
314.356
316.264
318.134
319.969
321.772
323.543
325.286
327.003
328.694
330.362
332.008
333.633
335.239
336.826
338.395
339.948
341.484
343.004
344.51
346.001
347.484
348.984
252.946
256.002
258.966
261.847
264.652
267.388
270.063
272.683
275.256
277.786
280.279
282.739
285.17
287.575
289.954
292.308
294.634
296.929
299.189
301.41
303.587
305.718
307.802
309.839
311.829
313.775
315.679
317.544
319.373
321.167
322.928
324.66
326.363
328.04
329.692
331.321
332.928
334.515
336.083
337.632
339.165
340.68
342.18
343.664
345.134
346.589
348.03
349.458
350.873
352.28
353.703
267.678
270.299
272.866
275.386
277.864
280.305
282.713
285.093
287.446
289.777
292.084
294.369
296.628
298.859
301.057
303.218
305.339
307.417
309.449
311.436
313.378
315.278
317.136
318.956
320.741
322.491
324.21
325.9
327.561
329.197
330.808
332.397
333.964
335.512
337.04
338.551
340.045
341.523
342.985
344.433
345.866
347.285
348.691
350.083
351.462
352.829
354.183
355.525
356.86
358.21
278.263
280.646
282.996
285.319
287.616
289.892
292.146
294.38
296.594
298.784
300.948
303.082
305.182
307.244
309.264
311.242
313.176
315.068
316.918
318.728
320.501
322.24
323.945
325.619
327.265
328.883
330.476
332.045
333.592
335.118
336.625
338.113
339.584
341.038
342.477
343.901
345.31
346.706
348.088
349.457
350.813
352.157
353.488
354.807
356.115
357.41
358.694
359.967
361.234
362.513
288.094
290.309
292.504
294.682
296.841
298.982
301.101
303.197
305.264
307.3
309.3
311.261
313.181
315.061
316.899
318.696
320.457
322.18
323.87
325.527
327.156
328.755
330.329
331.877
333.403
334.907
336.39
337.855
339.301
340.731
342.144
343.543
344.927
346.297
347.654
348.998
350.329
351.649
352.956
354.251
355.535
356.808
358.069
359.319
360.557
361.785
363.002
364.208
365.408
366.62
297.382
299.466
301.532
303.58
305.605
307.604
309.572
311.508
313.407
315.267
317.089
318.871
320.614
322.321
323.994
325.633
327.241
328.821
330.373
331.899
333.402
334.882
336.342
337.781
339.202
340.606
341.993
343.365
344.722
346.065
347.395
348.712
350.016
351.309
352.59
353.86
355.118
356.366
357.602
358.828
360.043
361.248
362.442
363.626
364.799
365.961
367.113
368.255
369.391
370.537
306.217
308.17
310.099
311.999
313.867
315.702
317.5
319.261
320.984
322.671
324.323
325.942
327.528
329.085
330.615
332.117
333.596
335.051
336.484
337.897
339.291
340.668
342.027
343.371
344.699
346.014
347.315
348.603
349.88
351.144
352.397
353.639
354.87
356.09
357.3
358.5
359.689
360.869
362.039
363.198
364.348
365.487
366.617
367.737
368.846
369.946
371.035
372.115
373.189
374.272
314.578
316.377
318.145
319.878
321.576
323.239
324.867
326.461
328.024
329.556
331.06
332.537
333.989
335.418
336.824
338.209
339.574
340.922
342.251
343.565
344.864
346.149
347.42
348.678
349.924
351.158
352.381
353.593
354.794
355.986
357.167
358.338
359.5
360.653
361.796
362.929
364.053
365.168
366.274
367.37
368.457
369.534
370.601
371.659
372.708
373.746
374.775
375.795
376.809
377.83
322.401
324.034
325.634
327.201
328.736
330.241
331.717
333.165
334.589
335.988
337.364
338.72
340.056
341.372
342.672
343.954
345.221
346.474
347.713
348.939
350.153
351.355
352.547
353.727
354.897
356.058
357.208
358.35
359.482
360.605
361.719
362.824
363.92
365.008
366.087
367.158
368.219
369.272
370.316
371.351
372.377
373.394
374.402
375.4
376.389
377.368
378.339
379.3
380.255
381.216
331.145
332.59
334.008
335.4
336.768
338.113
339.437
340.74
342.025
343.291
344.541
345.775
346.995
348.2
349.393
350.573
351.742
352.899
354.046
355.183
356.311
357.429
358.538
359.638
360.73
361.813
362.888
363.954
365.013
366.063
367.106
368.14
369.166
370.184
371.194
372.195
373.188
374.173
375.149
376.116
377.074
378.024
378.965
379.896
380.818
381.731
382.635
383.533
384.437
337.763
339.074
340.364
341.633
342.883
344.115
345.33
346.53
347.714
348.884
350.042
351.187
352.32
353.443
354.555
355.657
356.75
357.833
358.908
359.975
361.033
362.083
363.126
364.16
365.187
366.207
367.219
368.224
369.221
370.21
371.192
372.167
373.134
374.093
375.044
375.988
376.923
377.85
378.769
379.68
380.581
381.475
382.359
383.234
384.101
384.958
385.807
386.649
387.496
343.952
345.147
346.326
347.488
348.636
349.77
350.89
351.999
353.095
354.181
355.256
356.322
357.378
358.426
359.465
360.496
361.519
362.534
363.542
364.543
365.536
366.523
367.503
368.475
369.441
370.401
371.353
372.298
373.237
374.168
375.092
376.009
376.919
377.821
378.716
379.604
380.483
381.355
382.218
383.074
383.92
384.759
385.589
386.41
387.222
388.025
388.819
389.608
390.399
350.859
351.942
353.011
354.069
355.117
356.154
357.181
358.2
359.209
360.211
361.204
362.19
363.169
364.141
365.106
366.064
367.016
367.961
368.9
369.833
370.759
371.679
372.593
373.501
374.403
375.298
376.186
377.068
377.943
378.812
379.674
380.528
381.376
382.216
383.049
383.874
384.692
385.502
386.303
387.097
387.882
388.659
389.427
390.186
390.936
391.678
392.414
393.152
356.253
357.25
358.238
359.217
360.187
361.149
362.104
363.051
363.992
364.926
365.853
366.774
367.689
368.598
369.502
370.399
371.291
372.177
373.058
373.933
374.802
375.665
376.523
377.375
378.221
379.061
379.894
380.722
381.543
382.358
383.166
383.967
384.762
385.549
386.329
387.102
387.867
388.625
389.374
390.116
390.849
391.574
392.29
392.998
393.697
394.387
395.072
395.757
362.283
363.197
364.104
365.005
365.899
366.788
367.67
368.547
369.418
370.283
371.144
371.999
372.85
373.695
374.535
375.37
376.2
377.025
377.844
378.659
379.468
380.271
381.069
381.862
382.649
383.43
384.205
384.974
385.736
386.492
387.242
387.985
388.721
389.45
390.171
390.885
391.592
392.291
392.982
393.665
394.339
395.005
395.663
396.311
396.952
397.586
398.221
367.064
367.912
368.754
369.59
370.422
371.249
372.07
372.888
373.7
374.508
375.311
376.11
376.905
377.695
378.48
379.261
380.037
380.809
381.575
382.337
383.094
383.845
384.592
385.333
386.068
386.798
387.522
388.24
388.953
389.658
390.358
391.05
391.736
392.415
393.087
393.752
394.409
395.058
395.7
396.334
396.959
397.576
398.185
398.785
399.376
399.962
400.546
372.399
373.181
373.958
374.731
375.5
376.266
377.027
377.784
378.537
379.287
380.032
380.773
381.511
382.244
382.972
383.697
384.417
385.133
385.844
386.55
387.251
387.948
388.639
389.325
390.005
390.68
391.349
392.012
392.669
393.319
393.963
394.601
395.231
395.855
396.471
397.08
397.681
398.275
398.861
399.438
400.008
400.569
401.121
401.665
402.202
402.739
376.674
377.399
378.121
378.84
379.555
380.266
380.974
381.679
382.38
383.078
383.772
384.462
385.149
385.832
386.511
387.186
387.856
388.523
389.185
389.842
390.495
391.143
391.786
392.423
393.056
393.682
394.304
394.919
395.528
396.131
396.728
397.318
397.902
398.478
399.048
399.61
400.164
400.711
401.25
401.781
402.304
402.819
403.325
403.822
404.313
404.803
380.749
381.421
382.09
382.757
383.42
384.081
384.739
385.393
386.045
386.693
387.338
387.979
388.617
389.252
389.883
390.51
391.132
391.751
392.366
392.976
393.581
394.182
394.778
395.369
395.955
396.535
397.11
397.679
398.242
398.799
399.35
399.894
400.432
400.962
401.486
402.002
402.512
403.013
403.507
403.992
404.47
404.939
405.4
405.852
406.298
406.741
384.633
385.255
385.875
386.492
387.106
387.718
388.327
388.934
389.538
390.138
390.736
391.33
391.921
392.509
393.093
393.674
394.251
394.823
395.392
395.956
396.516
397.071
397.622
398.167
398.708
399.243
399.772
400.296
400.815
401.327
401.833
402.332
402.825
403.311
403.791
404.263
404.727
405.184
405.634
406.075
406.509
406.934
407.35
407.759
408.16
408.559
388.336
388.91
389.482
390.052
390.619
391.185
391.747
392.308
392.865
393.42
393.972
394.521
395.067
395.609
396.149
396.684
397.216
397.744
398.268
398.788
399.303
399.814
400.321
400.822
401.319
401.81
402.296
402.776
403.25
403.719
404.181
404.637
405.087
405.53
405.966
406.394
406.816
407.23
407.636
408.035
408.425
408.807
409.181
409.547
409.905
410.26
391.865
392.393
392.919
393.444
393.966
394.487
395.005
395.52
396.033
396.544
397.052
397.557
398.059
398.558
399.053
399.545
400.034
400.519
400.999
401.476
401.948
402.416
402.88
403.339
403.792
404.241
404.684
405.122
405.554
405.98
406.4
406.813
407.221
407.621
408.015
408.402
408.782
409.154
409.518
409.875
410.223
410.563
410.895
411.219
411.536
411.848
395.227
395.711
396.193
396.674
397.153
397.63
398.105
398.577
399.048
399.516
399.981
400.443
400.903
401.359
401.812
402.262
402.709
403.151
403.59
404.025
404.456
404.882
405.304
405.721
406.133
406.54
406.941
407.338
407.729
408.113
408.492
408.865
409.231
409.591
409.944
410.289
410.628
410.959
411.283
411.599
411.907
412.206
412.497
412.78
413.056
413.327
398.869
399.31
399.748
400.185
400.62
401.053
401.484
401.913
402.339
402.763
403.184
403.603
404.018
404.431
404.839
405.245
405.647
406.045
406.439
406.829
407.215
407.596
407.973
408.344
408.711
409.073
409.429
409.779
410.124
410.463
410.796
411.122
411.442
411.755
412.061
412.359
412.651
412.935
413.211
413.479
413.739
413.991
414.234
414.47
414.701
401.874
402.273
402.671
403.068
403.462
403.855
404.246
404.634
405.021
405.404
405.786
406.164
406.54
406.912
407.281
407.647
408.01
408.368
408.723
409.073
409.42
409.761
410.099
410.431
410.759
411.081
411.398
411.71
412.016
412.316
412.609
412.897
413.178
413.452
413.719
413.98
414.233
414.478
414.715
414.945
415.166
415.379
415.584
415.781
415.973
404.73
405.09
405.449
405.806
406.161
406.515
406.867
407.216
407.564
407.909
408.251
408.591
408.928
409.262
409.592
409.92
410.244
410.564
410.88
411.192
411.5
411.804
412.103
412.398
412.687
412.972
413.251
413.524
413.792
414.054
414.31
414.56
414.803
415.04
415.27
415.492
415.708
415.915
416.115
416.307
416.491
416.667
416.834
416.993
417.147
407.764
408.085
408.404
408.722
409.037
409.351
409.663
409.973
410.28
410.585
410.887
411.187
411.483
411.776
412.066
412.353
412.636
412.915
413.19
413.461
413.728
413.99
414.247
414.5
414.747
414.99
415.226
415.458
415.683
415.902
416.115
416.322
416.522
416.715
416.901
417.08
417.251
417.415
417.57
417.718
417.856
417.987
418.109
418.226
410.301
410.584
410.867
411.148
411.427
411.704
411.979
412.253
412.523
412.792
413.058
413.321
413.581
413.838
414.092
414.342
414.589
414.832
415.071
415.306
415.536
415.763
415.984
416.201
416.412
416.619
416.82
417.016
417.205
417.389
417.566
417.737
417.902
418.059
418.21
418.353
418.489
418.617
418.737
418.849
418.952
419.047
419.133
419.214
412.704
412.952
413.199
413.444
413.688
413.929
414.169
414.407
414.642
414.875
415.106
415.334
415.559
415.781
415.999
416.214
416.426
416.634
416.838
417.038
417.234
417.425
417.612
417.794
417.971
418.142
418.309
418.47
418.625
418.774
418.916
419.053
419.183
419.306
419.422
419.531
419.632
419.725
419.811
419.888
419.956
420.016
420.068
420.113
414.978
415.191
415.404
415.614
415.824
416.031
416.236
416.44
416.641
416.84
417.036
417.23
417.421
417.608
417.793
417.974
418.152
418.326
418.496
418.662
418.824
418.981
419.134
419.282
419.425
419.563
419.696
419.823
419.945
420.06
420.169
420.272
420.369
420.458
420.54
420.616
420.683
420.743
420.795
420.839
420.873
420.899
420.918
420.928
417.307
417.486
417.663
417.839
418.013
418.185
418.355
418.523
418.689
418.852
419.013
419.17
419.325
419.477
419.625
419.769
419.91
420.048
420.181
420.31
420.435
420.555
420.67
420.78
420.886
420.986
421.08
421.169
421.252
421.328
421.399
421.462
421.519
421.569
421.612
421.647
421.674
421.693
421.704
421.706
421.699
421.684
421.662
419.302
419.449
419.594
419.738
419.88
420.02
420.158
420.293
420.427
420.558
420.686
420.812
420.935
421.054
421.17
421.283
421.392
421.497
421.599
421.696
421.789
421.877
421.96
422.039
422.113
422.181
422.244
422.301
422.352
422.397
422.436
422.468
422.493
422.511
422.522
422.525
422.52
422.508
422.487
422.457
422.418
422.371
422.316
421.182
421.297
421.411
421.524
421.634
421.743
421.85
421.954
422.057
422.157
422.254
422.349
422.44
422.529
422.614
422.695
422.773
422.848
422.918
422.985
423.047
423.104
423.157
423.205
423.248
423.286
423.317
423.343
423.364
423.378
423.387
423.387
423.381
423.369
423.35
423.322
423.286
423.243
423.191
423.13
423.06
422.982
422.895
423.035
423.118
423.2
423.281
423.359
423.436
423.51
423.583
423.652
423.72
423.784
423.846
423.904
423.959
424.011
424.059
424.103
424.144
424.181
424.213
424.24
424.263
424.281
424.294
424.302
424.304
424.3
424.29
424.275
424.254
424.225
424.189
424.147
424.097
424.04
423.974
423.901
423.819
423.728
423.627
423.518
423.4
424.665
424.719
424.772
424.823
424.872
424.92
424.965
425.008
425.049
425.087
425.122
425.155
425.184
425.21
425.232
425.251
425.267
425.279
425.286
425.289
425.287
425.281
425.27
425.255
425.234
425.207
425.174
425.136
425.092
425.041
424.983
424.919
424.847
424.768
424.682
424.587
424.484
424.373
424.252
424.123
423.984
423.836
426.191
426.217
426.241
426.264
426.285
426.304
426.321
426.336
426.348
426.359
426.366
426.37
426.371
426.369
426.363
426.354
426.341
426.325
426.305
426.28
426.25
426.216
426.177