/*--------------------------------*- C++ -*----------------------------------*\
| =========                 |                                                 |
| \\      /  F ield         | OpenFOAM: The Open Source CFD Toolbox           |
|  \\    /   O peration     | Version:  v1706                                 |
|   \\  /    A nd           | Web:      www.OpenFOAM.com                      |
|    \\/     M anipulation  |                                                 |
\*---------------------------------------------------------------------------*/
FoamFile
{
    version     2.0;
    format      ascii;
    class       volVectorField;
    location    "1.1e-05";
    object      U;
}
// * * * * * * * * * * * * * * * * * * * * * * * * * * * * * * * * * * * * * //

dimensions      [0 1 -1 0 0 0 0];


internalField   nonuniform List<vector> 
30038
(
(2764.5 -3.99764e-11 1.2422e-14)
(2764.5 -3.49081e-11 1.72132e-15)
(2764.5 -3.55247e-11 6.58132e-15)
(2764.5 -3.82331e-11 3.06194e-15)
(2764.5 -4.09976e-11 4.4942e-15)
(2764.5 -3.77515e-11 2.9604e-15)
(2764.5 -3.90808e-11 7.58318e-15)
(2764.5 -4.13954e-11 9.92001e-15)
(2764.5 -4.26661e-11 7.05941e-15)
(2764.5 -4.23403e-11 4.96386e-16)
(2764.5 -3.59304e-11 1.08404e-14)
(2764.5 -3.75629e-11 6.39322e-15)
(2764.5 -3.90406e-11 7.4147e-15)
(2764.5 -4.03191e-11 2.89507e-15)
(2764.5 -4.338e-11 5.59821e-15)
(2764.5 -4.57312e-11 9.90115e-15)
(2764.5 -5.011e-11 6.44165e-15)
(2764.5 -4.9719e-11 2.7558e-15)
(2764.5 -4.50146e-11 1.84163e-15)
(2764.5 -4.80576e-11 7.49076e-15)
(2764.5 -5.32868e-11 8.59899e-15)
(2764.5 -5.6046e-11 8.9517e-15)
(2764.5 -5.99416e-11 -2.44654e-15)
(2764.5 -6.28496e-11 7.39303e-15)
(2764.5 -6.1022e-11 8.49376e-15)
(2764.5 -5.87999e-11 2.19189e-15)
(2764.5 -5.69472e-11 4.48293e-16)
(2764.5 -5.84752e-11 5.67589e-15)
(2764.5 -5.82978e-11 1.00078e-14)
(2764.5 -5.89097e-11 1.01359e-14)
(2764.5 -5.88973e-11 4.83942e-15)
(2764.5 -6.27709e-11 1.05094e-14)
(2764.5 -6.51351e-11 7.1774e-15)
(2764.5 -6.99475e-11 5.71792e-15)
(2764.5 -7.19709e-11 9.11708e-15)
(2764.5 -7.66379e-11 8.09348e-15)
(2764.5 -7.61292e-11 1.87321e-15)
(2764.5 -7.98093e-11 4.67074e-15)
(2764.5 -1.19618e-10 2.00246e-14)
(2764.5 -1.20276e-10 1.77701e-14)
(2764.5 -1.17916e-10 2.38042e-14)
(2764.5 -1.12329e-10 1.50595e-14)
(2764.5 -1.21093e-10 2.49165e-14)
(2764.5 -1.21783e-10 2.17362e-14)
(2764.5 -1.20939e-10 2.24534e-14)
(2764.5 -1.1928e-10 2.51062e-14)
(2764.5 -1.21466e-10 2.02402e-14)
(2764.5 -1.30484e-10 1.91444e-14)
(2764.5 -1.35026e-10 2.45745e-14)
(2764.5 -1.29652e-10 1.43602e-14)
(2764.5 -1.31015e-10 2.19136e-14)
(2764.5 -1.26795e-10 1.93832e-14)
(2764.5 -1.28491e-10 1.62541e-14)
(2764.5 -1.28321e-10 1.93613e-14)
(2764.5 -1.29988e-10 1.93139e-14)
(2764.5 -1.44111e-10 2.02191e-14)
(2764.5 -1.43371e-10 1.61407e-14)
(2764.5 -1.41188e-10 1.85647e-14)
(2764.5 -1.39911e-10 1.69559e-14)
(2764.5 -1.42469e-10 1.85575e-14)
(2764.5 -1.421e-10 2.01385e-14)
(2764.5 -1.51792e-10 2.07595e-14)
(2764.5 -1.58183e-10 1.84335e-14)
(2764.5 -1.65773e-10 1.80367e-14)
(2764.5 -1.65789e-10 1.85677e-14)
(2764.5 -1.68484e-10 1.83851e-14)
(2764.5 -1.70239e-10 1.83541e-14)
(2764.5 -1.74305e-10 2.49367e-14)
(2764.5 -1.73553e-10 1.08984e-14)
(2764.5 -1.76583e-10 2.24341e-14)
(2764.5 -1.81418e-10 2.85776e-14)
(2764.5 -1.82769e-10 2.2045e-14)
(2764.5 -1.89099e-10 2.50258e-14)
(2764.5 -1.90481e-10 1.95845e-14)
(2764.5 -2.0471e-10 1.96252e-14)
(2764.5 -2.11205e-10 2.1105e-14)
(2764.5 -1.84883e-10 3.18392e-14)
(2764.5 -1.90407e-10 3.52334e-14)
(2764.5 -1.92916e-10 3.79909e-14)
(2764.5 -1.89869e-10 2.76889e-14)
(2764.5 -1.93774e-10 3.171e-14)
(2764.5 -1.99047e-10 3.15312e-14)
(2764.5 -1.99083e-10 3.63297e-14)
(2764.5 -1.99216e-10 3.002e-14)
(2764.5 -1.99633e-10 3.0974e-14)
(2764.5 -2.04724e-10 2.87349e-14)
(2764.5 -2.14939e-10 2.69268e-14)
(2764.5 -2.17733e-10 3.04e-14)
(2764.5 -2.19982e-10 3.2015e-14)
(2764.5 -2.17337e-10 3.35278e-14)
(2764.5 -2.15346e-10 2.86941e-14)
(2764.5 -2.14712e-10 3.39872e-14)
(2764.5 -2.16476e-10 3.44499e-14)
(2764.5 -2.27427e-10 3.52411e-14)
(2764.5 -2.36261e-10 3.32315e-14)
(2764.5 -2.42984e-10 3.14505e-14)
(2764.5 -2.43482e-10 2.73611e-14)
(2764.5 -2.44848e-10 3.25544e-14)
(2764.5 -2.446e-10 2.91685e-14)
(2764.5 -2.4759e-10 2.77838e-14)
(2764.5 -2.49933e-10 3.3981e-14)
(2764.5 -2.57342e-10 3.49983e-14)
(2764.5 -2.66174e-10 3.02397e-14)
(2764.5 -2.72402e-10 2.6591e-14)
(2764.5 -2.76922e-10 2.80678e-14)
(2764.5 -2.80598e-10 3.36002e-14)
(2764.5 -2.83076e-10 3.04021e-14)
(2764.5 -2.82462e-10 3.44707e-14)
(2764.5 -2.86534e-10 3.30342e-14)
(2764.5 -2.86075e-10 3.22086e-14)
(2764.5 -2.92528e-10 3.35015e-14)
(2764.5 -2.86823e-10 3.75529e-14)
(2764.5 -3.01448e-10 3.1265e-14)
(2764.5 -3.14031e-10 3.23327e-14)
(2764.5 -2.52288e-10 4.44198e-14)
(2764.5 -2.56804e-10 4.48595e-14)
(2764.5 -2.61138e-10 4.61605e-14)
(2764.5 -2.64262e-10 3.89724e-14)
(2764.5 -2.65967e-10 4.78298e-14)
(2764.5 -2.73389e-10 4.20003e-14)
(2764.5 -2.80255e-10 4.06618e-14)
(2764.5 -2.82242e-10 3.947e-14)
(2764.5 -2.8139e-10 4.59579e-14)
(2764.5 -2.81147e-10 3.81616e-14)
(2764.5 -2.88264e-10 4.58177e-14)
(2764.5 -2.91503e-10 4.47194e-14)
(2764.5 -2.96939e-10 4.78922e-14)
(2764.5 -3.02312e-10 4.09391e-14)
(2764.5 -3.05152e-10 3.74275e-14)
(2764.5 -3.0157e-10 4.26464e-14)
(2764.5 -2.99517e-10 3.65618e-14)
(2764.5 -3.0598e-10 4.35522e-14)
(2764.5 -3.1405e-10 4.6531e-14)
(2764.5 -3.23395e-10 4.33735e-14)
(2764.5 -3.30209e-10 4.32885e-14)
(2764.5 -3.34038e-10 4.11143e-14)
(2764.5 -3.35643e-10 4.26313e-14)
(2764.5 -3.39997e-10 4.80533e-14)
(2764.5 -3.44649e-10 4.47419e-14)
(2764.5 -3.46715e-10 4.53878e-14)
(2764.5 -3.52434e-10 4.41372e-14)
(2764.5 -3.60465e-10 4.25853e-14)
(2764.5 -3.69591e-10 4.26683e-14)
(2764.5 -3.78628e-10 4.88293e-14)
(2764.5 -3.87997e-10 4.55132e-14)
(2764.5 -3.92228e-10 4.82209e-14)
(2764.5 -3.9952e-10 4.59097e-14)
(2764.5 -4.0297e-10 4.37279e-14)
(2764.5 -4.10863e-10 4.65442e-14)
(2764.5 -4.08308e-10 5.00947e-14)
(2764.5 -4.10944e-10 4.82942e-14)
(2764.5 -4.21125e-10 4.90182e-14)
(2764.5 -3.11507e-10 5.48185e-14)
(2764.5 -3.17038e-10 5.72801e-14)
(2764.5 -3.20908e-10 5.91704e-14)
(2764.5 -3.26759e-10 5.6212e-14)
(2764.5 -3.30134e-10 5.49986e-14)
(2764.5 -3.36167e-10 5.21266e-14)
(2764.5 -3.46146e-10 5.80037e-14)
(2764.5 -3.53034e-10 5.96242e-14)
(2764.5 -3.54498e-10 6.22886e-14)
(2764.5 -3.49329e-10 5.90168e-14)
(2764.5 -3.55333e-10 5.7427e-14)
(2764.5 -3.60095e-10 5.49098e-14)
(2764.5 -3.67123e-10 5.45537e-14)
(2764.5 -3.77276e-10 5.02249e-14)
(2764.5 -3.84595e-10 5.13626e-14)
(2764.5 -3.87712e-10 5.68701e-14)
(2764.5 -3.8683e-10 6.27432e-14)
(2764.5 -3.85722e-10 6.101e-14)
(2764.5 -3.89699e-10 5.26207e-14)
(2764.5 -3.95437e-10 5.90477e-14)
(2764.5 -4.04471e-10 5.69114e-14)
(2764.5 -4.12861e-10 4.82947e-14)
(2764.5 -4.19161e-10 5.88644e-14)
(2764.5 -4.27181e-10 5.74048e-14)
(2764.5 -4.34778e-10 5.95611e-14)
(2764.5 -4.39679e-10 6.13491e-14)
(2764.5 -4.42902e-10 6.25639e-14)
(2764.5 -4.46932e-10 5.43273e-14)
(2764.5 -4.53491e-10 5.02933e-14)
(2764.5 -4.61406e-10 4.95888e-14)
(2764.5 -4.7367e-10 5.34478e-14)
(2764.5 -4.81571e-10 6.34197e-14)
(2764.5 -4.89035e-10 5.9702e-14)
(2764.5 -4.96138e-10 5.77675e-14)
(2764.5 -5.0865e-10 5.75759e-14)
(2764.5 -5.17171e-10 5.86912e-14)
(2764.5 -5.22133e-10 6.20398e-14)
(2764.5 -5.30044e-10 6.23502e-14)
(2764.5 -3.65786e-10 7.06023e-14)
(2764.5 -3.72113e-10 7.25222e-14)
(2764.5 -3.81935e-10 7.00123e-14)
(2764.5 -3.89077e-10 6.14574e-14)
(2764.5 -3.93792e-10 6.1899e-14)
(2764.5 -3.98836e-10 6.61776e-14)
(2764.5 -4.06973e-10 6.10246e-14)
(2764.5 -4.12608e-10 7.16281e-14)
(2764.5 -4.26104e-10 7.73796e-14)
(2764.5 -4.23352e-10 7.08836e-14)
(2764.5 -4.27813e-10 7.13727e-14)
(2764.5 -4.32587e-10 7.03727e-14)
(2764.5 -4.3637e-10 6.83506e-14)
(2764.5 -4.46491e-10 6.87665e-14)
(2764.5 -4.53993e-10 6.93322e-14)
(2764.5 -4.59781e-10 6.82768e-14)
(2764.5 -4.62993e-10 7.33916e-14)
(2764.5 -4.65384e-10 7.21469e-14)
(2764.5 -4.65768e-10 6.4298e-14)
(2764.5 -4.66476e-10 6.83427e-14)
(2764.5 -4.70826e-10 7.0545e-14)
(2764.5 -4.81563e-10 7.33175e-14)
(2764.5 -4.90249e-10 7.41373e-14)
(2764.5 -5.00092e-10 6.7642e-14)
(2764.5 -5.09814e-10 6.57337e-14)
(2764.5 -5.1747e-10 6.68452e-14)
(2764.5 -5.25868e-10 7.6024e-14)
(2764.5 -5.31558e-10 6.83886e-14)
(2764.5 -5.38173e-10 7.30211e-14)
(2764.5 -5.45017e-10 7.53375e-14)
(2764.5 -5.5717e-10 6.91732e-14)
(2764.5 -5.67956e-10 6.96977e-14)
(2764.5 -5.78406e-10 6.87237e-14)
(2764.5 -5.89143e-10 7.37626e-14)
(2764.5 -6.03561e-10 7.60948e-14)
(2764.5 -6.13286e-10 6.99276e-14)
(2764.5 -6.23054e-10 6.87573e-14)
(2764.5 -6.35063e-10 7.21724e-14)
(2764.5 -4.22707e-10 7.94956e-14)
(2764.5 -4.26576e-10 7.5489e-14)
(2764.5 -4.35436e-10 8.03161e-14)
(2764.5 -4.45092e-10 8.39865e-14)
(2764.5 -4.52043e-10 8.12911e-14)
(2764.5 -4.58629e-10 7.82376e-14)
(2764.5 -4.67637e-10 7.98139e-14)
(2764.5 -4.71668e-10 8.76704e-14)
(2764.5 -4.83507e-10 7.67391e-14)
(2764.5 -4.903e-10 8.00211e-14)
(2764.5 -4.93101e-10 8.50492e-14)
(2764.5 -4.98461e-10 8.21636e-14)
(2764.5 -5.0307e-10 8.10262e-14)
(2764.5 -5.07898e-10 7.95644e-14)
(2764.5 -5.12909e-10 7.77935e-14)
(2764.5 -5.20784e-10 8.18897e-14)
(2764.5 -5.27052e-10 7.92642e-14)
(2764.5 -5.3393e-10 8.51e-14)
(2764.5 -5.40883e-10 8.0965e-14)
(2764.5 -5.43636e-10 8.26647e-14)
(2764.5 -5.42989e-10 8.26724e-14)
(2764.5 -5.4807e-10 8.09407e-14)
(2764.5 -5.55012e-10 7.99168e-14)
(2764.5 -5.63825e-10 8.34669e-14)
(2764.5 -5.77593e-10 8.18896e-14)
(2764.5 -5.88281e-10 8.20323e-14)
(2764.5 -5.99404e-10 8.93144e-14)
(2764.5 -6.10731e-10 8.03763e-14)
(2764.5 -6.18485e-10 7.74096e-14)
(2764.5 -6.2592e-10 8.06132e-14)
(2764.5 -6.39023e-10 8.18268e-14)
(2764.5 -6.51863e-10 7.9929e-14)
(2764.5 -6.61012e-10 8.21832e-14)
(2764.5 -6.69747e-10 8.57044e-14)
(2764.5 -6.84035e-10 9.12065e-14)
(2764.5 -6.97827e-10 8.70716e-14)
(2764.5 -7.13463e-10 8.4149e-14)
(2764.5 -7.28524e-10 8.70356e-14)
(2764.5 -4.80351e-10 9.59502e-14)
(2764.5 -4.81335e-10 9.40655e-14)
(2764.5 -4.87528e-10 9.34665e-14)
(2764.5 -4.95247e-10 9.66804e-14)
(2764.5 -5.0195e-10 9.78652e-14)
(2764.5 -5.10315e-10 9.0659e-14)
(2764.5 -5.22697e-10 9.1564e-14)
(2764.5 -5.33363e-10 9.44018e-14)
(2764.5 -5.41029e-10 9.56259e-14)
(2764.5 -5.48593e-10 9.59924e-14)
(2764.5 -5.54211e-10 9.06598e-14)
(2764.5 -5.60224e-10 9.45894e-14)
(2764.5 -5.69708e-10 9.01232e-14)
(2764.5 -5.75972e-10 9.43422e-14)
(2764.5 -5.78506e-10 9.20942e-14)
(2764.5 -5.83769e-10 9.62342e-14)
(2764.5 -5.90913e-10 9.85541e-14)
(2764.5 -5.99052e-10 9.71765e-14)
(2764.5 -6.08766e-10 9.30071e-14)
(2764.5 -6.19052e-10 9.6925e-14)
(2764.5 -6.25935e-10 8.95357e-14)
(2764.5 -6.28483e-10 9.67384e-14)
(2764.5 -6.35086e-10 9.21843e-14)
(2764.5 -6.41032e-10 9.18601e-14)
(2764.5 -6.50893e-10 8.83108e-14)
(2764.5 -6.63393e-10 9.53703e-14)
(2764.5 -6.75436e-10 9.41477e-14)
(2764.5 -6.85969e-10 9.20679e-14)
(2764.5 -6.95162e-10 9.72951e-14)
(2764.5 -6.99686e-10 9.77135e-14)
(2764.5 -7.08224e-10 1.02878e-13)
(2764.5 -7.22446e-10 9.99074e-14)
(2764.5 -7.33369e-10 1.01605e-13)
(2764.5 -7.41833e-10 9.76759e-14)
(2764.5 -7.54998e-10 9.6917e-14)
(2764.5 -7.6543e-10 1.05612e-13)
(2764.5 -7.82494e-10 9.97679e-14)
(2764.5 -8.021e-10 9.43101e-14)
(2764.5 -5.35235e-10 1.08017e-13)
(2764.5 -5.38016e-10 1.06948e-13)
(2764.5 -5.39754e-10 1.1274e-13)
(2764.5 -5.42122e-10 1.10064e-13)
(2764.5 -5.50007e-10 1.08754e-13)
(2764.5 -5.57721e-10 1.07089e-13)
(2764.5 -5.64e-10 1.13535e-13)
(2764.5 -5.74954e-10 1.0959e-13)
(2764.5 -5.87062e-10 1.09364e-13)
(2764.5 -5.97679e-10 1.08216e-13)
(2764.5 -6.03089e-10 9.95062e-14)
(2764.5 -6.0745e-10 1.09642e-13)
(2764.5 -6.17041e-10 9.96681e-14)
(2764.5 -6.30797e-10 1.05933e-13)
(2764.5 -6.43968e-10 1.09539e-13)
(2764.5 -6.50797e-10 1.09407e-13)
(2764.5 -6.54757e-10 1.11345e-13)
(2764.5 -6.61281e-10 1.05094e-13)
(2764.5 -6.72201e-10 1.04454e-13)
(2764.5 -6.81235e-10 1.05094e-13)
(2764.5 -6.91988e-10 1.05757e-13)
(2764.5 -6.99646e-10 1.05924e-13)
(2764.5 -7.06746e-10 1.04698e-13)
(2764.5 -7.12609e-10 1.02132e-13)
(2764.5 -7.16e-10 1.05991e-13)
(2764.5 -7.23495e-10 1.07652e-13)
(2764.5 -7.32678e-10 1.10577e-13)
(2764.5 -7.43368e-10 1.064e-13)
(2764.5 -7.53546e-10 1.08093e-13)
(2764.5 -7.65424e-10 1.07241e-13)
(2764.5 -7.72599e-10 1.09824e-13)
(2764.5 -7.78035e-10 1.10309e-13)
(2764.5 -7.89652e-10 1.12617e-13)
(2764.5 -8.01517e-10 1.09299e-13)
(2764.5 -8.07692e-10 1.15644e-13)
(2764.5 -8.19004e-10 1.15847e-13)
(2764.5 -8.29334e-10 1.12308e-13)
(2764.5 -8.49157e-10 1.0982e-13)
(2764.5 -8.70321e-10 1.09546e-13)
(2764.5 -6.02503e-10 1.22582e-13)
(2764.5 -6.03239e-10 1.16907e-13)
(2764.5 -6.0604e-10 1.16875e-13)
(2764.5 -6.09753e-10 1.23481e-13)
(2764.5 -6.12923e-10 1.23182e-13)
(2764.5 -6.17259e-10 1.22986e-13)
(2764.5 -6.24542e-10 1.27016e-13)
(2764.5 -6.30611e-10 1.18867e-13)
(2764.5 -6.38657e-10 1.17435e-13)
(2764.5 -6.46297e-10 1.15324e-13)
(2764.5 -6.54736e-10 1.19772e-13)
(2764.5 -6.60662e-10 1.16905e-13)
(2764.5 -6.76381e-10 1.09808e-13)
(2764.5 -6.96308e-10 1.21626e-13)
(2764.5 -7.07769e-10 1.20256e-13)
(2764.5 -7.15964e-10 1.21291e-13)
(2764.5 -7.20916e-10 1.13686e-13)
(2764.5 -7.27681e-10 1.19959e-13)
(2764.5 -7.38361e-10 1.18359e-13)
(2764.5 -7.45406e-10 1.19965e-13)
(2764.5 -7.55973e-10 1.16626e-13)
(2764.5 -7.64749e-10 1.15625e-13)
(2764.5 -7.72846e-10 1.1545e-13)
(2764.5 -7.81168e-10 1.17962e-13)
(2764.5 -7.86123e-10 1.22766e-13)
(2764.5 -7.92033e-10 1.20063e-13)
(2764.5 -8.00148e-10 1.22391e-13)
(2764.5 -8.08796e-10 1.17776e-13)
(2764.5 -8.18653e-10 1.15746e-13)
(2764.5 -8.30342e-10 1.21385e-13)
(2764.5 -8.41161e-10 1.22726e-13)
(2764.5 -8.50318e-10 1.22925e-13)
(2764.5 -8.58689e-10 1.24252e-13)
(2764.5 -8.69074e-10 1.22973e-13)
(2764.5 -8.78315e-10 1.25469e-13)
(2764.5 -8.92393e-10 1.24316e-13)
(2764.5 -9.03963e-10 1.18579e-13)
(2764.5 -9.2249e-10 1.23891e-13)
(2764.5 -9.41861e-10 1.26048e-13)
(2764.5 -6.64633e-10 1.33931e-13)
(2764.5 -6.66957e-10 1.40004e-13)
(2764.5 -6.65017e-10 1.33888e-13)
(2764.5 -6.68822e-10 1.34876e-13)
(2764.5 -6.76204e-10 1.29041e-13)
(2764.5 -6.79204e-10 1.29195e-13)
(2764.5 -6.85307e-10 1.35302e-13)
(2764.5 -6.92187e-10 1.36581e-13)
(2764.5 -6.99681e-10 1.29439e-13)
(2764.5 -7.05368e-10 1.31096e-13)
(2764.5 -7.13473e-10 1.29101e-13)
(2764.5 -7.2189e-10 1.31492e-13)
(2764.5 -7.38112e-10 1.2913e-13)
(2764.5 -7.54513e-10 1.24037e-13)
(2764.5 -7.65724e-10 1.33479e-13)
(2764.5 -7.7291e-10 1.37728e-13)
(2764.5 -7.80016e-10 1.39975e-13)
(2764.5 -7.89022e-10 1.36964e-13)
(2764.5 -7.97579e-10 1.29356e-13)
(2764.5 -8.05118e-10 1.29856e-13)
(2764.5 -8.12404e-10 1.32736e-13)
(2764.5 -8.23918e-10 1.34633e-13)
(2764.5 -8.36641e-10 1.32282e-13)
(2764.5 -8.46989e-10 1.3238e-13)
(2764.5 -8.55303e-10 1.31579e-13)
(2764.5 -8.60857e-10 1.35914e-13)
(2764.5 -8.68729e-10 1.29548e-13)
(2764.5 -8.7791e-10 1.27352e-13)
(2764.5 -8.88477e-10 1.33737e-13)
(2764.5 -8.99132e-10 1.36555e-13)
(2764.5 -9.09442e-10 1.37637e-13)
(2764.5 -9.20682e-10 1.33227e-13)
(2764.5 -9.31958e-10 1.33683e-13)
(2764.5 -9.42954e-10 1.33455e-13)
(2764.5 -9.50678e-10 1.34293e-13)
(2764.5 -9.61955e-10 1.34551e-13)
(2764.5 -9.72229e-10 1.36083e-13)
(2764.5 -9.90771e-10 1.40007e-13)
(2764.5 -1.01423e-09 1.34568e-13)
(2764.5 -7.11064e-10 1.49231e-13)
(2764.5 -7.17124e-10 1.47384e-13)
(2764.5 -7.24228e-10 1.42793e-13)
(2764.5 -7.24459e-10 1.46821e-13)
(2764.5 -7.24673e-10 1.4645e-13)
(2764.5 -7.32636e-10 1.48378e-13)
(2764.5 -7.39656e-10 1.4701e-13)
(2764.5 -7.46656e-10 1.47741e-13)
(2764.5 -7.52725e-10 1.45123e-13)
(2764.5 -7.58991e-10 1.47752e-13)
(2764.5 -7.63911e-10 1.46279e-13)
(2764.5 -7.68177e-10 1.45747e-13)
(2764.5 -7.75024e-10 1.44669e-13)
(2764.5 -7.87744e-10 1.37487e-13)
(2764.5 -7.99622e-10 1.44926e-13)
(2764.5 -8.1342e-10 1.47811e-13)
(2764.5 -8.25724e-10 1.44719e-13)
(2764.5 -8.3675e-10 1.4463e-13)
(2764.5 -8.48424e-10 1.45203e-13)
(2764.5 -8.57117e-10 1.46126e-13)
(2764.5 -8.65213e-10 1.39867e-13)
(2764.5 -8.71578e-10 1.40875e-13)
(2764.5 -8.8208e-10 1.42174e-13)
(2764.5 -8.94996e-10 1.3985e-13)
(2764.5 -9.06318e-10 1.40702e-13)
(2764.5 -9.1721e-10 1.49869e-13)
(2764.5 -9.26013e-10 1.46151e-13)
(2764.5 -9.37857e-10 1.38194e-13)
(2764.5 -9.48134e-10 1.45235e-13)
(2764.5 -9.59248e-10 1.44682e-13)
(2764.5 -9.70497e-10 1.47775e-13)
(2764.5 -9.82937e-10 1.4423e-13)
(2764.5 -9.96585e-10 1.44258e-13)
(2764.5 -1.00706e-09 1.46774e-13)
(2764.5 -1.01901e-09 1.50229e-13)
(2764.5 -1.02674e-09 1.52012e-13)
(2764.5 -1.03638e-09 1.48306e-13)
(2764.5 -1.04092e-09 1.53396e-13)
(2764.5 -1.05677e-09 1.43122e-13)
(2764.5 -1.06019e-09 1.5987e-13)
(2764.5 -7.61094e-10 1.6192e-13)
(2764.5 -7.68818e-10 1.6334e-13)
(2764.5 -7.78144e-10 1.63721e-13)
(2764.5 -7.81988e-10 1.57755e-13)
(2764.5 -7.81531e-10 1.59003e-13)
(2764.5 -7.8408e-10 1.59106e-13)
(2764.5 -7.929e-10 1.61363e-13)
(2764.5 -8.03142e-10 1.60537e-13)
(2764.5 -8.10405e-10 1.58314e-13)
(2764.5 -8.14377e-10 1.62914e-13)
(2764.5 -8.20681e-10 1.55687e-13)
(2764.5 -8.2591e-10 1.55853e-13)
(2764.5 -8.33158e-10 1.5512e-13)
(2764.5 -8.44395e-10 1.53736e-13)
(2764.5 -8.54046e-10 1.55708e-13)
(2764.5 -8.65954e-10 1.57189e-13)
(2764.5 -8.77649e-10 1.54805e-13)
(2764.5 -8.90327e-10 1.49056e-13)
(2764.5 -9.02955e-10 1.53816e-13)
(2764.5 -9.14455e-10 1.51293e-13)
(2764.5 -9.22353e-10 1.54037e-13)
(2764.5 -9.29244e-10 1.56603e-13)
(2764.5 -9.36877e-10 1.60012e-13)
(2764.5 -9.48025e-10 1.58864e-13)
(2764.5 -9.59288e-10 1.54207e-13)
(2764.5 -9.72877e-10 1.55737e-13)
(2764.5 -9.84236e-10 1.54967e-13)
(2764.5 -9.95675e-10 1.54958e-13)
(2764.5 -1.00883e-09 1.53861e-13)
(2764.5 -1.02358e-09 1.56064e-13)
(2764.5 -1.0357e-09 1.57902e-13)
(2764.5 -1.04682e-09 1.584e-13)
(2764.5 -1.05965e-09 1.58661e-13)
(2764.5 -1.07238e-09 1.5967e-13)
(2764.5 -1.08445e-09 1.64267e-13)
(2764.5 -1.09414e-09 1.56579e-13)
(2764.5 -1.10503e-09 1.56248e-13)
(2764.5 -1.1108e-09 1.61988e-13)
(2764.5 -1.12396e-09 1.58888e-13)
(2764.5 -1.12483e-09 1.6099e-13)
(2764.5 -8.12287e-10 1.7657e-13)
(2764.5 -8.20982e-10 1.70738e-13)
(2764.5 -8.32565e-10 1.70679e-13)
(2764.5 -8.41154e-10 1.73272e-13)
(2764.5 -8.4495e-10 1.74352e-13)
(2764.5 -8.44979e-10 1.79276e-13)
(2764.5 -8.46868e-10 1.72486e-13)
(2764.5 -8.54278e-10 1.67273e-13)
(2764.5 -8.64274e-10 1.71904e-13)
(2764.5 -8.67846e-10 1.76887e-13)
(2764.5 -8.6983e-10 1.6771e-13)
(2764.5 -8.78649e-10 1.73553e-13)
(2764.5 -8.88695e-10 1.75292e-13)
(2764.5 -8.99226e-10 1.70347e-13)
(2764.5 -9.06993e-10 1.71927e-13)
(2764.5 -9.17021e-10 1.64843e-13)
(2764.5 -9.31013e-10 1.62187e-13)
(2764.5 -9.47686e-10 1.64148e-13)
(2764.5 -9.60701e-10 1.6583e-13)
(2764.5 -9.70263e-10 1.64504e-13)
(2764.5 -9.76123e-10 1.76178e-13)
(2764.5 -9.79303e-10 1.72207e-13)
(2764.5 -9.85503e-10 1.68964e-13)
(2764.5 -9.95436e-10 1.68967e-13)
(2764.5 -1.00837e-09 1.69428e-13)
(2764.5 -1.02239e-09 1.67616e-13)
(2764.5 -1.03564e-09 1.68851e-13)
(2764.5 -1.04977e-09 1.61733e-13)
(2764.5 -1.06198e-09 1.74715e-13)
(2764.5 -1.07443e-09 1.75351e-13)
(2764.5 -1.08938e-09 1.68096e-13)
(2764.5 -1.10047e-09 1.66296e-13)
(2764.5 -1.11073e-09 1.6383e-13)
(2764.5 -1.12504e-09 1.67944e-13)
(2764.5 -1.14193e-09 1.72791e-13)
(2764.5 -1.15659e-09 1.73375e-13)
(2764.5 -1.17144e-09 1.70536e-13)
(2764.5 -1.17708e-09 1.70015e-13)
(2764.5 -1.18955e-09 1.74049e-13)
(2764.5 -1.19267e-09 1.85784e-13)
(2764.5 -8.56639e-10 1.89567e-13)
(2764.5 -8.61884e-10 1.89342e-13)
(2764.5 -8.71862e-10 1.9102e-13)
(2764.5 -8.85175e-10 1.8586e-13)
(2764.5 -8.94734e-10 1.83547e-13)
(2764.5 -9.00454e-10 1.88117e-13)
(2764.5 -9.0274e-10 1.91604e-13)
(2764.5 -9.04175e-10 1.81186e-13)
(2764.5 -9.12488e-10 1.81311e-13)
(2764.5 -9.23226e-10 1.88584e-13)
(2764.5 -9.29908e-10 1.80073e-13)
(2764.5 -9.3443e-10 1.87635e-13)
(2764.5 -9.37857e-10 1.85702e-13)
(2764.5 -9.43095e-10 1.78473e-13)
(2764.5 -9.50472e-10 1.8207e-13)
(2764.5 -9.61294e-10 1.81955e-13)
(2764.5 -9.73438e-10 1.76428e-13)
(2764.5 -9.89073e-10 1.78004e-13)
(2764.5 -1.00585e-09 1.7935e-13)
(2764.5 -1.01941e-09 1.82765e-13)
(2764.5 -1.03078e-09 1.86818e-13)
(2764.5 -1.03612e-09 1.79679e-13)
(2764.5 -1.03898e-09 1.82743e-13)
(2764.5 -1.04358e-09 1.85534e-13)
(2764.5 -1.05392e-09 1.78423e-13)
(2764.5 -1.069e-09 1.85763e-13)
(2764.5 -1.08225e-09 1.79081e-13)
(2764.5 -1.09772e-09 1.77859e-13)
(2764.5 -1.11226e-09 1.83873e-13)
(2764.5 -1.12424e-09 1.77127e-13)
(2764.5 -1.13751e-09 1.81056e-13)
(2764.5 -1.15047e-09 1.82992e-13)
(2764.5 -1.16112e-09 1.82905e-13)
(2764.5 -1.17265e-09 1.77038e-13)
(2764.5 -1.19058e-09 1.82248e-13)
(2764.5 -1.20839e-09 1.82844e-13)
(2764.5 -1.2284e-09 1.83445e-13)
(2764.5 -1.24025e-09 1.85079e-13)
(2764.5 -1.25541e-09 1.84149e-13)
(2764.5 -1.26265e-09 1.79663e-13)
(2764.5 -8.96812e-10 2.00601e-13)
(2764.5 -9.02325e-10 2.016e-13)
(2764.5 -9.08566e-10 2.00043e-13)
(2764.5 -9.2027e-10 1.99687e-13)
(2764.5 -9.33639e-10 1.98855e-13)
(2764.5 -9.43249e-10 1.92489e-13)
(2764.5 -9.49125e-10 1.95448e-13)
(2764.5 -9.51232e-10 1.97147e-13)
(2764.5 -9.5658e-10 1.97543e-13)
(2764.5 -9.65919e-10 1.97881e-13)
(2764.5 -9.75722e-10 1.93712e-13)
(2764.5 -9.85174e-10 1.97499e-13)
(2764.5 -9.8903e-10 1.92909e-13)
(2764.5 -9.89535e-10 1.90063e-13)
(2764.5 -9.90986e-10 1.93501e-13)
(2764.5 -1.00176e-09 1.94099e-13)
(2764.5 -1.019e-09 1.94028e-13)
(2764.5 -1.03566e-09 1.94442e-13)
(2764.5 -1.04975e-09 1.90671e-13)
(2764.5 -1.06371e-09 1.92085e-13)
(2764.5 -1.07701e-09 1.9337e-13)
(2764.5 -1.08642e-09 1.92265e-13)
(2764.5 -1.09346e-09 1.91366e-13)
(2764.5 -1.09882e-09 1.92172e-13)
(2764.5 -1.10728e-09 1.91185e-13)
(2764.5 -1.11963e-09 1.9023e-13)
(2764.5 -1.13315e-09 1.90905e-13)
(2764.5 -1.14791e-09 1.95373e-13)
(2764.5 -1.16342e-09 1.89572e-13)
(2764.5 -1.17634e-09 1.9438e-13)
(2764.5 -1.18809e-09 1.92646e-13)
(2764.5 -1.20038e-09 2.00062e-13)
(2764.5 -1.21234e-09 1.9561e-13)
(2764.5 -1.22363e-09 1.91095e-13)
(2764.5 -1.23693e-09 1.94781e-13)
(2764.5 -1.25289e-09 1.99855e-13)
(2764.5 -1.27585e-09 1.99516e-13)
(2764.5 -1.2964e-09 1.97359e-13)
(2764.5 -1.31757e-09 1.95241e-13)
(2764.5 -1.32605e-09 1.99644e-13)
(2764.5 -9.404e-10 2.13522e-13)
(2764.5 -9.47856e-10 2.11592e-13)
(2764.5 -9.53263e-10 2.12933e-13)
(2764.5 -9.59743e-10 2.09869e-13)
(2764.5 -9.72251e-10 2.07587e-13)
(2764.5 -9.85418e-10 2.13252e-13)
(2764.5 -9.97005e-10 2.16556e-13)
(2764.5 -1.00273e-09 2.1072e-13)
(2764.5 -1.00986e-09 2.10222e-13)
(2764.5 -1.01987e-09 2.127e-13)
(2764.5 -1.0272e-09 2.09344e-13)
(2764.5 -1.03384e-09 2.12032e-13)
(2764.5 -1.04086e-09 2.06839e-13)
(2764.5 -1.0476e-09 2.0269e-13)
(2764.5 -1.05084e-09 2.09313e-13)
(2764.5 -1.05508e-09 2.04477e-13)
(2764.5 -1.06565e-09 2.03673e-13)
(2764.5 -1.08235e-09 2.09415e-13)
(2764.5 -1.09674e-09 2.08209e-13)
(2764.5 -1.10909e-09 2.03905e-13)
(2764.5 -1.12094e-09 2.05083e-13)
(2764.5 -1.13388e-09 1.98063e-13)
(2764.5 -1.14574e-09 2.03526e-13)
(2764.5 -1.15423e-09 2.07215e-13)
(2764.5 -1.16462e-09 2.10244e-13)
(2764.5 -1.17661e-09 2.10292e-13)
(2764.5 -1.18884e-09 2.0426e-13)
(2764.5 -1.20076e-09 2.05086e-13)
(2764.5 -1.21487e-09 2.01851e-13)
(2764.5 -1.23075e-09 2.0648e-13)
(2764.5 -1.24336e-09 2.05189e-13)
(2764.5 -1.25114e-09 2.02934e-13)
(2764.5 -1.2612e-09 2.0452e-13)
(2764.5 -1.27274e-09 2.08823e-13)
(2764.5 -1.29068e-09 2.02583e-13)
(2764.5 -1.30741e-09 2.04775e-13)
(2764.5 -1.32548e-09 2.05877e-13)
(2764.5 -1.3429e-09 2.03407e-13)
(2764.5 -1.36806e-09 2.04117e-13)
(2764.5 -1.38491e-09 2.08359e-13)
(2764.5 -9.91626e-10 2.30022e-13)
(2764.5 -9.99927e-10 2.2833e-13)
(2764.5 -1.00313e-09 2.26623e-13)
(2764.5 -1.0064e-09 2.21825e-13)
(2764.5 -1.01325e-09 2.24926e-13)
(2764.5 -1.02641e-09 2.205e-13)
(2764.5 -1.03824e-09 2.24077e-13)
(2764.5 -1.04828e-09 2.24014e-13)
(2764.5 -1.05864e-09 2.28245e-13)
(2764.5 -1.07146e-09 2.25311e-13)
(2764.5 -1.08416e-09 2.18632e-13)
(2764.5 -1.09333e-09 2.22689e-13)
(2764.5 -1.09642e-09 2.18769e-13)
(2764.5 -1.09808e-09 2.20764e-13)
(2764.5 -1.10373e-09 2.21048e-13)
(2764.5 -1.10713e-09 2.23873e-13)
(2764.5 -1.11415e-09 2.25784e-13)
(2764.5 -1.12661e-09 2.20486e-13)
(2764.5 -1.14459e-09 2.23127e-13)
(2764.5 -1.1605e-09 2.27177e-13)
(2764.5 -1.17262e-09 2.19811e-13)
(2764.5 -1.18529e-09 2.16684e-13)
(2764.5 -1.19634e-09 2.20056e-13)
(2764.5 -1.2055e-09 2.1529e-13)
(2764.5 -1.21423e-09 2.18133e-13)
(2764.5 -1.22579e-09 2.15507e-13)
(2764.5 -1.24021e-09 2.14741e-13)
(2764.5 -1.2538e-09 2.18025e-13)
(2764.5 -1.26644e-09 2.12394e-13)
(2764.5 -1.28041e-09 2.13814e-13)
(2764.5 -1.29586e-09 2.18305e-13)
(2764.5 -1.30534e-09 2.18399e-13)
(2764.5 -1.31553e-09 2.21258e-13)
(2764.5 -1.32774e-09 2.16696e-13)
(2764.5 -1.34427e-09 2.14603e-13)
(2764.5 -1.36175e-09 2.19127e-13)
(2764.5 -1.37945e-09 2.2008e-13)
(2764.5 -1.39435e-09 2.19089e-13)
(2764.5 -1.41605e-09 2.19166e-13)
(2764.5 -1.43189e-09 2.20804e-13)
(2764.5 -1.04024e-09 2.41294e-13)
(2764.5 -1.04851e-09 2.44623e-13)
(2764.5 -1.05805e-09 2.39774e-13)
(2764.5 -1.0615e-09 2.37526e-13)
(2764.5 -1.06424e-09 2.4247e-13)
(2764.5 -1.06516e-09 2.33793e-13)
(2764.5 -1.07163e-09 2.39929e-13)
(2764.5 -1.08003e-09 2.384e-13)
(2764.5 -1.0892e-09 2.30705e-13)
(2764.5 -1.10022e-09 2.35331e-13)
(2764.5 -1.11449e-09 2.35624e-13)
(2764.5 -1.12936e-09 2.31593e-13)
(2764.5 -1.14293e-09 2.30186e-13)
(2764.5 -1.15266e-09 2.3245e-13)
(2764.5 -1.15336e-09 2.34627e-13)
(2764.5 -1.1572e-09 2.30977e-13)
(2764.5 -1.16202e-09 2.37614e-13)
(2764.5 -1.16953e-09 2.33435e-13)
(2764.5 -1.17556e-09 2.29143e-13)
(2764.5 -1.18776e-09 2.29975e-13)
(2764.5 -1.20535e-09 2.31727e-13)
(2764.5 -1.22144e-09 2.28593e-13)
(2764.5 -1.2388e-09 2.30299e-13)
(2764.5 -1.24888e-09 2.31514e-13)
(2764.5 -1.25597e-09 2.25477e-13)
(2764.5 -1.26256e-09 2.32832e-13)
(2764.5 -1.26861e-09 2.33438e-13)
(2764.5 -1.27888e-09 2.29458e-13)
(2764.5 -1.29236e-09 2.29297e-13)
(2764.5 -1.31131e-09 2.30436e-13)
(2764.5 -1.33217e-09 2.35115e-13)
(2764.5 -1.35166e-09 2.27651e-13)
(2764.5 -1.36681e-09 2.27607e-13)
(2764.5 -1.37672e-09 2.3628e-13)
(2764.5 -1.38644e-09 2.28409e-13)
(2764.5 -1.39741e-09 2.29809e-13)
(2764.5 -1.41097e-09 2.33544e-13)
(2764.5 -1.42964e-09 2.34619e-13)
(2764.5 -1.44594e-09 2.30355e-13)
(2764.5 -1.46565e-09 2.32783e-13)
(2764.5 -1.47505e-09 2.31142e-13)
(2764.5 -1.10229e-09 2.58703e-13)
(2764.5 -1.10852e-09 2.63514e-13)
(2764.5 -1.11751e-09 2.51932e-13)
(2764.5 -1.12267e-09 2.50921e-13)
(2764.5 -1.12319e-09 2.54524e-13)
(2764.5 -1.12354e-09 2.50402e-13)
(2764.5 -1.12497e-09 2.50305e-13)
(2764.5 -1.12847e-09 2.44595e-13)
(2764.5 -1.13688e-09 2.48242e-13)
(2764.5 -1.14754e-09 2.51833e-13)
(2764.5 -1.15981e-09 2.4547e-13)
(2764.5 -1.17314e-09 2.42535e-13)
(2764.5 -1.18643e-09 2.4684e-13)
(2764.5 -1.19787e-09 2.4823e-13)
(2764.5 -1.20348e-09 2.45178e-13)
(2764.5 -1.2101e-09 2.44582e-13)
(2764.5 -1.21847e-09 2.46999e-13)
(2764.5 -1.22828e-09 2.44615e-13)
(2764.5 -1.23945e-09 2.43884e-13)
(2764.5 -1.24861e-09 2.44659e-13)
(2764.5 -1.25879e-09 2.42336e-13)
(2764.5 -1.27072e-09 2.47505e-13)
(2764.5 -1.28617e-09 2.44225e-13)
(2764.5 -1.30001e-09 2.33958e-13)
(2764.5 -1.30898e-09 2.38995e-13)
(2764.5 -1.3141e-09 2.46708e-13)
(2764.5 -1.31983e-09 2.39602e-13)
(2764.5 -1.32737e-09 2.396e-13)
(2764.5 -1.33559e-09 2.38867e-13)
(2764.5 -1.3516e-09 2.41309e-13)
(2764.5 -1.37354e-09 2.39539e-13)
(2764.5 -1.39735e-09 2.3936e-13)
(2764.5 -1.41439e-09 2.44938e-13)
(2764.5 -1.4239e-09 2.43409e-13)
(2764.5 -1.43006e-09 2.48687e-13)
(2764.5 -1.44027e-09 2.48737e-13)
(2764.5 -1.45049e-09 2.42487e-13)
(2764.5 -1.46493e-09 2.44195e-13)
(2764.5 -1.48061e-09 2.51593e-13)
(2764.5 -1.49721e-09 2.46956e-13)
(2764.5 -1.51438e-09 2.45169e-13)
(2764.5 -1.15424e-09 2.773e-13)
(2764.5 -1.16027e-09 2.82224e-13)
(2764.5 -1.1672e-09 2.65233e-13)
(2764.5 -1.17421e-09 2.599e-13)
(2764.5 -1.18262e-09 2.66377e-13)
(2764.5 -1.18594e-09 2.65139e-13)
(2764.5 -1.1854e-09 2.62055e-13)
(2764.5 -1.18542e-09 2.64162e-13)
(2764.5 -1.18717e-09 2.62074e-13)
(2764.5 -1.19209e-09 2.64072e-13)
(2764.5 -1.1995e-09 2.66605e-13)
(2764.5 -1.21036e-09 2.581e-13)
(2764.5 -1.22064e-09 2.58258e-13)
(2764.5 -1.23233e-09 2.58847e-13)
(2764.5 -1.24391e-09 2.58745e-13)
(2764.5 -1.24979e-09 2.61158e-13)
(2764.5 -1.25667e-09 2.66264e-13)
(2764.5 -1.26641e-09 2.57128e-13)
(2764.5 -1.27679e-09 2.55162e-13)
(2764.5 -1.28712e-09 2.54125e-13)
(2764.5 -1.2987e-09 2.54895e-13)
(2764.5 -1.30877e-09 2.56373e-13)
(2764.5 -1.31771e-09 2.52751e-13)
(2764.5 -1.32984e-09 2.4958e-13)
(2764.5 -1.34415e-09 2.57807e-13)
(2764.5 -1.36068e-09 2.59946e-13)
(2764.5 -1.37165e-09 2.58386e-13)
(2764.5 -1.38233e-09 2.55732e-13)
(2764.5 -1.3929e-09 2.55741e-13)
(2764.5 -1.40278e-09 2.53345e-13)
(2764.5 -1.41313e-09 2.52503e-13)
(2764.5 -1.42382e-09 2.60604e-13)
(2764.5 -1.43735e-09 2.58737e-13)
(2764.5 -1.45187e-09 2.50932e-13)
(2764.5 -1.46419e-09 2.50431e-13)
(2764.5 -1.47374e-09 2.52444e-13)
(2764.5 -1.48224e-09 2.54588e-13)
(2764.5 -1.48728e-09 2.5302e-13)
(2764.5 -1.50156e-09 2.5835e-13)
(2764.5 -1.50392e-09 2.61743e-13)
(2764.5 -1.51789e-09 2.56668e-13)
(2764.5 -1.47005e-09 2.55835e-13)
(2764.5 -1.19412e-09 2.88157e-13)
(2764.5 -1.20279e-09 2.84799e-13)
(2764.5 -1.20817e-09 2.81086e-13)
(2764.5 -1.21706e-09 2.78065e-13)
(2764.5 -1.22517e-09 2.81732e-13)
(2764.5 -1.23345e-09 2.82446e-13)
(2764.5 -1.24192e-09 2.79966e-13)
(2764.5 -1.24542e-09 2.78899e-13)
(2764.5 -1.24561e-09 2.77637e-13)
(2764.5 -1.24658e-09 2.78949e-13)
(2764.5 -1.24951e-09 2.79703e-13)
(2764.5 -1.25433e-09 2.75997e-13)
(2764.5 -1.26291e-09 2.68663e-13)
(2764.5 -1.27247e-09 2.69744e-13)
(2764.5 -1.28173e-09 2.71665e-13)
(2764.5 -1.29155e-09 2.69626e-13)
(2764.5 -1.30068e-09 2.7317e-13)
(2764.5 -1.31073e-09 2.6755e-13)
(2764.5 -1.32058e-09 2.67189e-13)
(2764.5 -1.32978e-09 2.66493e-13)
(2764.5 -1.33722e-09 2.66606e-13)
(2764.5 -1.34813e-09 2.69566e-13)
(2764.5 -1.35686e-09 2.67463e-13)
(2764.5 -1.36473e-09 2.62379e-13)
(2764.5 -1.37413e-09 2.68214e-13)
(2764.5 -1.38656e-09 2.7381e-13)
(2764.5 -1.40349e-09 2.69305e-13)
(2764.5 -1.42233e-09 2.63357e-13)
(2764.5 -1.43561e-09 2.66624e-13)
(2764.5 -1.44535e-09 2.63063e-13)
(2764.5 -1.4553e-09 2.61844e-13)
(2764.5 -1.46767e-09 2.67038e-13)
(2764.5 -1.47991e-09 2.66053e-13)
(2764.5 -1.48787e-09 2.62459e-13)
(2764.5 -1.49706e-09 2.64803e-13)
(2764.5 -1.5052e-09 2.64956e-13)
(2764.5 -1.51813e-09 2.63492e-13)
(2764.5 -1.51824e-09 2.67847e-13)