/*--------------------------------*- C++ -*----------------------------------*\
| =========                 |                                                 |
| \\      /  F ield         | OpenFOAM: The Open Source CFD Toolbox           |
|  \\    /   O peration     | Version:  v1706                                 |
|   \\  /    A nd           | Web:      www.OpenFOAM.com                      |
|    \\/     M anipulation  |                                                 |
\*---------------------------------------------------------------------------*/
FoamFile
{
    version     2.0;
    format      ascii;
    class       volScalarField;
    location    "1.1e-05";
    object      wallHeatFlux;
}
// * * * * * * * * * * * * * * * * * * * * * * * * * * * * * * * * * * * * * //

dimensions      [1 0 -3 0 0 0 0];


internalField   uniform 0;

boundaryField
{
    cone
    {
        type            calculated;
        value           nonuniform List<scalar> 
153
(
445639
440091
434566
429064
423584
418127
412693
407281
401894
396530
391191
385877
380588
375325
370088
364878
359695
354541
349414
344316
339246
334205
329192
324208
319254
314328
309432
304565
299727
294917
290135
285382
280657
275960
271290
266647
262029
257438
252870
248321
243786
239264
234742
230234
225740
221239
216706
211978
207119
202446
197994
193737
189634
185661
181804
178053
174403
170851
167395
164033
160763
157586
154501
151507
148603
145788
143062
140424
137872
135407
133029
130738
128537
126426
124411
122494
120681
118977
117389
115920
114576
113360
112272
111310
110467
109732
109088
108510
107972
107437
106864
106216
105458
104547
103445
102123
100563
98762.7
96732.2
94498.6
92104.3
89605.6
87069.3
84568.1
82174.2
79953.1
77960.1
76232.3
74793.6
73666.1
72867.4
72410.5
72311.5
72578.8
73215.6
74206.6
75527.4
77146.9
79028.5
81128.2
83395.3
85774.2
88207.7
90640.5
93024.3
95322.4
97512
99584.9
101546
103410
105205
106967
108730
110539
112449
114503
116740
119198
121917
124933
128270
131928
135885
140093
144477
148935
153329
157523
161354
164638
167200
168865
169442
)
;
    }
    inlet
    {
        type            calculated;
        value           uniform 0;
    }
    rWedge
    {
        type            wedge;
    }
    lWedge
    {
        type            wedge;
    }
    outlet
    {
        type            calculated;
        value           nonuniform 0();
    }
    procBoundary2to0
    {
        type            processor;
        value           uniform 0;
    }
    procBoundary2to1
    {
        type            processor;
        value           uniform 0;
    }
    procBoundary2to3
    {
        type            processor;
        value           uniform 0;
    }
}


// ************************************************************************* //
