/*--------------------------------*- C++ -*----------------------------------*\
| =========                 |                                                 |
| \\      /  F ield         | OpenFOAM: The Open Source CFD Toolbox           |
|  \\    /   O peration     | Version:  v1706                                 |
|   \\  /    A nd           | Web:      www.OpenFOAM.com                      |
|    \\/     M anipulation  |                                                 |
\*---------------------------------------------------------------------------*/
FoamFile
{
    version     2.0;
    format      ascii;
    class       volVectorField;
    location    "1.1e-05";
    object      U;
}
// * * * * * * * * * * * * * * * * * * * * * * * * * * * * * * * * * * * * * //

dimensions      [0 1 -1 0 0 0 0];


internalField   nonuniform List<vector> 
30104
(
(2764.5 -4.60402e-11 1.63209e-15)
(2764.5 -4.36127e-11 5.1483e-15)
(2764.5 -4.21605e-11 4.91067e-15)
(2764.5 -4.17704e-11 3.43938e-15)
(2764.5 -4.20744e-11 4.93956e-15)
(2764.5 -4.34001e-11 4.26588e-15)
(2764.5 -4.55329e-11 5.41981e-16)
(2764.5 -4.75218e-11 1.77004e-15)
(2764.5 -4.76689e-11 4.10305e-15)
(2764.5 -4.72649e-11 3.97691e-15)
(2764.5 -4.70627e-11 3.24593e-15)
(2764.5 -4.52044e-11 4.27908e-15)
(2764.5 -4.22034e-11 1.38054e-15)
(2764.5 -4.11309e-11 2.10877e-15)
(2764.5 -3.8159e-11 4.3359e-15)
(2764.5 -3.72488e-11 5.46652e-15)
(2764.5 -3.70714e-11 4.38578e-15)
(2764.5 -3.67612e-11 2.06227e-15)
(2764.5 -3.80195e-11 2.82627e-15)
(2764.5 -3.78376e-11 2.84102e-15)
(2764.5 -3.74809e-11 2.98297e-15)
(2764.5 -3.88093e-11 2.8573e-15)
(2764.5 -4.08464e-11 2.54592e-15)
(2764.5 -4.38569e-11 2.55556e-15)
(2764.5 -4.41814e-11 3.47794e-15)
(2764.5 -4.25456e-11 2.87261e-15)
(2764.5 -4.19771e-11 2.27344e-15)
(2764.5 -4.15052e-11 2.62392e-15)
(2764.5 -4.0526e-11 2.19482e-15)
(2764.5 -3.5227e-11 4.62895e-15)
(2764.5 -3.17923e-11 3.76085e-15)
(2764.5 -3.23073e-11 8.37959e-16)
(2764.5 -3.1712e-11 1.73082e-15)
(2764.5 -2.99324e-11 2.28453e-15)
(2764.5 -3.02435e-11 2.57921e-15)
(2764.5 -3.05831e-11 3.45556e-15)
(2764.5 -3.11588e-11 1.88824e-15)
(2764.5 -3.2987e-11 3.76618e-15)
(2764.5 -3.35157e-11 3.74181e-15)
(2764.5 -3.42969e-11 2.15437e-15)
(2764.5 -3.90416e-11 1.99937e-15)
(2764.5 -4.2427e-11 1.93383e-15)
(2764.5 -4.61356e-11 1.75333e-15)
(2764.5 -4.7571e-11 1.73059e-15)
(2764.5 -4.57994e-11 2.00568e-15)
(2764.5 -4.58337e-11 2.11178e-15)
(2764.5 -4.28418e-11 1.95148e-15)
(2764.5 -4.14069e-11 6.04575e-16)
(2764.5 -4.05758e-11 2.86398e-15)
(2764.5 -4.03058e-11 3.34328e-15)
(2764.5 -3.94254e-11 2.68483e-15)
(2764.5 -4.17319e-11 1.43723e-15)
(2764.5 -4.3118e-11 8.77824e-16)
(2764.5 -4.33805e-11 4.5162e-15)
(2764.5 -4.18433e-11 1.33508e-15)
(2764.5 -4.04546e-11 2.33036e-15)
(2764.5 -3.99949e-11 2.71882e-15)
(2764.5 -3.84846e-11 1.85699e-15)
(2764.5 -3.82049e-11 2.39271e-15)
(2764.5 -3.55503e-11 2.55877e-15)
(2764.5 -3.54641e-11 2.71215e-15)
(2764.5 -3.48212e-11 3.91173e-15)
(2764.5 -3.28466e-11 2.06668e-15)
(2764.5 -3.05485e-11 2.35806e-15)
(2764.5 -3.08964e-11 2.42068e-15)
(2764.5 -3.34717e-11 2.48741e-15)
(2764.5 -3.38234e-11 1.73834e-15)
(2764.5 -3.11136e-11 3.5055e-15)
(2764.5 -3.17625e-11 2.0929e-15)
(2764.5 -3.01026e-11 6.94393e-16)
(2764.5 -2.66388e-11 2.02184e-15)
(2764.5 -2.77665e-11 2.20991e-15)
(2764.5 -3.33593e-11 1.34906e-15)
(2764.5 -3.80825e-11 2.41301e-15)
(2764.5 -3.83751e-11 2.32824e-15)
(2764.5 -3.67717e-11 1.69652e-15)
(2764.5 -3.40192e-11 1.34033e-15)
(2764.5 -3.59755e-11 1.32365e-15)
(2764.5 -3.83921e-11 2.33425e-15)
(2764.5 -4.09798e-11 2.57042e-15)
(2764.5 -4.19607e-11 1.47149e-15)
(2764.5 -4.50086e-11 3.60454e-15)
(2764.5 -4.48289e-11 3.24427e-15)
(2764.5 -4.26623e-11 2.84103e-15)
(2764.5 -4.34781e-11 3.10188e-15)
(2764.5 -4.41152e-11 2.46737e-15)
(2764.5 -4.48304e-11 2.63829e-15)
(2764.5 -4.32344e-11 2.19491e-15)
(2764.5 -4.05776e-11 2.01578e-15)
(2764.5 -4.07391e-11 1.66363e-15)
(2764.5 -4.08666e-11 6.55746e-16)
(2764.5 -4.18336e-11 1.9037e-15)
(2764.5 -4.33688e-11 2.6711e-15)
(2764.5 -4.39088e-11 2.4283e-15)
(2764.5 -4.40155e-11 3.32038e-16)
(2764.5 -4.30885e-11 -3.35164e-17)
(2764.5 -4.28067e-11 1.64158e-15)
(2764.5 -4.4406e-11 5.94099e-16)
(2764.5 -4.52424e-11 1.43114e-15)
(2764.5 -4.32056e-11 5.35823e-16)
(2764.5 -3.76835e-11 6.02749e-16)
(2764.5 -3.79077e-11 4.1225e-15)
(2764.5 -4.10561e-11 3.43038e-15)
(2764.5 -4.22088e-11 2.25965e-15)
(2764.5 -4.46378e-11 1.23912e-15)
(2764.5 -4.6817e-11 1.67708e-15)
(2764.5 -4.27545e-11 2.42389e-15)
(2764.5 -3.73834e-11 1.92094e-15)
(2764.5 -3.62018e-11 2.12741e-15)
(2764.5 -3.72602e-11 2.65145e-15)
(2764.5 -3.86766e-11 2.26342e-15)
(2764.5 -3.75516e-11 9.40852e-16)
(2764.5 -3.61798e-11 2.11917e-15)
(2764.5 -2.98144e-11 4.79176e-16)
(2764.5 -2.67911e-11 2.09523e-16)
(2764.5 -2.90046e-11 2.31541e-15)
(2764.5 -3.09708e-11 2.35531e-15)
(2764.5 -2.95326e-11 2.36876e-15)
(2764.5 -2.68778e-11 2.30003e-15)
(2764.5 -2.85899e-11 1.90795e-15)
(2764.5 -3.28372e-11 1.70714e-15)
(2764.5 -3.36235e-11 1.65884e-15)
(2764.5 -3.58682e-11 1.49313e-15)
(2764.5 -3.822e-11 5.23281e-16)
(2764.5 -4.17801e-11 -3.74056e-16)
(2764.5 -4.73518e-11 2.27344e-15)
(2764.5 -4.68287e-11 2.73148e-15)
(2764.5 -4.5738e-11 2.23125e-15)
(2764.5 -4.63336e-11 2.21334e-15)
(2764.5 -4.54235e-11 1.84834e-15)
(2764.5 -4.70401e-11 1.43726e-15)
(2764.5 -4.90619e-11 7.73063e-16)
(2764.5 -5.0629e-11 1.13935e-15)
(2764.5 -4.59092e-11 1.33405e-15)
(2764.5 -4.34329e-11 1.51488e-15)
(2764.5 -3.77267e-11 1.4571e-15)
(2764.5 -3.44654e-11 9.32278e-16)
(2764.5 -3.22609e-11 1.71945e-15)
(2764.5 -3.37846e-11 1.23748e-15)
(2764.5 -3.64312e-11 2.58229e-15)
(2764.5 -3.22383e-11 2.28595e-15)
(2764.5 -2.37416e-11 3.59491e-16)
(2764.5 -2.186e-11 1.07972e-16)
(2764.5 -2.57285e-11 6.55351e-16)
(2764.5 -2.61591e-11 9.41221e-16)
(2764.5 -2.33838e-11 1.35196e-15)
(2764.5 -2.45339e-11 9.80487e-16)
(2764.5 -2.78078e-11 1.13293e-15)
(2764.5 -3.68143e-11 1.66807e-15)
(2764.5 -4.25664e-11 1.39263e-15)
(2764.5 -4.95099e-11 2.06304e-15)
(2764.5 -5.57713e-11 6.63694e-16)
(2764.5 -5.91795e-11 1.86223e-15)
(2764.5 -6.54287e-11 4.82711e-16)
(2764.5 -6.11222e-11 1.5808e-15)
(2764.5 -5.83542e-11 1.66316e-15)
(2764.5 -5.21484e-11 1.08032e-15)
(2764.5 -3.60303e-11 2.33261e-15)
(2764.5 -2.81167e-11 2.77532e-15)
(2764.5 -3.351e-11 2.24381e-15)
(2764.5 -4.055e-11 2.53639e-15)
(2764.5 -4.10255e-11 1.0433e-15)
(2764.5 -3.74818e-11 5.37913e-16)
(2764.5 -3.31251e-11 2.97959e-15)
(2764.5 -3.45246e-11 2.13718e-15)
(2764.5 -4.05052e-11 1.37428e-15)
(2764.5 -4.82999e-11 1.45031e-15)
(2764.5 -4.78255e-11 1.85086e-15)
(2764.5 -4.28637e-11 9.64928e-16)
(2764.5 -3.7021e-11 1.56541e-15)
(2764.5 -3.0874e-11 1.22227e-15)
(2764.5 -2.9857e-11 1.37073e-15)
(2764.5 -2.31787e-11 1.49972e-15)
(2764.5 -1.18365e-11 1.26601e-15)
(2764.5 -6.61641e-12 1.81203e-15)
(2764.5 -1.06598e-11 1.46604e-15)
(2764.5 -1.70168e-11 7.97728e-16)
(2764.5 -2.21759e-11 7.83711e-16)
(2764.5 -3.47779e-11 1.76919e-15)
(2764.5 -5.083e-11 -4.66789e-18)
(2764.5 -6.88617e-11 1.28342e-15)
(2764.5 -7.65941e-11 1.31895e-15)
(2764.5 -7.24824e-11 1.18016e-15)
(2764.5 -6.5506e-11 2.41821e-15)
(2764.5 -6.56445e-11 1.73714e-15)
(2764.5 -6.743e-11 1.50928e-15)
(2764.5 -6.9591e-11 -1.80805e-16)
(2764.5 -6.73915e-11 1.08253e-15)
(2764.5 -5.98164e-11 1.76787e-15)
(2764.5 -5.39188e-11 1.68488e-15)
(2764.5 -4.80237e-11 1.52767e-15)
(2764.5 -3.79805e-11 1.27969e-15)
(2764.5 -3.61892e-11 8.80459e-16)
(2764.5 -3.29391e-11 2.22417e-15)
(2764.5 -3.21065e-11 1.58131e-15)
(2764.5 -3.23342e-11 9.97673e-16)
(2764.5 -2.31998e-11 1.45883e-15)
(2764.5 -1.95378e-11 7.10994e-16)
(2764.5 -8.00371e-12 1.1946e-15)
(2764.5 6.67799e-13 1.87644e-15)
(2764.5 1.49289e-11 1.33491e-15)
(2764.5 1.46222e-11 1.5211e-15)
(2764.5 8.15962e-12 1.06281e-15)
(2764.5 -2.68754e-12 4.22209e-16)
(2764.5 -2.06898e-11 1.31267e-15)
(2764.5 -3.05262e-11 1.8716e-15)
(2764.5 -3.63675e-11 8.50444e-16)
(2764.5 -4.2243e-11 5.28104e-16)
(2764.5 -5.20584e-11 7.92716e-16)
(2764.5 -6.63053e-11 7.16072e-16)
(2764.5 -1.25433e-10 1.23947e-14)
(2764.5 -1.28552e-10 1.66763e-14)
(2764.5 -1.28174e-10 1.07524e-14)
(2764.5 -1.2605e-10 1.04722e-14)
(2764.5 -1.21664e-10 1.14126e-14)
(2764.5 -1.20039e-10 1.12396e-14)
(2764.5 -1.15979e-10 1.15672e-14)
(2764.5 -1.16267e-10 1.08477e-14)
(2764.5 -1.17933e-10 1.27211e-14)
(2764.5 -1.20658e-10 1.14008e-14)
(2764.5 -1.22656e-10 1.13366e-14)
(2764.5 -1.2853e-10 1.37098e-14)
(2764.5 -1.29922e-10 1.53587e-14)
(2764.5 -1.31675e-10 1.54459e-14)
(2764.5 -1.33124e-10 1.49595e-14)
(2764.5 -1.32384e-10 1.42414e-14)
(2764.5 -1.32179e-10 1.20639e-14)
(2764.5 -1.17361e-10 3.49483e-15)
(2764.5 -1.15219e-10 7.40637e-15)
(2764.5 -1.17613e-10 8.90294e-15)
(2764.5 -1.149e-10 8.31012e-15)
(2764.5 -1.12576e-10 8.04051e-15)
(2764.5 -1.09611e-10 8.55532e-15)
(2764.5 -1.06537e-10 6.97392e-15)
(2764.5 -1.10838e-10 8.41714e-15)
(2764.5 -1.15022e-10 1.00423e-14)
(2764.5 -1.15523e-10 7.66785e-15)
(2764.5 -1.15316e-10 5.49869e-15)
(2764.5 -1.1871e-10 7.67043e-15)
(2764.5 -1.19154e-10 7.73457e-15)
(2764.5 -1.17451e-10 6.21911e-15)
(2764.5 -1.11187e-10 4.30478e-15)
(2764.5 -1.10419e-10 5.63178e-15)
(2764.5 -1.08767e-10 6.1507e-15)
(2764.5 -1.05091e-10 6.31046e-15)
(2764.5 -1.05532e-10 8.86458e-15)
(2764.5 -1.04041e-10 8.54469e-15)
(2764.5 -1.03738e-10 9.22664e-15)
(2764.5 -1.04179e-10 9.24886e-15)
(2764.5 -1.03284e-10 9.21936e-15)
(2764.5 -9.38708e-11 8.69468e-15)
(2764.5 -9.57717e-11 8.4339e-15)
(2764.5 -9.80267e-11 8.06687e-15)
(2764.5 -1.02466e-10 7.91862e-15)
(2764.5 -1.0645e-10 7.63314e-15)
(2764.5 -1.07815e-10 7.62537e-15)
(2764.5 -1.10755e-10 7.4757e-15)
(2764.5 -1.09557e-10 7.11254e-15)
(2764.5 -1.0965e-10 8.68567e-15)
(2764.5 -1.07075e-10 8.76307e-15)
(2764.5 -1.0951e-10 7.4114e-15)
(2764.5 -1.0661e-10 5.40934e-15)
(2764.5 -1.07759e-10 6.74024e-15)
(2764.5 -1.11387e-10 7.90018e-15)
(2764.5 -1.15339e-10 6.17199e-15)
(2764.5 -1.09947e-10 6.60111e-15)
(2764.5 -1.07907e-10 8.73558e-15)
(2764.5 -1.06507e-10 8.85293e-15)
(2764.5 -1.00771e-10 9.13677e-15)
(2764.5 -1.00951e-10 7.67594e-15)
(2764.5 -1.00223e-10 7.74743e-15)
(2764.5 -1.03576e-10 9.77237e-15)
(2764.5 -1.04497e-10 1.03907e-14)
(2764.5 -1.03647e-10 5.22606e-15)
(2764.5 -1.01985e-10 4.16904e-15)
(2764.5 -9.54884e-11 6.44108e-15)
(2764.5 -9.75856e-11 5.12619e-15)
(2764.5 -1.03943e-10 6.47146e-15)
(2764.5 -1.02069e-10 7.26658e-15)
(2764.5 -1.06721e-10 7.61256e-15)
(2764.5 -1.1078e-10 7.26381e-15)
(2764.5 -1.08714e-10 5.0619e-15)
(2764.5 -1.03495e-10 4.54687e-15)
(2764.5 -1.04257e-10 6.61788e-15)
(2764.5 -1.08646e-10 6.94936e-15)
(2764.5 -1.13222e-10 9.43026e-15)
(2764.5 -1.16468e-10 7.1287e-15)
(2764.5 -1.12727e-10 5.80471e-15)
(2764.5 -1.12943e-10 6.24387e-15)
(2764.5 -1.13555e-10 6.03581e-15)
(2764.5 -1.18668e-10 5.39891e-15)
(2764.5 -1.20107e-10 7.54434e-15)
(2764.5 -1.29723e-10 8.00788e-15)
(2764.5 -1.29793e-10 6.62216e-15)
(2764.5 -1.27991e-10 5.95856e-15)
(2764.5 -1.31477e-10 7.63137e-15)
(2764.5 -1.32797e-10 6.74089e-15)
(2764.5 -1.34952e-10 6.60913e-15)
(2764.5 -1.32073e-10 6.48778e-15)
(2764.5 -1.28186e-10 5.75097e-15)
(2764.5 -1.24296e-10 5.03252e-15)
(2764.5 -1.16518e-10 9.2249e-15)
(2764.5 -1.13756e-10 7.88723e-15)
(2764.5 -1.16139e-10 7.01616e-15)
(2764.5 -1.15012e-10 3.36291e-15)
(2764.5 -1.17827e-10 5.90458e-15)
(2764.5 -1.15147e-10 5.04232e-15)
(2764.5 -1.14594e-10 2.91509e-15)
(2764.5 -1.1597e-10 3.54103e-15)
(2764.5 -1.19263e-10 4.31234e-15)
(2764.5 -1.22837e-10 7.1093e-15)
(2764.5 -1.15353e-10 7.42363e-15)
(2764.5 -1.15401e-10 7.461e-15)
(2764.5 -1.11463e-10 4.51275e-15)
(2764.5 -1.11295e-10 5.45274e-15)
(2764.5 -1.13377e-10 7.75593e-15)
(2764.5 -1.20852e-10 7.55646e-15)
(2764.5 -1.23753e-10 8.09001e-15)
(2764.5 -1.18013e-10 8.08859e-15)
(2764.5 -1.16615e-10 7.33355e-15)
(2764.5 -1.1119e-10 5.63104e-15)
(2764.5 -1.10211e-10 3.23001e-15)
(2764.5 -1.12501e-10 4.45549e-15)
(2764.5 -1.18211e-10 3.02157e-15)
(2764.5 -1.14179e-10 4.1399e-15)
(2764.5 -1.03964e-10 6.25178e-15)
(2764.5 -9.87686e-11 5.24981e-15)
(2764.5 -9.78042e-11 5.56227e-15)
(2764.5 -9.96461e-11 4.53178e-15)
(2764.5 -9.69655e-11 5.35776e-15)
(2764.5 -9.43244e-11 5.77844e-15)
(2764.5 -1.01284e-10 5.96286e-15)
(2764.5 -1.03207e-10 5.21359e-15)
(2764.5 -1.02684e-10 4.79775e-15)
(2764.5 -1.03231e-10 6.22358e-15)
(2764.5 -1.05852e-10 5.48205e-15)
(2764.5 -1.13643e-10 5.57482e-15)
(2764.5 -1.15709e-10 7.68922e-15)
(2764.5 -1.14342e-10 7.54206e-15)
(2764.5 -1.15812e-10 5.701e-15)
(2764.5 -1.12813e-10 6.14143e-15)
(2764.5 -1.10817e-10 5.35299e-15)
(2764.5 -1.13149e-10 4.77959e-15)
(2764.5 -1.183e-10 6.7756e-15)
(2764.5 -1.15083e-10 7.6665e-15)
(2764.5 -1.16413e-10 5.86995e-15)
(2764.5 -1.13898e-10 7.31937e-15)
(2764.5 -1.09471e-10 3.34855e-15)
(2764.5 -1.03997e-10 3.64365e-15)
(2764.5 -1.00395e-10 6.31399e-15)
(2764.5 -1.06346e-10 5.69015e-15)
(2764.5 -1.17509e-10 4.0109e-15)
(2764.5 -1.10428e-10 3.98527e-15)
(2764.5 -1.01766e-10 3.98585e-15)
(2764.5 -1.05772e-10 3.64184e-15)
(2764.5 -1.0356e-10 3.63269e-15)
(2764.5 -9.43301e-11 4.08847e-15)
(2764.5 -8.56882e-11 6.03445e-15)
(2764.5 -8.19248e-11 3.57847e-15)
(2764.5 -8.88056e-11 4.01076e-15)
(2764.5 -9.46723e-11 3.86704e-15)
(2764.5 -1.07688e-10 5.20256e-15)
(2764.5 -1.16332e-10 6.39329e-15)
(2764.5 -1.22581e-10 4.35761e-15)
(2764.5 -1.34677e-10 4.22032e-15)
(2764.5 -1.39859e-10 3.43644e-15)
(2764.5 -1.43692e-10 5.51659e-15)
(2764.5 -1.46282e-10 5.86042e-15)
(2764.5 -1.27711e-10 6.06197e-15)
(2764.5 -9.9662e-11 5.83651e-15)
(2764.5 -9.04799e-11 5.52619e-15)
(2764.5 -8.95356e-11 6.11362e-15)
(2764.5 -8.47029e-11 5.79224e-15)
(2764.5 -7.28897e-11 4.88992e-15)
(2764.5 -5.2567e-11 5.33687e-15)
(2764.5 -3.83062e-11 4.30711e-15)
(2764.5 -4.116e-11 3.22172e-15)
(2764.5 -5.48757e-11 4.03528e-15)
(2764.5 -7.03586e-11 4.01894e-15)
(2764.5 -9.25628e-11 5.06554e-15)
(2764.5 -1.07397e-10 5.24707e-15)
(2764.5 -1.15926e-10 5.243e-15)
(2764.5 -1.35818e-10 5.15583e-15)
(2764.5 -1.34963e-10 4.74345e-15)
(2764.5 -1.35916e-10 5.29328e-15)
(2764.5 -1.29386e-10 4.96424e-15)
(2764.5 -1.35537e-10 3.771e-15)
(2764.5 -1.39588e-10 4.93586e-15)
(2764.5 -1.29766e-10 4.03333e-15)
(2764.5 -1.14924e-10 4.54778e-15)
(2764.5 -1.08531e-10 4.99538e-15)
(2764.5 -1.11344e-10 4.01519e-15)
(2764.5 -1.2069e-10 4.53887e-15)
(2764.5 -1.22486e-10 5.74276e-15)
(2764.5 -1.14947e-10 6.04835e-15)
(2764.5 -1.02436e-10 6.34929e-15)
(2764.5 -9.01845e-11 5.28956e-15)
(2764.5 -8.30851e-11 7.19257e-15)
(2764.5 -8.26764e-11 3.20626e-15)
(2764.5 -6.85124e-11 2.81753e-15)
(2764.5 -5.45879e-11 4.87853e-15)
(2764.5 -3.76152e-11 3.23656e-15)
(2764.5 -2.94087e-11 3.90736e-15)
(2764.5 -3.67757e-11 3.69166e-15)
(2764.5 -4.04376e-11 3.25642e-15)
(2764.5 -4.65112e-11 3.06205e-15)
(2764.5 -6.33475e-11 3.41456e-15)
(2764.5 -8.32741e-11 3.58418e-15)
(2764.5 -1.12134e-10 3.76275e-15)
(2764.5 -1.37517e-10 3.89683e-15)
(2764.5 -1.64295e-10 3.79576e-15)
(2764.5 -1.68144e-10 2.53884e-15)
(2764.5 -1.82246e-10 3.74336e-16)
(2764.5 -1.95879e-10 3.86329e-15)
(2764.5 -1.9851e-10 5.35718e-15)
(2764.5 -2.28651e-10 5.41404e-15)
(2764.5 -2.47217e-10 6.44874e-15)
(2764.5 -2.32061e-10 7.15889e-15)
(2764.5 -2.10709e-10 5.83903e-15)
(2764.5 -1.85709e-10 4.8296e-15)
(2764.5 -2.07741e-10 1.73907e-14)
(2764.5 -2.07755e-10 2.05612e-14)
(2764.5 -2.11756e-10 2.04642e-14)
(2764.5 -2.14194e-10 2.04981e-14)
(2764.5 -2.1335e-10 2.13238e-14)
(2764.5 -2.10839e-10 2.03724e-14)
(2764.5 -2.07718e-10 1.8763e-14)
(2764.5 -2.04215e-10 1.93305e-14)
(2764.5 -2.01664e-10 2.27521e-14)
(2764.5 -1.96612e-10 2.14309e-14)
(2764.5 -1.91941e-10 2.07305e-14)
(2764.5 -1.92319e-10 2.10651e-14)
(2764.5 -1.9168e-10 1.70015e-14)
(2764.5 -1.91789e-10 1.68154e-14)
(2764.5 -1.88736e-10 1.99401e-14)
(2764.5 -1.89425e-10 1.99311e-14)
(2764.5 -1.91644e-10 1.33306e-14)
(2764.5 -1.88692e-10 1.40644e-14)
(2764.5 -1.88476e-10 1.38062e-14)
(2764.5 -1.84042e-10 1.3848e-14)
(2764.5 -1.81479e-10 1.38695e-14)
(2764.5 -1.83831e-10 1.36893e-14)
(2764.5 -1.78703e-10 1.30134e-14)
(2764.5 -1.78218e-10 1.54079e-14)
(2764.5 -1.80237e-10 1.39135e-14)
(2764.5 -1.82812e-10 1.1532e-14)
(2764.5 -1.81925e-10 1.40461e-14)
(2764.5 -1.87186e-10 1.33023e-14)
(2764.5 -1.91308e-10 1.41011e-14)
(2764.5 -1.926e-10 1.41972e-14)
(2764.5 -1.93904e-10 1.10547e-14)
(2764.5 -1.92603e-10 1.15706e-14)
(2764.5 -1.93137e-10 1.08794e-14)
(2764.5 -1.88629e-10 1.35788e-14)
(2764.5 -1.87729e-10 1.39688e-14)
(2764.5 -1.84088e-10 1.12981e-14)
(2764.5 -1.81489e-10 1.28063e-14)
(2764.5 -1.79537e-10 1.32657e-14)
(2764.5 -1.80518e-10 1.2258e-14)
(2764.5 -1.76666e-10 1.24277e-14)
(2764.5 -1.72216e-10 1.31191e-14)
(2764.5 -1.7212e-10 1.25227e-14)
(2764.5 -1.66998e-10 1.25952e-14)
(2764.5 -1.72352e-10 1.24425e-14)
(2764.5 -1.75199e-10 1.15175e-14)
(2764.5 -1.85886e-10 1.25864e-14)
(2764.5 -1.87064e-10 1.19139e-14)
(2764.5 -1.86451e-10 1.21472e-14)
(2764.5 -1.86514e-10 1.2172e-14)
(2764.5 -1.831e-10 1.21801e-14)
(2764.5 -1.83442e-10 9.77989e-15)
(2764.5 -1.82805e-10 1.56378e-14)
(2764.5 -1.80035e-10 1.12735e-14)
(2764.5 -1.81457e-10 1.13319e-14)
(2764.5 -1.91064e-10 1.268e-14)
(2764.5 -1.96357e-10 1.27649e-14)
(2764.5 -1.98521e-10 1.31902e-14)
(2764.5 -1.98615e-10 1.36969e-14)
(2764.5 -1.94922e-10 1.20034e-14)
(2764.5 -1.89887e-10 1.36287e-14)
(2764.5 -1.81931e-10 1.10554e-14)
(2764.5 -1.79837e-10 1.17842e-14)
(2764.5 -1.78294e-10 1.29497e-14)
(2764.5 -1.80783e-10 1.39877e-14)
(2764.5 -1.75427e-10 1.22401e-14)
(2764.5 -1.67195e-10 1.08664e-14)
(2764.5 -1.65778e-10 1.08229e-14)
(2764.5 -1.64919e-10 1.09816e-14)
(2764.5 -1.66312e-10 1.03401e-14)
(2764.5 -1.66776e-10 8.79457e-15)
(2764.5 -1.68502e-10 8.28872e-15)
(2764.5 -1.7197e-10 1.28982e-14)
(2764.5 -1.68313e-10 1.10979e-14)
(2764.5 -1.6787e-10 1.10899e-14)
(2764.5 -1.68905e-10 1.23627e-14)
(2764.5 -1.77642e-10 1.15723e-14)
(2764.5 -1.77482e-10 1.14827e-14)
(2764.5 -1.75249e-10 1.11402e-14)
(2764.5 -1.68899e-10 1.23802e-14)
(2764.5 -1.64927e-10 1.33029e-14)
(2764.5 -1.6353e-10 9.81794e-15)
(2764.5 -1.63039e-10 6.93049e-15)
(2764.5 -1.72511e-10 1.19741e-14)
(2764.5 -1.72425e-10 1.05451e-14)
(2764.5 -1.75809e-10 1.05488e-14)
(2764.5 -1.81725e-10 1.29519e-14)
(2764.5 -1.88707e-10 1.06219e-14)
(2764.5 -1.92308e-10 9.18282e-15)
(2764.5 -1.93337e-10 1.24392e-14)
(2764.5 -1.94638e-10 1.2582e-14)
(2764.5 -1.88887e-10 9.93644e-15)
(2764.5 -1.8349e-10 8.68107e-15)
(2764.5 -1.78939e-10 1.14027e-14)
(2764.5 -1.78047e-10 9.11357e-15)
(2764.5 -1.7933e-10 9.80733e-15)
(2764.5 -1.83083e-10 8.65389e-15)
(2764.5 -1.8055e-10 7.72747e-15)
(2764.5 -1.83334e-10 1.0349e-14)
(2764.5 -1.88613e-10 1.10032e-14)
(2764.5 -1.99666e-10 1.01528e-14)
(2764.5 -2.00375e-10 1.0163e-14)
(2764.5 -1.96076e-10 1.01432e-14)
(2764.5 -1.96047e-10 8.91282e-15)
(2764.5 -1.91256e-10 9.01116e-15)
(2764.5 -1.9082e-10 8.41988e-15)
(2764.5 -1.9231e-10 9.31498e-15)
(2764.5 -1.93314e-10 1.11104e-14)
(2764.5 -1.96572e-10 9.74787e-15)
(2764.5 -1.9701e-10 9.09808e-15)
(2764.5 -1.96378e-10 8.55974e-15)
(2764.5 -1.93398e-10 7.41404e-15)
(2764.5 -1.85447e-10 8.31215e-15)
(2764.5 -1.83934e-10 8.59023e-15)
(2764.5 -1.94616e-10 1.04114e-14)
(2764.5 -1.98353e-10 9.50573e-15)
(2764.5 -2.00204e-10 8.04625e-15)
(2764.5 -2.00202e-10 8.41712e-15)
(2764.5 -1.95497e-10 9.43944e-15)
(2764.5 -1.8547e-10 7.22024e-15)
(2764.5 -1.7841e-10 9.48542e-15)
(2764.5 -1.61954e-10 1.01666e-14)
(2764.5 -1.60511e-10 8.4432e-15)
(2764.5 -1.54841e-10 7.20458e-15)
(2764.5 -1.59175e-10 9.72976e-15)
(2764.5 -1.5042e-10 8.96872e-15)
(2764.5 -1.41899e-10 1.06574e-14)
(2764.5 -1.48207e-10 1.11671e-14)
(2764.5 -1.56575e-10 1.10034e-14)
(2764.5 -1.5297e-10 7.66803e-15)
(2764.5 -1.61157e-10 9.01264e-15)
(2764.5 -1.66379e-10 8.76791e-15)
(2764.5 -1.67656e-10 9.21873e-15)
(2764.5 -1.69938e-10 9.33512e-15)
(2764.5 -1.7571e-10 1.01018e-14)
(2764.5 -1.87073e-10 9.59453e-15)
(2764.5 -1.88031e-10 1.00875e-14)
(2764.5 -1.8602e-10 9.14436e-15)
(2764.5 -1.86351e-10 8.87893e-15)
(2764.5 -1.83495e-10 8.982e-15)
(2764.5 -1.83116e-10 8.60112e-15)
(2764.5 -1.86771e-10 8.65033e-15)
(2764.5 -2.05505e-10 7.688e-15)
(2764.5 -2.03133e-10 7.32865e-15)
(2764.5 -1.99046e-10 1.03284e-14)
(2764.5 -1.99865e-10 6.04348e-15)
(2764.5 -1.92368e-10 5.9646e-15)
(2764.5 -1.86219e-10 6.26411e-15)
(2764.5 -1.66865e-10 6.26426e-15)
(2764.5 -1.52199e-10 9.28415e-15)
(2764.5 -1.32199e-10 9.6415e-15)
(2764.5 -1.17597e-10 8.72175e-15)
(2764.5 -1.16643e-10 9.04283e-15)
(2764.5 -1.14131e-10 8.80506e-15)
(2764.5 -1.24551e-10 9.22706e-15)
(2764.5 -1.36136e-10 1.03168e-14)
(2764.5 -1.52662e-10 9.01387e-15)
(2764.5 -1.71433e-10 8.64902e-15)
(2764.5 -1.96588e-10 7.58792e-15)
(2764.5 -1.86848e-10 8.93669e-15)
(2764.5 -1.84186e-10 8.07601e-15)
(2764.5 -1.90178e-10 7.47472e-15)
(2764.5 -2.05873e-10 6.87849e-15)
(2764.5 -2.21535e-10 8.55872e-15)
(2764.5 -2.24825e-10 9.05162e-15)
(2764.5 -2.22222e-10 8.79771e-15)
(2764.5 -2.1504e-10 8.02038e-15)
(2764.5 -2.05838e-10 8.9831e-15)
(2764.5 -1.98112e-10 8.00139e-15)
(2764.5 -1.94334e-10 9.83916e-15)
(2764.5 -2.0065e-10 8.72298e-15)
(2764.5 -1.9057e-10 7.55862e-15)
(2764.5 -1.96966e-10 9.42612e-15)
(2764.5 -2.05529e-10 1.00301e-14)
(2764.5 -1.97304e-10 1.03696e-14)
(2764.5 -1.83407e-10 8.9632e-15)
(2764.5 -1.55444e-10 9.0487e-15)
(2764.5 -1.3888e-10 8.99234e-15)
(2764.5 -1.08033e-10 6.93538e-15)
(2764.5 -9.76588e-11 5.08899e-15)
(2764.5 -8.49474e-11 5.33398e-15)
(2764.5 -8.17682e-11 6.62782e-15)
(2764.5 -8.2886e-11 7.3977e-15)
(2764.5 -7.54217e-11 6.57102e-15)
(2764.5 -8.27613e-11 5.61789e-15)
(2764.5 -8.2501e-11 8.78055e-15)
(2764.5 -9.21294e-11 7.44944e-15)
(2764.5 -1.20886e-10 5.25712e-15)
(2764.5 -1.47628e-10 7.13793e-15)
(2764.5 -1.78548e-10 7.94009e-15)
(2764.5 -2.17155e-10 7.35696e-15)
(2764.5 -2.50148e-10 5.75395e-15)
(2764.5 -2.61794e-10 5.62589e-15)
(2764.5 -2.73753e-10 5.7482e-15)
(2764.5 -2.86074e-10 6.2191e-15)
(2764.5 -2.98461e-10 5.59686e-15)
(2764.5 -2.89368e-10 4.40583e-15)
(2764.5 -2.78513e-10 5.40779e-15)
(2764.5 -2.71858e-10 6.45319e-15)
(2764.5 -2.77798e-10 6.83163e-15)
(2764.5 -2.71061e-10 7.60647e-15)
(2764.5 -2.40674e-10 7.78047e-15)
(2764.5 -2.12017e-10 8.75617e-15)
(2764.5 -1.81932e-10 8.6189e-15)
(2764.5 -1.53114e-10 6.72246e-15)
(2764.5 -1.17895e-10 9.85908e-15)
(2764.5 -8.90684e-11 8.11595e-15)
(2764.5 -7.98074e-11 7.28222e-15)
(2764.5 -6.07037e-11 8.08786e-15)
(2764.5 -2.28892e-11 8.0978e-15)
(2764.5 -2.84083e-10 2.71369e-14)
(2764.5 -2.82758e-10 2.59861e-14)
(2764.5 -2.81707e-10 2.29845e-14)
(2764.5 -2.8614e-10 2.8974e-14)
(2764.5 -2.89756e-10 2.91429e-14)
(2764.5 -2.92206e-10 2.18418e-14)
(2764.5 -2.9295e-10 2.5472e-14)
(2764.5 -2.97991e-10 2.80388e-14)
(2764.5 -3.00203e-10 2.40535e-14)
(2764.5 -3.04236e-10 2.58338e-14)
(2764.5 -3.09249e-10 3.21887e-14)
(2764.5 -3.10486e-10 2.99575e-14)
(2764.5 -3.10422e-10 2.84016e-14)
(2764.5 -3.09377e-10 2.76165e-14)
(2764.5 -3.05893e-10 2.94144e-14)
(2764.5 -2.95283e-10 2.61761e-14)
(2764.5 -2.7182e-10 1.80562e-14)
(2764.5 -2.72871e-10 1.73094e-14)
(2764.5 -2.73904e-10 1.75001e-14)
(2764.5 -2.74749e-10 1.82718e-14)
(2764.5 -2.70874e-10 1.95697e-14)
(2764.5 -2.65748e-10 2.05415e-14)
(2764.5 -2.65024e-10 1.87679e-14)
(2764.5 -2.57535e-10 1.88504e-14)
(2764.5 -2.53929e-10 2.01045e-14)
(2764.5 -2.52663e-10 2.07676e-14)
(2764.5 -2.512e-10 1.74991e-14)
(2764.5 -2.48494e-10 1.93101e-14)
(2764.5 -2.59582e-10 1.76776e-14)
(2764.5 -2.63096e-10 1.48166e-14)
(2764.5 -2.69498e-10 1.82131e-14)
(2764.5 -2.69792e-10 1.66293e-14)
(2764.5 -2.75093e-10 1.60929e-14)
(2764.5 -2.73455e-10 1.5203e-14)
(2764.5 -2.7146e-10 1.3802e-14)
(2764.5 -2.73174e-10 1.59513e-14)
(2764.5 -2.71274e-10 1.86328e-14)
(2764.5 -2.7149e-10 1.94901e-14)
(2764.5 -2.71245e-10 1.93998e-14)
(2764.5 -2.72301e-10 1.80618e-14)
(2764.5 -2.60641e-10 1.60745e-14)
(2764.5 -2.58584e-10 1.58424e-14)
(2764.5 -2.56398e-10 1.75776e-14)
(2764.5 -2.50201e-10 1.52321e-14)
(2764.5 -2.4317e-10 1.93088e-14)
(2764.5 -2.48632e-10 1.91257e-14)
(2764.5 -2.51189e-10 1.44406e-14)
(2764.5 -2.5621e-10 1.74603e-14)
(2764.5 -2.57781e-10 1.62223e-14)
(2764.5 -2.5541e-10 1.60588e-14)
(2764.5 -2.51674e-10 1.65758e-14)
(2764.5 -2.47566e-10 1.64658e-14)
(2764.5 -2.46337e-10 1.70496e-14)
(2764.5 -2.42659e-10 1.82608e-14)
(2764.5 -2.43058e-10 1.83037e-14)
(2764.5 -2.44501e-10 1.39436e-14)
(2764.5 -2.533e-10 1.78723e-14)
(2764.5 -2.64878e-10 1.60584e-14)
(2764.5 -2.72964e-10 1.62887e-14)
(2764.5 -2.7983e-10 1.8281e-14)
(2764.5 -2.74818e-10 1.83293e-14)
(2764.5 -2.75586e-10 1.82406e-14)
(2764.5 -2.70983e-10 1.82276e-14)
(2764.5 -2.66242e-10 1.63987e-14)
(2764.5 -2.69306e-10 1.67484e-14)
(2764.5 -2.6525e-10 1.42023e-14)
(2764.5 -2.61799e-10 1.25778e-14)
(2764.5 -2.53586e-10 1.63326e-14)
(2764.5 -2.4068e-10 1.57871e-14)
(2764.5 -2.35888e-10 1.49234e-14)
(2764.5 -2.27525e-10 1.60702e-14)
(2764.5 -2.27294e-10 1.70585e-14)
(2764.5 -2.32079e-10 1.53538e-14)
(2764.5 -2.28661e-10 1.47494e-14)
(2764.5 -2.26107e-10 1.55546e-14)
(2764.5 -2.30085e-10 1.52885e-14)
(2764.5 -2.37566e-10 1.8144e-14)
(2764.5 -2.42485e-10 1.60992e-14)
(2764.5 -2.45155e-10 1.56282e-14)
(2764.5 -2.39698e-10 1.54635e-14)
(2764.5 -2.38503e-10 1.32805e-14)
(2764.5 -2.35461e-10 1.3989e-14)
(2764.5 -2.35932e-10 1.6596e-14)
(2764.5 -2.3643e-10 1.52303e-14)
(2764.5 -2.34987e-10 1.59511e-14)
(2764.5 -2.35268e-10 1.587e-14)
(2764.5 -2.45892e-10 1.53666e-14)
(2764.5 -2.66255e-10 1.47074e-14)
(2764.5 -2.74991e-10 1.53583e-14)
(2764.5 -2.77484e-10 1.47828e-14)
(2764.5 -2.87689e-10 1.45932e-14)
(2764.5 -2.83293e-10 1.45273e-14)
(2764.5 -2.79574e-10 1.52027e-14)
(2764.5 -2.648e-10 1.45441e-14)
(2764.5 -2.58198e-10 1.54933e-14)
(2764.5 -2.46038e-10 1.49027e-14)
(2764.5 -2.39343e-10 1.77228e-14)
(2764.5 -2.32758e-10 1.52914e-14)
(2764.5 -2.34989e-10 1.37536e-14)
(2764.5 -2.30812e-10 1.34203e-14)
(2764.5 -2.51189e-10 1.62209e-14)
(2764.5 -2.49852e-10 1.56617e-14)
(2764.5 -2.50771e-10 1.43222e-14)
(2764.5 -2.4757e-10 1.31083e-14)
(2764.5 -2.47227e-10 1.26896e-14)
(2764.5 -2.5188e-10 1.44233e-14)
(2764.5 -2.53384e-10 1.51515e-14)
(2764.5 -2.57704e-10 1.38423e-14)
(2764.5 -2.60593e-10 1.39204e-14)
(2764.5 -2.65058e-10 1.44724e-14)
(2764.5 -2.70668e-10 1.23033e-14)
(2764.5 -2.68273e-10 1.22738e-14)
(2764.5 -2.67115e-10 1.18962e-14)
(2764.5 -2.66799e-10 1.25647e-14)
(2764.5 -2.73816e-10 1.2638e-14)
(2764.5 -2.7573e-10 1.22892e-14)
(2764.5 -2.79318e-10 1.25034e-14)
(2764.5 -2.83738e-10 1.27574e-14)
(2764.5 -2.82004e-10 1.4278e-14)
(2764.5 -2.80061e-10 1.48556e-14)
(2764.5 -2.80154e-10 1.39229e-14)
(2764.5 -2.69143e-10 1.23169e-14)
(2764.5 -2.49685e-10 1.36684e-14)
(2764.5 -2.31597e-10 1.447e-14)
(2764.5 -2.29483e-10 1.38781e-14)
(2764.5 -2.19598e-10 1.22689e-14)
(2764.5 -2.08543e-10 1.21316e-14)
(2764.5 -2.05626e-10 1.52309e-14)
(2764.5 -2.06154e-10 1.2513e-14)
(2764.5 -2.03952e-10 1.1725e-14)
(2764.5 -2.15704e-10 1.35829e-14)
(2764.5 -2.265e-10 1.079e-14)
(2764.5 -2.37347e-10 1.23093e-14)
(2764.5 -2.47652e-10 1.20748e-14)
(2764.5 -2.55368e-10 1.27539e-14)
(2764.5 -2.66877e-10 1.62433e-14)
(2764.5 -2.71299e-10 1.40412e-14)
(2764.5 -2.70414e-10 1.28794e-14)
(2764.5 -2.67081e-10 1.38182e-14)
(2764.5 -2.57548e-10 1.37849e-14)
(2764.5 -2.48141e-10 1.29684e-14)
(2764.5 -2.38442e-10 1.4508e-14)
(2764.5 -2.4054e-10 1.0231e-14)
(2764.5 -2.3661e-10 1.09826e-14)
(2764.5 -2.24093e-10 1.23932e-14)
(2764.5 -2.19371e-10 1.18524e-14)
(2764.5 -2.15364e-10 1.09521e-14)
(2764.5 -2.2253e-10 1.06945e-14)
(2764.5 -2.16264e-10 9.80096e-15)
(2764.5 -2.00473e-10 9.88469e-15)
(2764.5 -1.86937e-10 9.9778e-15)
(2764.5 -1.82237e-10 1.00623e-14)
(2764.5 -1.72793e-10 1.10242e-14)
(2764.5 -1.77174e-10 1.25393e-14)
(2764.5 -1.91169e-10 1.22701e-14)
(2764.5 -2.09187e-10 1.03992e-14)
(2764.5 -2.35906e-10 9.22363e-15)
(2764.5 -2.63222e-10 9.93764e-15)
(2764.5 -2.77688e-10 9.80569e-15)
(2764.5 -2.82693e-10 1.05453e-14)
(2764.5 -2.7401e-10 1.11116e-14)
(2764.5 -2.72717e-10 1.20817e-14)
(2764.5 -2.82552e-10 1.15668e-14)
(2764.5 -2.89106e-10 1.11458e-14)
(2764.5 -2.84923e-10 1.18448e-14)
(2764.5 -2.69538e-10 1.1787e-14)
(2764.5 -2.51369e-10 1.24418e-14)
(2764.5 -2.33294e-10 1.04274e-14)
(2764.5 -2.14599e-10 1.07914e-14)
(2764.5 -2.02605e-10 9.74027e-15)
(2764.5 -1.82191e-10 9.75249e-15)
(2764.5 -1.74142e-10 8.76864e-15)
(2764.5 -1.73987e-10 9.7534e-15)
(2764.5 -1.8083e-10 1.07024e-14)
(2764.5 -1.81802e-10 1.04315e-14)
(2764.5 -1.78515e-10 9.80471e-15)
(2764.5 -1.88939e-10 1.14362e-14)
(2764.5 -1.90853e-10 1.12005e-14)
(2764.5 -1.93903e-10 1.09562e-14)
(2764.5 -2.13573e-10 8.06264e-15)
(2764.5 -2.20709e-10 8.65105e-15)
(2764.5 -2.39566e-10 9.15669e-15)
(2764.5 -2.7673e-10 8.0325e-15)
(2764.5 -2.98648e-10 8.31495e-15)
(2764.5 -3.1635e-10 8.5257e-15)
(2764.5 -3.22925e-10 7.2967e-15)
(2764.5 -3.1473e-10 1.09967e-14)
(2764.5 -3.0658e-10 9.7339e-15)
(2764.5 -3.14445e-10 9.15254e-15)
(2764.5 -3.10535e-10 1.22786e-14)
(2764.5 -3.02737e-10 1.30631e-14)
(2764.5 -2.80711e-10 1.00676e-14)
(2764.5 -2.65456e-10 1.24202e-14)
(2764.5 -2.43311e-10 1.10859e-14)
(2764.5 -2.19463e-10 1.00787e-14)
(2764.5 -1.87302e-10 9.66333e-15)
(2764.5 -1.62294e-10 1.11455e-14)
(2764.5 -1.26424e-10 1.02822e-14)
(2764.5 -9.62742e-11 9.70918e-15)
(2764.5 -7.53696e-11 1.08029e-14)
(2764.5 -5.36373e-11 1.05845e-14)
(2764.5 -4.09556e-11 1.02275e-14)
(2764.5 -4.24203e-11 9.21949e-15)
(2764.5 -3.13678e-11 7.91834e-15)
(2764.5 -2.7918e-11 8.87107e-15)
(2764.5 -4.66429e-11 8.72181e-15)
(2764.5 -9.4239e-11 9.40869e-15)
(2764.5 -1.67062e-10 9.00971e-15)
(2764.5 -2.40407e-10 7.93693e-15)
(2764.5 -3.87192e-10 3.32313e-14)
(2764.5 -3.865e-10 3.50227e-14)
(2764.5 -3.83648e-10 3.79018e-14)
(2764.5 -3.80614e-10 3.87372e-14)
(2764.5 -3.76082e-10 3.5463e-14)
(2764.5 -3.66773e-10 3.37623e-14)
(2764.5 -3.52684e-10 3.61636e-14)
(2764.5 -3.371e-10 3.61847e-14)
(2764.5 -3.24099e-10 3.50468e-14)
(2764.5 -3.18234e-10 3.76123e-14)
(2764.5 -3.15678e-10 3.91559e-14)
(2764.5 -3.24238e-10 3.47926e-14)
(2764.5 -3.34834e-10 3.57319e-14)
(2764.5 -3.55888e-10 3.46867e-14)
(2764.5 -3.76645e-10 3.39014e-14)
(2764.5 -3.31556e-10 2.57578e-14)
(2764.5 -3.34456e-10 2.46525e-14)
(2764.5 -3.36872e-10 2.35466e-14)
(2764.5 -3.38543e-10 2.32505e-14)
(2764.5 -3.44686e-10 2.33957e-14)
(2764.5 -3.44664e-10 2.23058e-14)
(2764.5 -3.45585e-10 2.28986e-14)
(2764.5 -3.48137e-10 2.41322e-14)
(2764.5 -3.4563e-10 2.37192e-14)
(2764.5 -3.40592e-10 2.48099e-14)