/*--------------------------------*- C++ -*----------------------------------*\
| =========                 |                                                 |
| \\      /  F ield         | OpenFOAM: The Open Source CFD Toolbox           |
|  \\    /   O peration     | Version:  v1706                                 |
|   \\  /    A nd           | Web:      www.OpenFOAM.com                      |
|    \\/     M anipulation  |                                                 |
\*---------------------------------------------------------------------------*/
FoamFile
{
    version     2.0;
    format      ascii;
    class       volScalarField;
    location    "1.1e-05";
    object      wallHeatFlux;
}
// * * * * * * * * * * * * * * * * * * * * * * * * * * * * * * * * * * * * * //

dimensions      [1 0 -3 0 0 0 0];


internalField   uniform 0;

boundaryField
{
    cone
    {
        type            calculated;
        value           nonuniform List<scalar> 
119
(
67830.9
68063.8
68356
68701.5
69094.6
69529.9
70003.1
70510.3
71048.8
71616.5
72212.4
72836
73487.6
74167.6
74877
75616.7
76387.9
77191.3
78027.7
78897.8
79801.8
80740
81712.4
82718.9
83759.5
84834.1
85942.7
87085.5
88262.7
89474.8
90722.4
92006.1
93326.9
94685.8
96083.6
97521.6
99000.9
100523
102088
103698
105353
107056
108806
110606
112456
114357
116310
118317
120378
122494
124667
126897
129186
131534
133942
136412
138943
141537
144195
146916
149703
152554
155472
158456
161507
164625
167811
171064
174385
177774
181230
184753
188343
191999
195721
199507
203358
207273
211251
215290
219392
223553
227775
232056
236396
240794
245250
249764
254337
258969
263660
268413
273229
278110
283059
288080
293176
298351
303609
308956
314398
319942
325599
331381
337309
343413
349734
356331
363271
370615
378406
386540
394866
402641
409375
414694
419286
427850
439868
)
;
    }
    inlet
    {
        type            calculated;
        value           uniform 0;
    }
    rWedge
    {
        type            wedge;
    }
    lWedge
    {
        type            wedge;
    }
    outlet
    {
        type            calculated;
        value           uniform 0;
    }
    procBoundary0to1
    {
        type            processor;
        value           uniform 0;
    }
    procBoundary0to2
    {
        type            processor;
        value           uniform 0;
    }
}


// ************************************************************************* //
