/*--------------------------------*- C++ -*----------------------------------*\
| =========                 |                                                 |
| \\      /  F ield         | OpenFOAM: The Open Source CFD Toolbox           |
|  \\    /   O peration     | Version:  v1706                                 |
|   \\  /    A nd           | Web:      www.OpenFOAM.com                      |
|    \\/     M anipulation  |                                                 |
\*---------------------------------------------------------------------------*/
FoamFile
{
    version     2.0;
    format      ascii;
    class       volVectorField;
    location    "3e-06";
    object      U;
}
// * * * * * * * * * * * * * * * * * * * * * * * * * * * * * * * * * * * * * //

dimensions      [0 1 -1 0 0 0 0];


internalField   nonuniform List<vector> 
29987
(
(2764.5 -2.0878e-08 4.07878e-11)
(2764.5 -6.55878e-09 1.19971e-11)
(2764.5 -3.16331e-09 5.80143e-12)
(2764.5 -1.95827e-09 3.48341e-12)
(2764.5 -1.33416e-09 2.32309e-12)
(2764.5 -9.64763e-10 1.68594e-12)
(2764.5 -7.30644e-10 1.28097e-12)
(2764.5 -5.72296e-10 1.00244e-12)
(2764.5 -4.61706e-10 8.11325e-13)
(2764.5 -3.79947e-10 6.89199e-13)
(2764.5 -3.19566e-10 5.11232e-13)
(2764.5 -2.73558e-10 4.57416e-13)
(2764.5 -2.37166e-10 4.23407e-13)
(2764.5 -2.06328e-10 3.50291e-13)
(2764.5 -1.82597e-10 3.11042e-13)
(2764.5 -1.65232e-10 2.59718e-13)
(2764.5 -1.45952e-10 2.21588e-13)
(2764.5 -1.33087e-10 1.95197e-13)
(2764.5 -1.20619e-10 1.85247e-13)
(2764.5 -1.12271e-10 1.73718e-13)
(2764.5 -1.03156e-10 1.69467e-13)
(2764.5 -9.37248e-11 1.39443e-13)
(2764.5 -8.98286e-11 1.32547e-13)
(2764.5 -8.19243e-11 1.17474e-13)
(2764.5 -7.86621e-11 1.16921e-13)
(2764.5 -7.13623e-11 1.14101e-13)
(2764.5 -6.61108e-11 9.10154e-14)
(2764.5 -6.58908e-11 7.95199e-14)
(2764.5 -6.01845e-11 8.70756e-14)
(2764.5 -5.63592e-11 7.97489e-14)
(2764.5 -5.26239e-11 8.71701e-14)
(2764.5 -5.4552e-11 7.46454e-14)
(2764.5 -4.85982e-11 6.68605e-14)
(2764.5 -4.79362e-11 6.16664e-14)
(2764.5 -4.50995e-11 6.45477e-14)
(2764.5 -4.68067e-11 5.4123e-14)
(2764.5 -4.23701e-11 5.2908e-14)
(2764.5 -4.10081e-11 4.23898e-14)
(2764.5 -3.94499e-11 3.90603e-14)
(2764.5 -4.01331e-11 4.8031e-14)
(2764.5 -3.6202e-11 3.84607e-14)
(2764.5 -3.65358e-11 3.93225e-14)
(2764.5 -3.58253e-11 4.47646e-14)
(2764.5 -3.53232e-11 4.03372e-14)
(2764.5 -3.4573e-11 3.85677e-14)
(2764.5 -3.21201e-11 3.25857e-14)
(2764.5 -3.34017e-11 4.31616e-14)
(2764.5 -3.39246e-11 2.99594e-14)
(2764.5 -2.99897e-11 2.8397e-14)
(2764.5 -3.0916e-11 3.37209e-14)
(2764.5 -3.19021e-11 3.2047e-14)
(2764.5 -3.03045e-11 3.01013e-14)
(2764.5 -2.91967e-11 2.80891e-14)
(2764.5 -2.92655e-11 2.90516e-14)
(2764.5 -2.95619e-11 2.96706e-14)
(2764.5 -3.00477e-11 2.32287e-14)
(2764.5 -2.71377e-11 2.09269e-14)
(2764.5 -2.8991e-11 2.05585e-14)
(2764.5 -3.05584e-11 1.99388e-14)
(2764.5 -2.89835e-11 2.45979e-14)
(2764.5 -3.02902e-11 2.51357e-14)
(2764.5 -2.65818e-11 1.29231e-14)
(2764.5 -2.71846e-11 1.90397e-14)
(2764.5 -2.70118e-11 2.21672e-14)
(2764.5 -2.59593e-11 1.73479e-14)
(2764.5 -2.7016e-11 1.47659e-14)
(2764.5 -2.65886e-11 1.60802e-14)
(2764.5 -2.60229e-11 1.77942e-14)
(2764.5 -2.639e-11 1.85182e-14)
(2764.5 -2.63914e-11 1.70566e-14)
(2764.5 -2.56534e-11 1.33013e-14)
(2764.5 -2.40728e-11 1.52477e-14)
(2764.5 -2.48189e-11 1.39927e-14)
(2764.5 -2.40891e-11 1.48678e-14)
(2764.5 -2.57301e-11 1.86191e-14)
(2764.5 -2.61261e-11 1.58259e-14)
(2764.5 -2.37144e-11 1.44457e-14)
(2764.5 -2.22796e-11 1.62126e-14)
(2764.5 -2.28154e-11 1.12368e-14)
(2764.5 -2.16438e-11 8.00478e-15)
(2764.5 -2.02758e-11 1.17528e-14)
(2764.5 -2.27284e-11 1.12518e-14)
(2764.5 -2.41055e-11 7.36243e-15)
(2764.5 -2.26863e-11 1.0196e-14)
(2764.5 -2.14053e-11 1.14982e-14)
(2764.5 -2.20314e-11 1.0166e-14)
(2764.5 -2.18508e-11 9.57102e-15)
(2764.5 -2.26314e-11 9.41343e-15)
(2764.5 -2.20843e-11 1.27236e-14)
(2764.5 -2.38879e-11 9.78467e-15)
(2764.5 -2.33969e-11 7.53125e-15)
(2764.5 -2.41035e-11 6.89593e-15)
(2764.5 -2.35509e-11 1.09518e-14)
(2764.5 -2.48031e-11 1.30147e-14)
(2764.5 -2.66527e-11 1.35262e-14)
(2764.5 -2.56087e-11 1.13157e-14)
(2764.5 -2.48975e-11 7.31461e-15)
(2764.5 -2.47082e-11 1.09097e-14)
(2764.5 -2.56481e-11 1.22309e-14)
(2764.5 -2.67053e-11 7.95289e-15)
(2764.5 -2.67124e-11 6.4369e-15)
(2764.5 -2.64511e-11 1.28552e-14)
(2764.5 -2.55546e-11 1.28788e-14)
(2764.5 -2.44897e-11 9.01119e-15)
(2764.5 -2.44469e-11 1.01407e-14)
(2764.5 -2.44975e-11 9.04931e-15)
(2764.5 -2.36417e-11 7.02903e-15)
(2764.5 -2.20935e-11 6.77592e-15)
(2764.5 -2.03779e-11 8.83231e-15)
(2764.5 -2.05992e-11 6.87402e-15)
(2764.5 -2.1972e-11 7.70157e-15)
(2764.5 -2.3227e-11 7.01545e-15)
(2764.5 -2.33357e-11 8.81224e-15)
(2764.5 -2.39348e-11 7.59092e-15)
(2764.5 -2.5602e-11 9.24505e-15)
(2764.5 -2.67751e-11 7.12856e-15)
(2764.5 -2.85162e-11 8.53671e-15)
(2764.5 -2.83137e-11 1.13095e-14)
(2764.5 -2.94532e-11 1.08597e-14)
(2764.5 -3.15639e-11 7.26881e-15)
(2764.5 -3.31003e-11 8.18528e-15)
(2764.5 -3.38164e-11 9.21408e-15)
(2764.5 -3.25237e-11 7.40972e-15)
(2764.5 -3.31697e-11 8.64651e-15)
(2764.5 -3.16898e-11 9.08654e-15)
(2764.5 -3.04715e-11 7.84575e-15)
(2764.5 -2.80499e-11 9.22658e-15)
(2764.5 -2.67792e-11 8.44475e-15)
(2764.5 -2.63404e-11 9.35156e-15)
(2764.5 -2.6183e-11 7.73731e-15)
(2764.5 -2.49917e-11 1.12988e-14)
(2764.5 -2.44416e-11 1.04974e-14)
(2764.5 -2.5628e-11 5.79509e-15)
(2764.5 -2.73644e-11 4.96925e-15)
(2764.5 -2.74384e-11 6.24435e-15)
(2764.5 -3.07438e-11 5.02394e-15)
(2764.5 -3.25703e-11 7.6106e-15)
(2764.5 -3.63891e-11 8.85888e-15)
(2764.5 -4.14315e-11 5.23985e-15)
(2764.5 -4.08433e-11 9.32972e-15)
(2764.5 -3.87503e-11 1.82748e-15)
(2764.5 -4.04159e-11 4.43793e-15)
(2764.5 -4.01748e-11 6.37008e-15)
(2764.5 -3.81618e-11 5.83499e-15)
(2764.5 -2.89603e-11 7.71884e-15)
(2764.5 -1.84625e-11 7.95414e-15)
(2764.5 -1.20279e-11 9.91274e-15)
(2764.5 -1.27392e-11 8.84484e-15)
(2764.5 -1.70495e-11 5.49821e-15)
(2764.5 -1.81513e-11 4.95396e-15)
(2764.5 -2.75973e-11 4.28583e-15)
(2764.5 -4.16053e-11 4.30972e-15)
(2764.5 -5.12352e-11 4.62295e-15)
(2764.5 -6.37308e-11 7.06323e-15)
(2764.5 -7.06864e-11 6.27588e-15)
(2764.5 -7.55601e-11 8.32972e-15)
(2764.5 -6.69535e-08 1.1781e-10)
(2764.5 -2.47856e-08 4.14547e-11)
(2764.5 -1.13558e-08 1.87943e-11)
(2764.5 -6.60193e-09 1.10981e-11)
(2764.5 -4.38908e-09 7.38967e-12)
(2764.5 -3.14649e-09 5.31555e-12)
(2764.5 -2.37138e-09 3.98374e-12)
(2764.5 -1.85519e-09 3.08852e-12)
(2764.5 -1.49697e-09 2.49298e-12)
(2764.5 -1.23411e-09 2.01624e-12)
(2764.5 -1.03049e-09 1.60878e-12)
(2764.5 -8.75134e-10 1.42173e-12)
(2764.5 -7.57112e-10 1.19797e-12)
(2764.5 -6.58254e-10 1.04943e-12)
(2764.5 -5.81198e-10 8.90448e-13)
(2764.5 -5.30751e-10 8.28695e-13)
(2764.5 -4.69128e-10 7.02907e-13)
(2764.5 -4.25671e-10 6.3277e-13)
(2764.5 -3.84691e-10 5.85726e-13)
(2764.5 -3.54986e-10 5.25111e-13)
(2764.5 -3.27216e-10 4.90101e-13)
(2764.5 -3.00272e-10 4.18784e-13)
(2764.5 -2.78396e-10 3.95349e-13)
(2764.5 -2.56958e-10 3.55843e-13)
(2764.5 -2.48361e-10 3.38696e-13)
(2764.5 -2.3139e-10 3.32626e-13)
(2764.5 -2.11313e-10 2.92045e-13)
(2764.5 -2.06006e-10 2.65515e-13)
(2764.5 -1.94915e-10 2.68385e-13)
(2764.5 -1.85363e-10 2.49456e-13)
(2764.5 -1.71604e-10 2.18845e-13)
(2764.5 -1.63034e-10 2.19281e-13)
(2764.5 -1.57563e-10 1.78451e-13)
(2764.5 -1.56078e-10 1.67652e-13)
(2764.5 -1.44467e-10 1.72227e-13)
(2764.5 -1.44184e-10 1.68144e-13)
(2764.5 -1.38852e-10 1.58229e-13)
(2764.5 -1.31709e-10 1.49811e-13)
(2764.5 -1.25151e-10 1.38816e-13)
(2764.5 -1.23534e-10 1.31171e-13)
(2764.5 -1.17473e-10 1.12073e-13)
(2764.5 -1.17968e-10 1.16943e-13)
(2764.5 -1.17129e-10 1.27326e-13)
(2764.5 -1.13608e-10 1.14515e-13)
(2764.5 -1.09406e-10 9.17306e-14)
(2764.5 -1.00873e-10 1.06608e-13)
(2764.5 -1.02225e-10 1.0483e-13)
(2764.5 -1.02554e-10 8.8401e-14)
(2764.5 -9.91226e-11 8.9622e-14)
(2764.5 -9.7417e-11 9.78526e-14)
(2764.5 -9.58912e-11 9.64799e-14)
(2764.5 -1.00465e-10 8.37744e-14)
(2764.5 -9.33574e-11 8.11032e-14)
(2764.5 -8.88327e-11 6.84181e-14)
(2764.5 -8.75103e-11 7.07457e-14)
(2764.5 -8.96929e-11 6.2778e-14)
(2764.5 -8.3381e-11 6.30138e-14)
(2764.5 -8.09693e-11 6.33994e-14)
(2764.5 -8.27592e-11 7.1388e-14)
(2764.5 -8.43006e-11 7.17434e-14)
(2764.5 -8.5184e-11 6.14074e-14)
(2764.5 -8.15864e-11 4.51346e-14)
(2764.5 -8.32957e-11 6.4872e-14)
(2764.5 -7.63007e-11 5.92099e-14)
(2764.5 -7.35775e-11 5.24751e-14)
(2764.5 -7.5579e-11 5.3507e-14)
(2764.5 -7.34367e-11 4.45851e-14)
(2764.5 -7.33558e-11 4.89967e-14)
(2764.5 -7.39206e-11 5.39094e-14)
(2764.5 -7.18484e-11 4.67273e-14)
(2764.5 -7.53041e-11 4.77458e-14)
(2764.5 -7.3039e-11 4.95553e-14)
(2764.5 -7.2626e-11 4.43947e-14)
(2764.5 -6.86799e-11 4.56356e-14)
(2764.5 -6.65258e-11 4.9527e-14)
(2764.5 -7.09125e-11 5.13137e-14)
(2764.5 -7.46959e-11 4.60873e-14)
(2764.5 -7.52321e-11 4.55338e-14)
(2764.5 -7.44636e-11 3.10563e-14)
(2764.5 -7.31515e-11 2.80914e-14)
(2764.5 -6.9355e-11 3.51067e-14)
(2764.5 -7.0008e-11 3.34334e-14)
(2764.5 -7.45009e-11 3.04752e-14)
(2764.5 -7.65456e-11 3.8696e-14)
(2764.5 -7.63619e-11 4.49706e-14)
(2764.5 -7.64047e-11 4.12561e-14)
(2764.5 -7.53773e-11 3.41286e-14)
(2764.5 -7.49187e-11 4.02596e-14)
(2764.5 -7.41878e-11 3.8724e-14)
(2764.5 -7.46647e-11 2.83807e-14)
(2764.5 -7.45523e-11 3.14238e-14)
(2764.5 -7.6655e-11 2.68705e-14)
(2764.5 -7.27457e-11 3.38558e-14)
(2764.5 -6.94891e-11 3.52452e-14)
(2764.5 -6.79516e-11 3.93138e-14)
(2764.5 -7.05945e-11 3.10036e-14)
(2764.5 -6.98472e-11 2.55311e-14)
(2764.5 -6.49484e-11 2.77938e-14)
(2764.5 -6.35801e-11 2.69015e-14)
(2764.5 -6.44035e-11 2.54789e-14)
(2764.5 -6.626e-11 2.60393e-14)
(2764.5 -6.79366e-11 2.75327e-14)
(2764.5 -6.858e-11 3.00151e-14)
(2764.5 -6.95963e-11 2.05504e-14)
(2764.5 -7.01367e-11 2.12702e-14)
(2764.5 -7.36945e-11 1.99437e-14)
(2764.5 -7.6402e-11 2.14657e-14)
(2764.5 -7.87973e-11 2.09094e-14)
(2764.5 -7.96277e-11 1.80411e-14)
(2764.5 -7.89676e-11 1.98959e-14)
(2764.5 -8.12224e-11 2.35989e-14)
(2764.5 -8.2837e-11 2.23361e-14)
(2764.5 -8.54933e-11 2.26007e-14)
(2764.5 -8.37691e-11 2.33485e-14)
(2764.5 -8.43065e-11 2.73138e-14)
(2764.5 -8.36406e-11 2.67159e-14)
(2764.5 -8.43749e-11 2.81744e-14)
(2764.5 -8.23213e-11 2.77647e-14)
(2764.5 -7.90483e-11 2.34522e-14)
(2764.5 -7.45576e-11 1.83639e-14)
(2764.5 -7.1514e-11 2.03534e-14)
(2764.5 -7.08762e-11 2.0988e-14)
(2764.5 -6.77319e-11 2.14096e-14)
(2764.5 -6.71747e-11 2.28627e-14)
(2764.5 -6.75845e-11 2.38831e-14)
(2764.5 -6.99096e-11 2.22103e-14)
(2764.5 -7.18523e-11 2.21658e-14)
(2764.5 -7.65772e-11 2.14001e-14)
(2764.5 -8.15601e-11 2.11416e-14)
(2764.5 -8.94015e-11 2.38806e-14)
(2764.5 -9.8006e-11 2.40067e-14)
(2764.5 -1.03545e-10 1.82847e-14)
(2764.5 -1.09103e-10 1.82273e-14)
(2764.5 -1.13109e-10 2.08183e-14)
(2764.5 -1.14509e-10 2.05008e-14)
(2764.5 -1.10214e-10 2.03929e-14)
(2764.5 -1.07137e-10 2.44285e-14)
(2764.5 -9.10417e-11 1.74517e-14)
(2764.5 -7.7804e-11 1.8613e-14)
(2764.5 -7.01361e-11 2.49981e-14)
(2764.5 -5.26218e-11 1.60529e-14)
(2764.5 -5.11767e-11 2.0365e-14)
(2764.5 -5.23686e-11 1.92987e-14)
(2764.5 -5.65355e-11 2.02075e-14)
(2764.5 -6.82674e-11 1.74833e-14)
(2764.5 -9.21104e-11 2.14232e-14)
(2764.5 -1.10141e-10 2.04672e-14)
(2764.5 -1.37312e-10 2.19266e-14)
(2764.5 -1.52106e-10 2.20191e-14)
(2764.5 -1.65648e-10 2.00102e-14)
(2764.5 -1.69681e-10 1.73532e-14)
(2764.5 -1.61586e-10 1.53336e-14)
(2764.5 -1.40195e-10 1.7054e-14)
(2764.5 -1.11754e-10 1.89338e-14)
(2764.5 -6.99192e-11 1.74169e-14)
(2764.5 -2.79789e-11 2.00898e-14)
(2764.5 -1.06276e-07 1.82038e-10)
(2764.5 -4.53311e-08 7.33676e-11)
(2764.5 -2.12566e-08 3.34883e-11)
(2764.5 -1.20405e-08 1.91973e-11)
(2764.5 -7.8476e-09 1.25144e-11)
(2764.5 -5.57042e-09 8.87055e-12)
(2764.5 -4.18311e-09 6.69697e-12)
(2764.5 -3.26744e-09 5.15554e-12)
(2764.5 -2.62301e-09 4.15141e-12)
(2764.5 -2.15986e-09 3.35417e-12)
(2764.5 -1.80536e-09 2.79765e-12)
(2764.5 -1.53203e-09 2.39933e-12)
(2764.5 -1.31858e-09 2.02662e-12)
(2764.5 -1.15171e-09 1.75087e-12)
(2764.5 -1.01756e-09 1.53825e-12)
(2764.5 -9.21799e-10 1.36644e-12)
(2764.5 -8.20565e-10 1.16171e-12)
(2764.5 -7.40305e-10 1.07533e-12)
(2764.5 -6.7096e-10 9.64184e-13)
(2764.5 -6.15969e-10 8.97217e-13)
(2764.5 -5.69616e-10 8.00187e-13)
(2764.5 -5.26569e-10 6.88707e-13)
(2764.5 -4.8534e-10 6.70951e-13)
(2764.5 -4.51346e-10 6.05111e-13)
(2764.5 -4.29921e-10 5.93094e-13)
(2764.5 -4.00471e-10 5.52079e-13)
(2764.5 -3.74736e-10 5.23539e-13)
(2764.5 -3.55489e-10 4.72122e-13)
(2764.5 -3.38599e-10 4.24693e-13)
(2764.5 -3.20406e-10 4.07705e-13)
(2764.5 -3.02558e-10 3.61431e-13)
(2764.5 -2.90905e-10 3.6615e-13)
(2764.5 -2.74347e-10 3.17311e-13)
(2764.5 -2.65988e-10 3.18785e-13)
(2764.5 -2.55433e-10 3.09694e-13)
(2764.5 -2.49406e-10 2.76673e-13)
(2764.5 -2.42025e-10 2.59769e-13)
(2764.5 -2.30859e-10 2.59444e-13)
(2764.5 -2.1947e-10 2.50522e-13)
(2764.5 -2.12065e-10 2.22725e-13)
(2764.5 -2.04129e-10 2.12558e-13)
(2764.5 -1.99172e-10 2.07437e-13)
(2764.5 -2.02009e-10 2.10159e-13)
(2764.5 -1.93488e-10 1.95612e-13)
(2764.5 -1.85722e-10 1.67999e-13)
(2764.5 -1.7756e-10 1.76931e-13)
(2764.5 -1.73982e-10 1.74989e-13)
(2764.5 -1.70804e-10 1.7221e-13)
(2764.5 -1.63249e-10 1.63087e-13)
(2764.5 -1.61157e-10 1.7456e-13)
(2764.5 -1.55626e-10 1.55583e-13)
(2764.5 -1.60869e-10 1.42433e-13)
(2764.5 -1.57016e-10 1.33925e-13)
(2764.5 -1.50008e-10 1.29617e-13)
(2764.5 -1.45673e-10 1.23371e-13)
(2764.5 -1.43844e-10 1.19895e-13)
(2764.5 -1.42631e-10 1.118e-13)
(2764.5 -1.35569e-10 1.06481e-13)
(2764.5 -1.32594e-10 1.19063e-13)
(2764.5 -1.3507e-10 1.1477e-13)
(2764.5 -1.36803e-10 1.0685e-13)
(2764.5 -1.35395e-10 1.097e-13)
(2764.5 -1.37455e-10 1.03748e-13)
(2764.5 -1.31721e-10 8.44013e-14)
(2764.5 -1.29318e-10 9.25013e-14)
(2764.5 -1.27198e-10 8.92176e-14)
(2764.5 -1.26546e-10 7.76349e-14)
(2764.5 -1.23283e-10 9.00788e-14)
(2764.5 -1.22701e-10 8.26912e-14)
(2764.5 -1.24534e-10 7.84965e-14)
(2764.5 -1.29494e-10 7.68558e-14)
(2764.5 -1.31099e-10 7.782e-14)
(2764.5 -1.28858e-10 7.352e-14)
(2764.5 -1.25232e-10 7.4591e-14)
(2764.5 -1.23765e-10 7.99538e-14)
(2764.5 -1.23712e-10 8.10524e-14)
(2764.5 -1.30356e-10 6.63877e-14)
(2764.5 -1.3015e-10 6.72494e-14)
(2764.5 -1.30262e-10 6.75787e-14)
(2764.5 -1.29366e-10 6.57414e-14)
(2764.5 -1.23387e-10 6.35836e-14)
(2764.5 -1.244e-10 5.81466e-14)
(2764.5 -1.24626e-10 5.41017e-14)
(2764.5 -1.23688e-10 5.63391e-14)
(2764.5 -1.22858e-10 5.82232e-14)
(2764.5 -1.209e-10 5.58993e-14)
(2764.5 -1.21391e-10 6.01346e-14)
(2764.5 -1.17667e-10 6.66756e-14)
(2764.5 -1.13384e-10 5.83666e-14)
(2764.5 -1.11995e-10 5.53384e-14)
(2764.5 -1.10648e-10 5.14172e-14)
(2764.5 -1.13463e-10 4.95365e-14)
(2764.5 -1.10334e-10 5.81581e-14)
(2764.5 -1.09495e-10 6.23086e-14)
(2764.5 -1.0827e-10 6.31814e-14)
(2764.5 -1.10568e-10 4.75816e-14)
(2764.5 -1.10913e-10 4.0834e-14)
(2764.5 -1.11424e-10 4.46859e-14)
(2764.5 -1.10838e-10 4.83168e-14)
(2764.5 -1.11761e-10 4.80654e-14)
(2764.5 -1.178e-10 4.18945e-14)
(2764.5 -1.2332e-10 4.80663e-14)
(2764.5 -1.25021e-10 4.98164e-14)
(2764.5 -1.29535e-10 4.1595e-14)
(2764.5 -1.3361e-10 4.77903e-14)
(2764.5 -1.37041e-10 4.36055e-14)
(2764.5 -1.40066e-10 3.97194e-14)
(2764.5 -1.43448e-10 3.5616e-14)
(2764.5 -1.41738e-10 3.76252e-14)
(2764.5 -1.3659e-10 4.15392e-14)
(2764.5 -1.34768e-10 3.59699e-14)
(2764.5 -1.31549e-10 3.62922e-14)
(2764.5 -1.2828e-10 3.57654e-14)
(2764.5 -1.21165e-10 3.89308e-14)
(2764.5 -1.15482e-10 3.92113e-14)
(2764.5 -1.1129e-10 4.5235e-14)
(2764.5 -1.08046e-10 4.5828e-14)
(2764.5 -1.06422e-10 4.63142e-14)
(2764.5 -1.06565e-10 3.8249e-14)
(2764.5 -1.07285e-10 3.67793e-14)
(2764.5 -1.10421e-10 3.77383e-14)
(2764.5 -1.14623e-10 3.74702e-14)
(2764.5 -1.2169e-10 3.59282e-14)
(2764.5 -1.34493e-10 3.15737e-14)
(2764.5 -1.45497e-10 3.31649e-14)
(2764.5 -1.5302e-10 3.48132e-14)
(2764.5 -1.59423e-10 3.40384e-14)
(2764.5 -1.65926e-10 3.45031e-14)
(2764.5 -1.69537e-10 4.03222e-14)
(2764.5 -1.7097e-10 3.9397e-14)
(2764.5 -1.69118e-10 3.42876e-14)
(2764.5 -1.6428e-10 3.75012e-14)
(2764.5 -1.54536e-10 4.33606e-14)
(2764.5 -1.37124e-10 3.26226e-14)
(2764.5 -1.20651e-10 3.75733e-14)
(2764.5 -1.09751e-10 2.88296e-14)
(2764.5 -1.01482e-10 2.70324e-14)
(2764.5 -9.14612e-11 3.29616e-14)
(2764.5 -9.66477e-11 4.0105e-14)
(2764.5 -1.11171e-10 3.25874e-14)
(2764.5 -1.40972e-10 2.48169e-14)
(2764.5 -1.56613e-10 2.60462e-14)
(2764.5 -1.78276e-10 2.87637e-14)
(2764.5 -2.10953e-10 2.99371e-14)
(2764.5 -2.41446e-10 3.18663e-14)
(2764.5 -2.56011e-10 2.9874e-14)
(2764.5 -2.59407e-10 3.10468e-14)
(2764.5 -2.35766e-10 3.38162e-14)
(2764.5 -1.94359e-10 3.64311e-14)
(2764.5 -1.43066e-10 3.32054e-14)
(2764.5 -9.17412e-11 3.29984e-14)
(2764.5 -3.60004e-11 3.1932e-14)
(2764.5 1.06921e-12 3.14705e-14)
(2764.5 -2.1922e-12 2.56867e-14)
(2764.5 -3.51468e-11 3.24292e-14)
(2764.5 -9.89724e-11 3.19285e-14)
(2764.5 -1.37734e-07 2.3337e-10)
(2764.5 -6.64036e-08 1.05173e-10)
(2764.5 -3.25707e-08 4.94521e-11)
(2764.5 -1.83216e-08 2.76837e-11)
(2764.5 -1.17509e-08 1.77922e-11)
(2764.5 -8.256e-09 1.25201e-11)
(2764.5 -6.16566e-09 9.4108e-12)
(2764.5 -4.80649e-09 7.2884e-12)
(2764.5 -3.85615e-09 5.83001e-12)
(2764.5 -3.16068e-09 4.77963e-12)
(2764.5 -2.63911e-09 3.89877e-12)
(2764.5 -2.24408e-09 3.35909e-12)
(2764.5 -1.93699e-09 2.8713e-12)
(2764.5 -1.68852e-09 2.49493e-12)
(2764.5 -1.48829e-09 2.24287e-12)
(2764.5 -1.33763e-09 1.9169e-12)
(2764.5 -1.19757e-09 1.68316e-12)
(2764.5 -1.07628e-09 1.50636e-12)
(2764.5 -9.80993e-10 1.32632e-12)
(2764.5 -9.0038e-10 1.25909e-12)
(2764.5 -8.30823e-10 1.11107e-12)
(2764.5 -7.65912e-10 1.02206e-12)
(2764.5 -7.10494e-10 9.53112e-13)
(2764.5 -6.63193e-10 8.76174e-13)
(2764.5 -6.2103e-10 8.09284e-13)
(2764.5 -5.80389e-10 7.51875e-13)
(2764.5 -5.46078e-10 7.04883e-13)
(2764.5 -5.17746e-10 6.42351e-13)
(2764.5 -4.8495e-10 6.13113e-13)
(2764.5 -4.60202e-10 5.65835e-13)
(2764.5 -4.35254e-10 5.35162e-13)
(2764.5 -4.18659e-10 5.08213e-13)
(2764.5 -3.9282e-10 4.95149e-13)
(2764.5 -3.78376e-10 4.58065e-13)
(2764.5 -3.70467e-10 4.34024e-13)
(2764.5 -3.58294e-10 4.00752e-13)
(2764.5 -3.41654e-10 3.78146e-13)
(2764.5 -3.27844e-10 3.42292e-13)
(2764.5 -3.13059e-10 3.49923e-13)
(2764.5 -3.02761e-10 3.18427e-13)
(2764.5 -2.91187e-10 3.10522e-13)
(2764.5 -2.79492e-10 2.87241e-13)
(2764.5 -2.76145e-10 2.84883e-13)
(2764.5 -2.68398e-10 2.64992e-13)
(2764.5 -2.63235e-10 2.67954e-13)
(2764.5 -2.51322e-10 2.45874e-13)
(2764.5 -2.4412e-10 2.50395e-13)
(2764.5 -2.39503e-10 2.38661e-13)
(2764.5 -2.29907e-10 2.38485e-13)
(2764.5 -2.27486e-10 2.308e-13)
(2764.5 -2.19683e-10 2.07984e-13)
(2764.5 -2.20608e-10 2.04031e-13)
(2764.5 -2.19581e-10 1.92267e-13)
(2764.5 -2.1383e-10 1.8731e-13)
(2764.5 -2.10083e-10 1.69679e-13)
(2764.5 -2.05179e-10 1.74264e-13)
(2764.5 -2.04869e-10 1.6676e-13)
(2764.5 -2.01147e-10 1.6018e-13)
(2764.5 -1.93757e-10 1.69668e-13)
(2764.5 -1.93399e-10 1.67345e-13)
(2764.5 -1.9774e-10 1.55979e-13)
(2764.5 -1.98265e-10 1.39891e-13)
(2764.5 -1.99755e-10 1.33598e-13)
(2764.5 -1.95704e-10 1.3209e-13)
(2764.5 -1.94995e-10 1.47419e-13)
(2764.5 -1.8993e-10 1.34182e-13)
(2764.5 -1.8833e-10 1.23352e-13)
(2764.5 -1.88363e-10 1.30103e-13)
(2764.5 -1.82458e-10 1.09265e-13)
(2764.5 -1.84572e-10 1.05065e-13)
(2764.5 -1.89759e-10 1.04707e-13)
(2764.5 -1.88707e-10 1.14637e-13)
(2764.5 -1.88573e-10 1.11534e-13)
(2764.5 -1.84265e-10 1.13357e-13)
(2764.5 -1.79126e-10 1.07739e-13)
(2764.5 -1.77753e-10 1.03407e-13)
(2764.5 -1.77533e-10 1.05305e-13)
(2764.5 -1.75719e-10 1.09214e-13)
(2764.5 -1.72811e-10 1.0242e-13)
(2764.5 -1.72129e-10 9.33143e-14)
(2764.5 -1.65968e-10 8.25497e-14)
(2764.5 -1.62893e-10 9.29288e-14)
(2764.5 -1.60813e-10 8.85704e-14)
(2764.5 -1.5686e-10 8.93926e-14)
(2764.5 -1.5412e-10 8.4476e-14)
(2764.5 -1.52161e-10 8.88427e-14)
(2764.5 -1.53751e-10 8.50317e-14)
(2764.5 -1.52493e-10 8.06857e-14)
(2764.5 -1.51835e-10 7.50513e-14)
(2764.5 -1.53298e-10 7.96955e-14)
(2764.5 -1.53693e-10 7.78369e-14)
(2764.5 -1.5992e-10 7.80259e-14)
(2764.5 -1.6618e-10 8.00622e-14)
(2764.5 -1.68981e-10 8.53074e-14)
(2764.5 -1.7163e-10 7.68331e-14)
(2764.5 -1.78804e-10 7.38319e-14)
(2764.5 -1.79116e-10 7.58992e-14)
(2764.5 -1.83057e-10 6.746e-14)
(2764.5 -1.83364e-10 6.5835e-14)
(2764.5 -1.84623e-10 6.45403e-14)
(2764.5 -1.85427e-10 5.86789e-14)
(2764.5 -1.85425e-10 6.37713e-14)
(2764.5 -1.81804e-10 6.53523e-14)
(2764.5 -1.79415e-10 6.59271e-14)
(2764.5 -1.77412e-10 6.65484e-14)
(2764.5 -1.73466e-10 6.44489e-14)
(2764.5 -1.70268e-10 6.10059e-14)
(2764.5 -1.67367e-10 5.94524e-14)
(2764.5 -1.62702e-10 5.57736e-14)
(2764.5 -1.56372e-10 4.9513e-14)
(2764.5 -1.4974e-10 5.10757e-14)
(2764.5 -1.4608e-10 5.03605e-14)
(2764.5 -1.46054e-10 5.55593e-14)
(2764.5 -1.47444e-10 5.70987e-14)
(2764.5 -1.50045e-10 6.16136e-14)
(2764.5 -1.55964e-10 5.96139e-14)
(2764.5 -1.66229e-10 5.85708e-14)
(2764.5 -1.7754e-10 5.59519e-14)
(2764.5 -1.89861e-10 5.0619e-14)
(2764.5 -1.99151e-10 5.31817e-14)
(2764.5 -2.0839e-10 5.41502e-14)
(2764.5 -2.16495e-10 5.31815e-14)
(2764.5 -2.20053e-10 4.84102e-14)
(2764.5 -2.22232e-10 4.99925e-14)
(2764.5 -2.20552e-10 5.52501e-14)
(2764.5 -2.1326e-10 5.23281e-14)
(2764.5 -2.04374e-10 5.60711e-14)
(2764.5 -1.89443e-10 5.93349e-14)
(2764.5 -1.72816e-10 5.22265e-14)
(2764.5 -1.58349e-10 4.98001e-14)
(2764.5 -1.45714e-10 5.09399e-14)
(2764.5 -1.4036e-10 5.28665e-14)
(2764.5 -1.32709e-10 4.91806e-14)
(2764.5 -1.37336e-10 4.6311e-14)
(2764.5 -1.60966e-10 4.71217e-14)
(2764.5 -1.86773e-10 4.56595e-14)
(2764.5 -2.07819e-10 5.26634e-14)
(2764.5 -2.39664e-10 5.17664e-14)
(2764.5 -2.77339e-10 4.95888e-14)
(2764.5 -3.08966e-10 4.49385e-14)
(2764.5 -3.21265e-10 4.51508e-14)
(2764.5 -3.21858e-10 4.54071e-14)
(2764.5 -3.04635e-10 4.4162e-14)
(2764.5 -2.65609e-10 4.57925e-14)
(2764.5 -2.17665e-10 4.64969e-14)
(2764.5 -1.67431e-10 4.87904e-14)
(2764.5 -1.22436e-10 4.81214e-14)
(2764.5 -7.12337e-11 5.06393e-14)
(2764.5 -5.11294e-11 4.59934e-14)
(2764.5 -6.2503e-11 4.34705e-14)
(2764.5 -1.1227e-10 4.39596e-14)
(2764.5 -1.80638e-10 4.69327e-14)
(2764.5 -2.82597e-10 4.59411e-14)
(2764.5 -3.81466e-10 4.03273e-14)
(2764.5 -4.50383e-10 4.24507e-14)
(2764.5 -4.87847e-10 4.36561e-14)
(2764.5 -1.62702e-07 2.73876e-10)
(2764.5 -8.68504e-08 1.35859e-10)
(2764.5 -4.48865e-08 6.63387e-11)
(2764.5 -2.54201e-08 3.67832e-11)
(2764.5 -1.61461e-08 2.3491e-11)
(2764.5 -1.12327e-08 1.64357e-11)
(2764.5 -8.33785e-09 1.21671e-11)
(2764.5 -6.47764e-09 9.46585e-12)
(2764.5 -5.1842e-09 7.59342e-12)
(2764.5 -4.24498e-09 6.2407e-12)
(2764.5 -3.54419e-09 5.14436e-12)
(2764.5 -3.00761e-09 4.35271e-12)
(2764.5 -2.59226e-09 3.69902e-12)
(2764.5 -2.26417e-09 3.22085e-12)
(2764.5 -1.99491e-09 2.86948e-12)
(2764.5 -1.78136e-09 2.50656e-12)
(2764.5 -1.59024e-09 2.19295e-12)
(2764.5 -1.43853e-09 1.98062e-12)
(2764.5 -1.30495e-09 1.79017e-12)
(2764.5 -1.19506e-09 1.6249e-12)
(2764.5 -1.10366e-09 1.48453e-12)
(2764.5 -1.01907e-09 1.36386e-12)
(2764.5 -9.40072e-10 1.22711e-12)
(2764.5 -8.78073e-10 1.14728e-12)
(2764.5 -8.19575e-10 1.03227e-12)
(2764.5 -7.64155e-10 9.95119e-13)
(2764.5 -7.20557e-10 9.14721e-13)
(2764.5 -6.80278e-10 8.65925e-13)
(2764.5 -6.36341e-10 8.28427e-13)
(2764.5 -6.00654e-10 7.61856e-13)
(2764.5 -5.71737e-10 6.93865e-13)
(2764.5 -5.48643e-10 6.72864e-13)
(2764.5 -5.14648e-10 6.14707e-13)
(2764.5 -4.93074e-10 5.68399e-13)
(2764.5 -4.82955e-10 5.5598e-13)
(2764.5 -4.63498e-10 5.35674e-13)
(2764.5 -4.39217e-10 4.91941e-13)
(2764.5 -4.25545e-10 4.67352e-13)
(2764.5 -4.12415e-10 4.35587e-13)
(2764.5 -4.00837e-10 4.11694e-13)
(2764.5 -3.81999e-10 4.14262e-13)
(2764.5 -3.66653e-10 3.95419e-13)
(2764.5 -3.60676e-10 3.77474e-13)
(2764.5 -3.53647e-10 3.65239e-13)
(2764.5 -3.47153e-10 3.50924e-13)
(2764.5 -3.34335e-10 3.34158e-13)
(2764.5 -3.25063e-10 3.13597e-13)
(2764.5 -3.19717e-10 3.06036e-13)
(2764.5 -3.11729e-10 2.92621e-13)
(2764.5 -3.05187e-10 2.68221e-13)
(2764.5 -2.97243e-10 2.75767e-13)
(2764.5 -2.95127e-10 2.64081e-13)
(2764.5 -2.96374e-10 2.54802e-13)
(2764.5 -2.92766e-10 2.42972e-13)
(2764.5 -2.88599e-10 2.40647e-13)
(2764.5 -2.81409e-10 2.34741e-13)
(2764.5 -2.79198e-10 2.12447e-13)
(2764.5 -2.76909e-10 2.04951e-13)
(2764.5 -2.70783e-10 2.1543e-13)
(2764.5 -2.66547e-10 1.96828e-13)
(2764.5 -2.65635e-10 1.8738e-13)
(2764.5 -2.67199e-10 1.77509e-13)
(2764.5 -2.65114e-10 1.81006e-13)
(2764.5 -2.60577e-10 1.9196e-13)
(2764.5 -2.5933e-10 1.75287e-13)
(2764.5 -2.52929e-10 1.77391e-13)
(2764.5 -2.46748e-10 1.70785e-13)
(2764.5 -2.4141e-10 1.55253e-13)
(2764.5 -2.34444e-10 1.61254e-13)
(2764.5 -2.29648e-10 1.57919e-13)
(2764.5 -2.35862e-10 1.49156e-13)
(2764.5 -2.30585e-10 1.5072e-13)
(2764.5 -2.24199e-10 1.44774e-13)
(2764.5 -2.18851e-10 1.41914e-13)
(2764.5 -2.14142e-10 1.43887e-13)
(2764.5 -2.09822e-10 1.39432e-13)
(2764.5 -2.10752e-10 1.40792e-13)
(2764.5 -2.10361e-10 1.32527e-13)
(2764.5 -2.05354e-10 1.21233e-13)
(2764.5 -2.02747e-10 1.21357e-13)
(2764.5 -2.04235e-10 1.28544e-13)
(2764.5 -2.03459e-10 1.21403e-13)
(2764.5 -2.03886e-10 1.14956e-13)
(2764.5 -2.02992e-10 1.14498e-13)
(2764.5 -2.03419e-10 1.12699e-13)
(2764.5 -2.03655e-10 1.07825e-13)
(2764.5 -2.11751e-10 1.00705e-13)
(2764.5 -2.15787e-10 1.0894e-13)
(2764.5 -2.18287e-10 1.13909e-13)
(2764.5 -2.23887e-10 1.12379e-13)
(2764.5 -2.2469e-10 1.02526e-13)
(2764.5 -2.2865e-10 1.00589e-13)
(2764.5 -2.35986e-10 9.91205e-14)
(2764.5 -2.40711e-10 9.72777e-14)
(2764.5 -2.42332e-10 9.73624e-14)
(2764.5 -2.43387e-10 9.92909e-14)
(2764.5 -2.38693e-10 8.96813e-14)
(2764.5 -2.34261e-10 8.76277e-14)
(2764.5 -2.28054e-10 9.00947e-14)
(2764.5 -2.20189e-10 8.39478e-14)
(2764.5 -2.12733e-10 7.76413e-14)
(2764.5 -2.05583e-10 8.27367e-14)
(2764.5 -1.9482e-10 8.61926e-14)
(2764.5 -1.88292e-10 8.07055e-14)
(2764.5 -1.83129e-10 8.03953e-14)
(2764.5 -1.7958e-10 8.35143e-14)
(2764.5 -1.79201e-10 8.03982e-14)
(2764.5 -1.8076e-10 7.90268e-14)
(2764.5 -1.87415e-10 7.37188e-14)
(2764.5 -1.97253e-10 7.56591e-14)
(2764.5 -2.07137e-10 7.48432e-14)
(2764.5 -2.16829e-10 7.23937e-14)
(2764.5 -2.27521e-10 7.55072e-14)
(2764.5 -2.43894e-10 6.41958e-14)
(2764.5 -2.55264e-10 6.41161e-14)
(2764.5 -2.64965e-10 6.79814e-14)
(2764.5 -2.74125e-10 7.36383e-14)
(2764.5 -2.82011e-10 7.04382e-14)
(2764.5 -2.81435e-10 7.42053e-14)
(2764.5 -2.74296e-10 7.57469e-14)
(2764.5 -2.61326e-10 7.03622e-14)
(2764.5 -2.46583e-10 6.74408e-14)
(2764.5 -2.29096e-10 7.00407e-14)
(2764.5 -2.10134e-10 7.23699e-14)
(2764.5 -1.92112e-10 6.69742e-14)
(2764.5 -1.75997e-10 7.0184e-14)
(2764.5 -1.68668e-10 7.12333e-14)
(2764.5 -1.65682e-10 6.58108e-14)
(2764.5 -1.71421e-10 6.29673e-14)
(2764.5 -1.88925e-10 6.043e-14)
(2764.5 -2.1973e-10 6.04784e-14)
(2764.5 -2.41629e-10 6.46038e-14)
(2764.5 -2.70612e-10 6.25401e-14)
(2764.5 -3.11258e-10 6.56581e-14)
(2764.5 -3.41009e-10 6.61362e-14)
(2764.5 -3.52153e-10 6.5654e-14)
(2764.5 -3.56614e-10 6.58243e-14)
(2764.5 -3.53278e-10 6.29022e-14)
(2764.5 -3.34625e-10 6.17577e-14)
(2764.5 -2.98259e-10 5.74158e-14)
(2764.5 -2.4407e-10 6.09631e-14)
(2764.5 -1.87365e-10 5.90959e-14)
(2764.5 -1.40722e-10 6.08871e-14)
(2764.5 -1.24409e-10 6.0626e-14)
(2764.5 -1.25913e-10 6.13756e-14)
(2764.5 -1.58028e-10 6.24099e-14)
(2764.5 -2.17711e-10 5.81642e-14)
(2764.5 -3.06176e-10 5.337e-14)
(2764.5 -3.99542e-10 5.44628e-14)
(2764.5 -4.70197e-10 5.58007e-14)
(2764.5 -5.06318e-10 5.41137e-14)
(2764.5 -5.01121e-10 6.0951e-14)
(2764.5 -4.41943e-10 5.44765e-14)
(2764.5 -3.40119e-10 5.44085e-14)
(2764.5 -1.99691e-10 6.3648e-14)
(2764.5 -4.13273e-11 6.09961e-14)
(2764.5 -1.82782e-07 3.0704e-10)
(2764.5 -1.06076e-07 1.64612e-10)
(2764.5 -5.78165e-08 8.34839e-11)
(2764.5 -3.3268e-08 4.65259e-11)
(2764.5 -2.10544e-08 2.94667e-11)
(2764.5 -1.45318e-08 2.04445e-11)
(2764.5 -1.07111e-08 1.52296e-11)
(2764.5 -8.28307e-09 1.17121e-11)
(2764.5 -6.61959e-09 9.33378e-12)
(2764.5 -5.41157e-09 7.65044e-12)
(2764.5 -4.51326e-09 6.35991e-12)
(2764.5 -3.82695e-09 5.36018e-12)
(2764.5 -3.29243e-09 4.59085e-12)
(2764.5 -2.86906e-09 4.02287e-12)
(2764.5 -2.52541e-09 3.49295e-12)
(2764.5 -2.25064e-09 3.06443e-12)
(2764.5 -2.00801e-09 2.73211e-12)
(2764.5 -1.81609e-09 2.42192e-12)
(2764.5 -1.6468e-09 2.21072e-12)
(2764.5 -1.50662e-09 1.97783e-12)
(2764.5 -1.38782e-09 1.82269e-12)
(2764.5 -1.27723e-09 1.66828e-12)
(2764.5 -1.17942e-09 1.5164e-12)
(2764.5 -1.0992e-09 1.36464e-12)
(2764.5 -1.02876e-09 1.29461e-12)
(2764.5 -9.62476e-10 1.22153e-12)
(2764.5 -9.0442e-10 1.12858e-12)
(2764.5 -8.4968e-10 1.06684e-12)
(2764.5 -7.98498e-10 9.79696e-13)
(2764.5 -7.54978e-10 8.94795e-13)
(2764.5 -7.20363e-10 8.63651e-13)
(2764.5 -6.88441e-10 8.09836e-13)
(2764.5 -6.52507e-10 7.5299e-13)
(2764.5 -6.25974e-10 7.2285e-13)
(2764.5 -6.09623e-10 6.79165e-13)
(2764.5 -5.85831e-10 6.1342e-13)
(2764.5 -5.62471e-10 6.21494e-13)
(2764.5 -5.39173e-10 5.80498e-13)
(2764.5 -5.27274e-10 5.52565e-13)
(2764.5 -5.10613e-10 5.31101e-13)
(2764.5 -4.89737e-10 4.90484e-13)
(2764.5 -4.73437e-10 4.72858e-13)
(2764.5 -4.64352e-10 4.53925e-13)
(2764.5 -4.56803e-10 4.42653e-13)
(2764.5 -4.45368e-10 4.20836e-13)
(2764.5 -4.31483e-10 4.21032e-13)
(2764.5 -4.24635e-10 3.83504e-13)
(2764.5 -4.16678e-10 3.72179e-13)
(2764.5 -4.05188e-10 3.64966e-13)
(2764.5 -3.96289e-10 3.41169e-13)
(2764.5 -3.85852e-10 3.32425e-13)
(2764.5 -3.79077e-10 3.19585e-13)
(2764.5 -3.75157e-10 3.08143e-13)
(2764.5 -3.72729e-10 3.04563e-13)
(2764.5 -3.65638e-10 2.86204e-13)
(2764.5 -3.55262e-10 2.7289e-13)
(2764.5 -3.45937e-10 2.63079e-13)
(2764.5 -3.4075e-10 2.64988e-13)
(2764.5 -3.35534e-10 2.52e-13)
(2764.5 -3.27597e-10 2.39017e-13)
(2764.5 -3.18878e-10 2.39229e-13)
(2764.5 -3.1552e-10 2.28281e-13)
(2764.5 -3.09731e-10 2.2504e-13)
(2764.5 -3.05427e-10 2.17526e-13)
(2764.5 -3.02428e-10 2.12534e-13)
(2764.5 -2.94255e-10 2.16968e-13)
(2764.5 -2.88232e-10 2.01897e-13)
(2764.5 -2.78025e-10 1.87254e-13)
(2764.5 -2.69741e-10 1.99017e-13)
(2764.5 -2.61673e-10 1.89456e-13)
(2764.5 -2.68981e-10 1.78251e-13)
(2764.5 -2.70356e-10 1.77942e-13)
(2764.5 -2.6225e-10 1.78466e-13)
(2764.5 -2.5795e-10 1.65953e-13)
(2764.5 -2.58887e-10 1.7331e-13)
(2764.5 -2.57466e-10 1.67473e-13)
(2764.5 -2.61947e-10 1.63033e-13)
(2764.5 -2.65249e-10 1.56362e-13)
(2764.5 -2.69398e-10 1.67382e-13)
(2764.5 -2.7097e-10 1.58516e-13)
(2764.5 -2.74785e-10 1.55884e-13)
(2764.5 -2.79603e-10 1.42184e-13)