/*--------------------------------*- C++ -*----------------------------------*\
| =========                 |                                                 |
| \\      /  F ield         | OpenFOAM: The Open Source CFD Toolbox           |
|  \\    /   O peration     | Version:  v1706                                 |
|   \\  /    A nd           | Web:      www.OpenFOAM.com                      |
|    \\/     M anipulation  |                                                 |
\*---------------------------------------------------------------------------*/
FoamFile
{
    version     2.0;
    format      ascii;
    class       volScalarField;
    location    "3e-06";
    object      wallHeatFlux;
}
// * * * * * * * * * * * * * * * * * * * * * * * * * * * * * * * * * * * * * //

dimensions      [1 0 -3 0 0 0 0];


internalField   uniform 0;

boundaryField
{
    cone
    {
        type            calculated;
        value           nonuniform List<scalar> 
147
(
6.48422e+06
6.48607e+06
6.48882e+06
6.49256e+06
6.49741e+06
6.50334e+06
6.51032e+06
6.51836e+06
6.52748e+06
6.53769e+06
6.549e+06
6.56142e+06
6.57496e+06
6.58965e+06
6.60552e+06
6.62261e+06
6.64094e+06
6.6605e+06
6.68134e+06
6.70346e+06
6.72689e+06
6.75164e+06
6.77773e+06
6.80517e+06
6.83398e+06
6.86413e+06
6.89562e+06
6.92843e+06
6.9625e+06
6.99775e+06
7.03408e+06
7.07134e+06
7.10933e+06
7.14778e+06
7.18638e+06
7.22462e+06
7.26169e+06
7.29697e+06
7.32957e+06
7.35829e+06
7.38175e+06
7.39827e+06
7.40596e+06
7.40265e+06
7.38569e+06
7.35225e+06
7.29943e+06
7.22431e+06
7.12415e+06
6.99677e+06
6.8406e+06
6.65492e+06
6.43997e+06
6.19716e+06
5.929e+06
5.63913e+06
5.3318e+06
5.01183e+06
4.68434e+06
4.35447e+06
4.02708e+06
3.70669e+06
3.39726e+06
3.10114e+06
2.81848e+06
2.55093e+06
2.29961e+06
2.06516e+06
1.84781e+06
1.64748e+06
1.4638e+06
1.29619e+06
1.14396e+06
1.00627e+06
882256
770982
671518
582939
504338
434844
373643
319918
272794
231607
195744
164635
137755
114621
94792.3
77868.2
63487.7
51326.7
41094.8
32532.7
25407.2
19509.9
14656.1
10684.6
7458.75
4858.29
2778.22
1127.74
-171.264
-1185.36
-1970.7
-2574.1
-3034.12
-3382.22
-3643.68
-3838.62
-3982.87
-4089.13
-4167.02
-4223.77
-4264.92
-4294.56
-4315.83
-4331.02
-4341.82
-4349.46
-4354.86
-4358.65
-4361.3
-4363.15
-4364.45
-4365.36
-4366
-4366.45
-4366.79
-4367.04
-4367.25
-4367.42
-4367.6
-4367.78
-4367.98
-4368.19
-4368.42
-4368.68
-4368.97
-4369.28
-4369.61
-4369.94
-4370.25
-4370.46
-4370.56
-4370.45
6.4863e+06
)
;
    }
    inlet
    {
        type            calculated;
        value           uniform 0;
    }
    rWedge
    {
        type            wedge;
    }
    lWedge
    {
        type            wedge;
    }
    outlet
    {
        type            calculated;
        value           nonuniform 0();
    }
    procBoundary3to2
    {
        type            processor;
        value           uniform 0;
    }
}


// ************************************************************************* //
