/*--------------------------------*- C++ -*----------------------------------*\
| =========                 |                                                 |
| \\      /  F ield         | OpenFOAM: The Open Source CFD Toolbox           |
|  \\    /   O peration     | Version:  v1706                                 |
|   \\  /    A nd           | Web:      www.OpenFOAM.com                      |
|    \\/     M anipulation  |                                                 |
\*---------------------------------------------------------------------------*/
FoamFile
{
    version     2.0;
    format      ascii;
    class       volScalarField;
    location    "8e-06";
    object      Tt;
}
// * * * * * * * * * * * * * * * * * * * * * * * * * * * * * * * * * * * * * //

dimensions      [0 0 0 1 0 0 0];


internalField   nonuniform List<scalar> 
29871
(
144.4
144.4
144.4
144.4
144.4
144.4
144.4
144.4
144.4
144.4
144.4
144.4
144.4
144.4
144.4
144.4
144.4
144.4
144.4
144.4
144.4
144.4
144.4
144.4
144.4
144.4
144.4
144.4
144.4
144.4
144.4
144.4
144.4
144.4
144.4
144.4
144.4
144.4
144.4
144.4
144.4
144.4
144.4
144.4
144.4
144.4
144.4
144.4
144.4
144.4
144.4
144.4
144.4
144.4
144.4
144.4
144.4
144.4
144.4
144.4
144.4
144.4
144.4
144.4
144.4
144.4
144.4
144.4
144.4
144.4
144.4
144.4
144.4
144.4
144.4
144.4
144.4
144.4
144.4
144.4
144.4
144.4
144.4
144.4
144.4
144.4
144.4
144.4
144.4
144.4
144.4
144.4
144.4
144.4
144.4
144.4
144.4
144.4
144.4
144.4
144.4
144.4
144.4
144.4
144.4
144.4
144.4
144.4
144.4
144.4
144.4
144.4
144.4
144.4
144.4
144.4
144.4
144.4
144.4
144.4
144.4
144.4
144.4
144.4
144.4
144.4
144.4
144.4
144.4
144.4
144.4
144.4
144.4
144.4
144.4
144.4
144.4
144.4
144.4
144.4
144.4
144.4
144.4
144.4
144.4
144.4
144.4
144.4
144.4
144.4
144.4
144.4
144.4
144.4
144.4
144.4
144.4
144.4
144.4
144.4
144.4
144.4
144.4
144.4
144.4
144.4
144.4
144.4
144.4
144.4
144.4
144.4
144.4
144.4
144.4
144.4
144.4
144.4
144.4
144.4
144.4
144.4
144.4
144.4
144.4
144.4
144.4
144.4
144.4
144.4
144.4
144.4
144.4
144.4
144.4
144.4
144.4
144.4
144.4
144.4
144.4
144.4
144.4
144.4
144.4
144.4
144.4
144.4
144.4
144.4
144.4
144.4
144.4
144.4
144.4
144.4
144.4
144.4
144.4
144.4
144.4
144.4
144.4
144.4
144.4
144.4
144.4
144.4
144.4
144.4
144.4
144.4
144.4
144.4
144.4
144.4
144.4
144.4
144.4
144.4
144.4
144.4
144.4
144.4
144.4
144.4
144.4
144.4
144.4
144.4
144.4
144.4
144.4
144.4
144.4
144.4
144.4
144.4
144.4
144.4
144.4
144.4
144.4
144.4
144.4
144.4
144.4
144.4
144.4
144.4
144.4
144.4
144.4
144.4
144.4
144.4
144.4
144.4
144.4
144.4
144.4
144.4
144.4
144.4
144.4
144.4
144.4
144.4
144.4
144.4
144.4
144.4
144.4
144.4
144.4
144.4
144.4
144.4
144.4
144.4
144.4
144.4
144.4
144.4
144.4
144.4
144.4
144.4
144.4
144.4
144.4
144.4
144.4
144.4
144.4
144.4
144.4
144.4
144.4
144.4
144.4
144.4
144.4
144.4
144.4
144.4
144.4
144.4
144.4
144.4
144.4
144.4
144.4
144.4
144.4
144.4
144.4
144.4
144.4
144.4
144.4
144.4
144.4
144.4
144.4
144.4
144.4
144.4
144.4
144.4
144.4
144.4
144.4
144.4
144.4
144.4
144.4
144.4
144.4
144.4
144.4
144.4
144.4
144.4
144.4
144.4
144.4
144.4
144.4
144.4
144.4
144.4
144.4
144.4
144.4
144.4
144.4
144.4
144.4
144.4
144.4
144.4
144.4
144.4
144.4
144.4
144.4
144.4
144.4
144.4
144.4
144.4
144.4
144.4
144.4
144.4
144.4
144.4
144.4
144.4
144.4
144.4
144.4
144.4
144.4
144.4
144.4
144.4
144.4
144.4
144.4
144.4
144.4
144.4
144.4
144.4
144.4
144.4
144.4
144.4
144.4
144.4
144.4
144.4
144.4
144.4
144.4
144.4
144.4
144.4
144.4
144.4
144.4
144.4
144.4
144.4
144.4
144.4
144.4
144.4
144.4
144.4
144.4
144.4
144.4
144.4
144.4
144.4
144.4
144.4
144.4
144.4
144.4
144.4
144.4
144.4
144.4
144.4
144.4
144.4
144.4
144.4
144.4
144.4
144.4
144.4
144.4
144.4
144.4
144.4
144.4
144.4
144.4
144.4
144.4
144.4
144.4
144.4
144.4
144.4
144.4
144.4
144.4
144.4
144.4
144.4
144.4
144.4
144.4
144.4
144.4
144.4
144.4
144.4
144.4
144.4
144.4
144.4
144.4
144.4
144.4
144.4
144.4
144.4
144.4
144.4
144.4
144.4
144.4
144.4
144.4
144.4
144.4
144.4
144.4
144.4
144.4
144.4
144.4
144.4
144.4
144.4
144.4
144.4
144.4
144.4
144.4
144.4
144.4
144.4
144.4
144.4
144.4
144.4
144.4
144.4
144.4
144.4
144.4
144.4
144.4
144.4
144.4
144.4
144.4
144.4
144.4
144.4
144.4
144.4
144.4
144.4
144.4
144.4
144.4
144.4
144.4
144.4
144.4
144.4
144.4
144.4
144.4
144.4
144.4
144.4
144.4
144.4
144.4
144.4
144.4
144.4
144.4
144.4
144.4
144.4
144.4
144.4
144.4
144.4
144.4
144.4
144.4
144.4
144.4
144.4
144.4
144.4
144.4
144.4
144.4
144.4
144.4
144.4
144.4
144.4
144.4
144.4
144.4
144.4
144.4
144.4
144.4
144.4
144.4
144.4
144.4
144.4
144.4
144.4
144.4
144.4
144.4
144.4
144.4
144.4
144.4
144.4
144.4
144.4
144.4
144.4
144.4
144.4
144.4
144.4
144.4
144.4
144.4
144.4
144.4
144.4
144.4
144.4
144.4
144.4
144.4
144.4
144.4
144.4
144.4
144.4
144.4
144.4
144.4
144.4
144.4
144.4
144.4
144.4
144.4
144.4
144.4
144.4
144.4
144.4
144.4
144.4
144.4
144.4
144.4
144.4
144.4
144.4
144.4
144.4
144.4
144.4
144.4
144.4
144.4
144.4
144.4
144.4
144.4
144.4
144.4
144.4
144.4
144.4
144.4
144.4
144.4
144.4
144.4
144.4
144.4
144.4
144.4
144.4
144.4
144.4
144.4
144.4
144.4
144.4
144.4
144.4
144.4
144.4
144.4
144.4
144.4
144.4
144.4
144.4
144.4
144.4
144.4
144.4
144.4
144.4
144.4
144.4
144.4
144.4
144.4
144.4
144.4
144.4
144.4
144.4
144.4
144.4
144.4
144.4
144.4
144.4
144.4
144.4
144.4
144.4
144.4
144.4
144.4
144.4
144.4
144.4
144.4
144.4
144.4
144.4
144.4
144.4
144.4
144.4
144.4
144.4
144.4
144.4
144.4
144.4
144.4
144.4
144.4
144.4
144.4
144.4
144.4
144.4
144.4
144.4
144.4
144.4
144.4
144.4
144.4
144.4
144.4
144.4
144.4
144.4
144.4
144.4
144.4
144.4
144.4
144.4
144.4
144.4
144.4
144.4
144.4
144.4
144.4
144.4
144.4
144.4
144.4
144.4
144.4
144.4
144.4
144.4
144.4
144.4
144.4
144.4
144.4
144.4
144.4
144.4
144.4
144.4
144.4
144.4
144.4
144.4
144.4
144.4
144.4
144.4
144.4
144.4
144.4
144.4
144.4
144.4
144.4
144.4
144.4
144.4
144.4
144.4
144.4
144.4
144.4
144.4
144.4
144.4
144.4
144.4
144.4
144.4
144.4
144.4
144.4
144.4
144.4
144.4
144.4
144.4
144.4
144.4
144.4
144.4
144.4
144.4
144.4
144.4
144.4
144.4
144.4
144.4
144.4
144.4
144.4
144.4
144.4
144.4
144.4
144.4
144.4
144.4
144.4
144.4
144.4
144.4
144.4
144.4
144.4
144.4
144.4
144.4
144.4
144.4
144.4
144.4
144.4
144.4
144.4
144.4
144.4
144.4
144.4
144.4
144.4
144.4
144.4
144.4
144.4
144.4
144.4
144.4
144.4
144.4
144.4
144.4
144.4
144.4
144.4
144.4
144.4
144.4
144.4
144.4
144.4
144.4
144.4
144.4
144.4
144.4
144.4
144.4
144.4
144.4
144.4
144.4
144.4
144.4
144.4
144.4
144.4
144.4
144.4
144.4
144.4
144.4
144.4
144.4
144.4
144.4
144.4
144.4
144.4
144.4
144.4
144.4
144.4
144.4
144.4
144.4
144.4
144.4
144.4
144.4
144.4
144.4
144.4
144.4
144.4
144.4
144.4
144.4
144.4
144.4
144.4
144.4
144.4
144.4
144.4
144.4
144.4
144.4
144.4
144.4
144.4
144.4
144.4
144.4
144.4
144.4
144.4
144.4
144.4
144.4
144.4
144.4
144.4
144.4
144.4
144.4
144.4
144.4
144.4
144.4
144.4
144.4
144.4
144.4
144.4
144.4
144.4
144.4
144.4
144.4
144.4
144.4
144.4
144.4
144.4
144.4
144.4
144.4
144.4
144.4
144.4
144.4
144.4
144.4
144.4
144.4
144.4
144.4
144.4
144.4
144.4
144.4
144.4
144.4
144.4
144.4
144.4
144.4
144.4
144.4
144.4
144.4
144.4
144.4
144.4
144.4
144.4
144.4
144.4
144.4
144.4
144.4
144.4
144.4
144.4
144.4
144.4
144.4
144.4
144.4
144.4
144.4
144.4
144.4
144.4
144.4
144.4
144.4
144.4
144.4
144.4
144.4
144.4
144.4
144.4
144.4
144.4
144.4
144.4
144.4
144.4
144.4
144.4
144.4
144.4
144.4
144.4
144.4
144.4
144.4
144.4
144.4
144.4
144.4
144.4
144.4
144.4
144.4
144.4
144.4
144.4
144.4
144.4
144.4
144.4
144.4
144.4
144.4
144.4
144.4
144.4
144.4
144.4
144.4
144.4
144.4
144.4
144.4
144.4
144.4
144.4
144.4
144.4
144.4
144.4
144.4
144.4
144.4
144.4
144.4
144.4
144.4
144.4
144.4
144.4
144.4
144.4
144.4
144.4
144.4
144.4
144.4
144.4
144.4
144.4
144.4
144.4
144.4
144.4
144.4
144.4
144.4
144.4
144.4
144.4
144.4
144.4
144.4
144.4
144.4
144.4
144.4
144.4
144.4
144.4
144.4
144.4
144.4
144.4
144.4
144.4
144.4
144.4
144.4
144.4
144.4
144.4
144.4
144.4
144.4
144.4
144.4
144.4
144.4
144.4
144.4
144.4
144.4
144.4
144.4
144.4
144.4
144.4
144.4
144.4
144.4
144.4
144.4
144.4
144.4
144.4
144.4
144.4
144.4
144.4
144.4
144.4
144.4
144.4
144.4
144.4
144.4
144.4
144.4
144.4
144.4
144.4
144.4
144.4
144.4
144.4
144.4
144.4
144.4
144.4
144.4
144.4
144.4
144.4
144.4
144.4
144.4
144.4
144.4
144.4
144.4
144.4
144.4
144.4
144.4
144.4
144.4
144.4
144.4
144.4
144.4
144.4
144.4
144.4
144.4
144.4
144.4
144.4
144.4
144.4
144.4
144.4
144.4
144.4
144.4
144.4
144.4
144.4
144.4
144.4
144.4
144.4
144.4
144.4
144.4
144.4
144.4
144.4
144.4
144.4
144.4
144.4
144.4
144.4
144.4
144.4
144.4
144.4
144.4
144.4
144.4
144.4
144.4
144.4
144.4
144.4
144.4
144.4
144.4
144.4
144.4
144.4
144.4
144.4
144.4
144.4
144.4
144.4
144.4
144.4
144.4
144.4
144.4
144.4
144.4
144.4
144.4
144.4
144.4
144.4
144.4
144.4
144.4
144.4
144.4
144.4
144.4
144.4
144.4
144.4
144.4
144.4
144.4
144.4
144.4
144.4
144.4
144.4
144.4
144.4
144.4
144.4
144.4
144.4
144.4
144.4
144.4
144.4
144.4
144.4
144.4
144.4
144.4
144.4
144.4
144.4
144.4
144.4
144.4
144.4
144.4
144.4
144.4
144.4
144.4
144.4
144.4
144.4
144.4
144.4
144.4
144.4
144.4
144.4
144.4
144.4
144.4
144.4
144.4
144.4
144.4
144.4
144.4
144.4
144.4
144.4
144.4
144.4
144.4
144.4
144.4
144.4
144.4
144.4
144.4
144.4
144.4
144.4
144.4
144.4
144.4
144.4
144.4
144.4
144.4
144.4
144.4
144.4
144.4
144.4
144.4
144.4
144.4
144.4
144.4
144.4
144.4
144.4
144.4
144.4
144.4
144.4
144.4
144.4
144.4
144.4
144.4
144.4
144.4
144.4
144.4
144.4
144.4
144.4
144.4
144.4
144.4
144.4
144.4
144.4
144.4
144.4
144.4
144.4
144.4
144.4
144.4
144.4
144.4
144.4
144.4
144.4
144.4
144.4
144.4
144.4
144.4
144.4
144.4
144.4
144.4
144.4
144.4
144.4
144.4
144.4
144.4
144.4
144.4
144.4
144.4
144.4
144.4
144.4
144.4
144.4
144.4
144.4
144.4
144.4
144.4
144.4
144.4
144.4
144.4
144.4
144.4
144.4
144.4
144.4
144.4
144.4
144.4
144.4
144.4
144.4
144.4
144.4
144.4
144.4
144.4
144.4
144.4
144.4
144.4
144.4
144.4
144.4
144.4
144.4
144.4
144.4
144.4
144.4
144.4
144.4
144.4
144.4
144.4
144.4
144.4
144.4
144.4
144.4
144.4
144.4
144.4
144.4
144.4
144.4
144.4
144.4
144.4
144.4
144.4
144.4
144.4
144.4
144.4
144.4
144.4
144.4
144.4
144.4
144.4
144.4
144.4
144.4
144.4
144.4
144.4
144.4
144.4
144.4
144.4
144.4
144.4
144.4
144.4
144.4
144.4
144.4
144.4
144.4
144.4
144.4
144.4
144.4
144.4
144.4
144.4
144.4
144.4
144.4
144.4
144.4
144.4
144.4
144.4
144.4
144.4
144.4
144.4
144.4
144.4
144.4
144.4
144.4
144.4
144.4
144.4
144.4
144.4
144.4
144.4
144.4
144.4
144.4
144.4
144.4
144.4
144.4
144.4
144.4
144.4
144.4
144.4
144.4
144.4
144.4
144.4
144.4
144.4
144.4
144.4
144.4
144.4
144.4
144.4
144.4
144.4
144.4
144.4
144.4
144.4
144.4
144.4
144.4
144.4
144.4
144.4
144.4
144.4
144.4
144.4
144.4
144.4
144.4
144.4
144.4
144.4
144.4
144.4
144.4
144.4
144.4
144.4
144.4
144.4
144.4
144.4
144.4
144.4
144.4
144.4
144.4
144.4
144.4
144.4
144.4
144.4
144.4
144.4
144.4
144.4
144.4
144.4
144.4
144.4
144.4
144.4
144.4
144.4
144.4
144.4
144.4
144.4
144.4
144.4
144.4
144.4
144.4
144.4
144.4
144.4
144.4
144.4
144.4
144.4
144.4
144.4
144.4
144.4
144.4
144.4
144.4
144.4
144.4
144.4
144.4
144.4
144.4
144.4
144.4
144.4
144.4
144.4
144.4
144.4
144.4
144.4
144.4
144.4
144.4
144.4
144.4
144.4
144.4
144.4
144.4
144.4
144.4
144.4
144.4
144.4
144.4
144.4
144.4
144.4
144.4
144.4
144.4
144.4
144.4
144.4
144.4
144.4
144.4
144.4
144.4
144.4
144.4
144.4
144.4
144.4
144.4
144.4
144.4
144.4
144.4
144.4
144.4
144.4
144.4
144.4
144.4
144.4
144.4
144.4
144.4
144.4
144.4
144.4
144.4
144.4
144.4
144.4
144.4
144.4
144.4
144.4
144.4
144.4
144.4
144.4
144.4
144.4
144.4
144.4
144.4
144.4
144.4
144.4
144.4
144.4
144.4
144.4
144.4
144.4
144.4
144.4
144.4
144.4
144.4
144.4
144.4
144.4
144.4
144.4
144.4
144.4
144.4
144.4
144.4
144.4
144.4
144.4
144.4
144.4
144.4
144.4
144.4
144.4
144.4
144.4
144.4
144.4
144.4
144.4
144.4
144.4
144.4
144.4
144.4
144.4
144.4
144.4
144.4
144.4
144.4
144.4
144.4
144.4
144.4
144.4
144.4
144.4
144.4
144.4
144.4
144.4
144.4
144.4
144.4
144.4
144.4
144.4
144.4
144.4
144.4
144.4
144.4
144.4
144.4
144.4
144.4
144.4
144.4
144.4
144.4
144.4
144.4
144.4
144.4
144.4
144.4
144.4
144.4
144.4
144.4
144.4
144.4
144.4
144.4
144.4
144.4
144.4
144.4
144.4
144.4
144.4
144.4
144.4
144.4
144.4
144.4
144.4
144.4
144.4
144.4
144.4
144.4
144.4
144.4
144.4
144.4
144.4
144.4
144.4
144.4
144.4
144.4
144.4
144.4
144.4
144.4
144.4
144.4
144.4
144.4
144.4
144.4
144.4
144.4
144.4
144.4
144.4
144.4
144.4
144.4
144.4
144.4
144.4
144.4
144.4
144.4
144.4
144.4
144.4
144.4
144.4
144.4
144.4
144.4
144.4
144.4
144.4
144.4
144.4
144.4
144.4
144.4
144.4
144.4
144.4
144.4
144.4
144.4
144.4
144.4
144.4
144.4
144.4
144.4
144.4
144.4
144.4
144.4
144.4
144.4
144.4
144.4
144.4
144.4
144.4
144.4
144.4
144.4
144.4
144.4
144.4
144.4
144.4
144.4
144.4
144.4
144.4
144.4
144.4
144.4
144.4
144.4
144.4
144.4
144.4
144.4
144.4
144.4
144.4
144.4
144.4
144.4
144.4
144.4
144.4
144.4
144.4
144.4
144.4
144.4
144.4
144.4
144.4
144.4
144.4
144.4
144.4
144.4
144.4
144.4
144.4
144.4
144.4
144.4
144.4
144.4
144.4
144.4
144.4
144.401
144.401
144.401
144.4
144.4
144.4
144.4
144.4
144.4
144.4
144.4
144.4
144.4
144.4
144.4
144.4
144.4
144.4
144.4
144.4
144.4
144.4
144.4
144.4
144.4
144.4
144.4
144.4
144.4
144.4
144.4
144.4
144.4
144.4
144.4
144.4
144.4
144.4
144.4
144.4
144.4
144.4
144.4
144.4
144.4
144.4
144.4
144.4
144.4
144.4
144.4
144.4
144.4
144.4
144.4
144.4
144.4
144.4
144.4
144.4
144.4
144.4
144.4
144.4
144.4
144.4
144.4
144.4
144.4
144.4
144.4
144.4
144.4
144.4
144.4
144.4
144.4
144.4
144.4
144.4
144.4
144.4
144.4
144.4
144.4
144.4
144.4
144.4
144.4
144.4
144.4
144.4
144.4
144.4
144.4
144.4
144.4
144.4
144.4
144.4
144.4
144.4
144.4
144.4
144.4
144.4
144.4
144.4
144.4
144.4
144.4
144.4
144.4
144.4
144.4
144.4
144.4
144.4
144.4
144.4
144.4
144.4
144.4
144.405
144.405
144.404
144.403
144.403
144.402
144.402
144.401
144.401
144.401
144.401
144.4
144.4
144.4
144.4
144.4
144.4
144.4
144.4
144.4
144.4
144.4
144.4
144.4
144.4
144.4
144.4
144.4
144.4
144.4
144.4
144.4
144.4
144.4
144.4
144.4
144.4
144.4
144.4
144.4
144.4
144.4
144.4
144.4
144.4
144.4
144.4
144.4
144.4
144.4
144.4
144.4
144.4
144.4
144.4
144.4
144.4
144.4
144.4
144.4
144.4
144.4
144.4
144.4
144.4
144.4
144.4
144.4
144.4
144.4
144.4
144.4
144.4
144.4
144.4
144.4
144.4
144.4
144.4
144.4
144.4
144.4
144.4
144.4
144.4
144.4
144.4
144.4
144.4
144.4
144.4
144.4
144.4
144.4
144.4
144.4
144.4
144.4
144.4
144.4
144.4
144.4
144.4
144.4
144.4
144.4
144.4
144.4
144.4
144.4
144.4
144.4
144.4
144.4
144.4
144.4
144.4
144.4
144.4
144.4
144.4
144.4
144.4
144.4
144.4
144.438
144.432
144.427
144.422
144.418
144.415
144.412
144.409
144.407
144.406
144.404
144.403
144.403
144.402
144.401
144.401
144.401
144.401
144.4
144.4
144.4
144.4
144.4
144.4
144.4
144.4
144.4
144.4
144.4
144.4
144.4
144.4
144.4
144.4
144.4
144.4
144.4
144.4
144.4
144.4
144.4
144.4
144.4
144.4
144.4
144.4
144.4
144.4
144.4
144.4
144.4
144.4
144.4
144.4
144.4
144.4
144.4
144.4
144.4
144.4
144.4
144.4
144.4
144.4
144.4
144.4
144.4
144.4
144.4
144.4
144.4
144.4
144.4
144.4
144.4
144.4
144.4
144.4
144.4
144.4
144.4
144.4
144.4
144.4
144.4
144.4
144.4
144.4
144.4
144.4
144.4
144.4
144.4
144.4
144.4
144.4
144.4
144.4
144.4
144.4
144.4
144.4
144.4
144.4
144.4
144.4
144.4
144.4
144.4
144.4
144.4
144.4
144.4
144.4
144.4
144.4
144.4
144.4
144.4
144.4
144.4
144.4
144.4
144.4
144.4
144.66
144.618
144.582
144.55
144.523
144.499
144.48
144.463
144.45
144.439
144.43
144.423
144.417
144.413
144.409
144.407
144.405
144.403
144.402
144.402
144.401
144.401
144.401
144.4
144.4
144.4
144.4
144.4
144.4
144.4
144.4
144.4
144.4
144.4
144.4
144.4
144.4
144.4
144.4
144.4
144.4
144.4
144.4
144.4
144.4
144.4
144.4
144.4
144.4
144.4
144.4
144.4
144.4
144.4
144.4
144.4
144.4
144.4
144.4
144.4
144.4
144.4
144.4
144.4
144.4
144.4
144.4
144.4
144.4
144.4
144.4
144.4
144.4
144.4
144.4
144.4
144.4
144.4
144.4
144.4
144.4
144.4
144.4
144.4
144.4
144.4
144.4
144.4
144.4
144.4
144.4
144.4
144.4
144.4
144.4
144.4
144.4
144.4
144.4
144.4
144.4
144.4
144.4
144.4
144.4
144.4
144.4
144.4
144.4
144.4
144.4
144.4
144.4
144.4
144.4
144.4
144.4
144.4
144.4
144.4
144.4
144.4
144.4
144.4
144.4
146.419
146.111
145.838
145.597
145.388
145.208
145.054
144.925
144.817
144.728
144.655
144.596
144.549
144.512
144.484
144.462
144.445
144.432
144.423
144.416
144.411
144.408
144.405
144.403
144.402
144.401
144.401
144.401
144.4
144.4
144.4
144.4
144.4
144.4
144.4
144.4
144.4
144.4
144.4
144.4
144.4
144.4
144.4
144.4
144.4
144.4
144.4
144.4
144.4
144.4
144.4
144.4
144.4
144.4
144.4
144.4
144.4
144.4
144.4
144.4
144.4
144.4
144.4
144.4
144.4
144.4
144.4
144.4
144.4
144.4
144.4
144.4
144.4
144.4
144.4
144.4
144.4
144.4
144.4
144.4
144.4
144.4
144.4
144.4
144.4
144.4
144.4
144.4
144.4
144.4
144.4
144.4
144.4
144.4
144.4
144.4
144.4
144.4
144.4
144.4
144.4
144.4
144.4
144.4
144.4
144.4
144.4
144.4
144.4
144.4
144.4
144.4
144.4
144.4
144.4
144.4
144.4
144.4
144.4
144.4
144.4
144.4
144.4
144.4
144.4
144.4
156.981
155.117
153.441
151.955
150.653
149.526
148.563
147.748
147.065
146.498
146.033
145.657
145.358
145.122
144.938
144.796
144.688
144.607
144.547
144.503
144.472
144.449
144.433
144.422
144.414
144.409
144.406
144.404
144.402
144.401
144.401
144.4
144.4
144.4
144.4
144.4
144.4
144.4
144.4
144.4
144.4
144.4
144.4
144.4
144.4
144.4
144.4
144.4
144.4
144.4
144.4
144.4
144.4
144.4
144.4
144.4
144.4
144.4
144.4
144.4
144.4
144.4
144.4
144.4
144.4
144.4
144.4
144.4
144.4
144.4
144.4
144.4
144.4
144.4
144.4
144.4
144.4
144.4
144.4
144.401
144.401
144.401
144.401
144.401
144.401
144.401
144.401
144.401
144.401
144.401
144.401
144.401
144.401
144.401
144.401
144.401
144.401
144.401
144.401
144.401
144.401
144.401
144.401
144.401
144.401
144.401
144.401
144.401
144.401
144.401
144.401
144.401
144.401
144.401
144.401
144.401
144.4
144.4
144.4
144.4
144.4
144.4
144.4
144.4
144.4
144.4
144.4
144.4
211.237
202.497
194.355
186.882
180.128
174.117
168.846
164.289
160.395
157.106
154.365
152.117
150.305
148.867
147.741
146.869
146.202
145.698
145.323
145.048
144.85
144.708
144.608
144.539
144.491
144.459
144.438
144.424
144.415
144.409
144.405
144.403
144.402
144.401
144.401
144.4
144.4
144.4
144.4
144.4
144.4
144.4
144.4
144.4
144.4
144.4
144.4
144.4
144.4
144.4
144.4
144.4
144.4
144.4
144.4
144.4
144.4
144.4
144.4
144.4
144.4
144.4
144.4
144.4
144.4
144.4
144.401
144.401
144.401
144.401
144.401
144.401
144.401
144.401
144.401
144.401
144.402
144.402
144.402
144.402
144.402
144.402
144.402
144.403
144.403
144.403
144.403
144.403
144.403
144.403
144.403
144.403
144.403
144.403
144.403
144.403
144.403
144.403
144.403
144.403
144.403
144.403
144.403
144.403
144.403
144.403
144.403
144.403
144.403
144.403
144.402
144.402
144.402
144.402
144.402
144.402
144.402
144.402
144.402
144.402
144.402
144.402
144.402
144.402
144.402
144.402
144.402
144.402
391.186
367.237
343.607
320.594
298.503
277.622
258.201
240.425
224.38
210.063
197.468
186.599
177.427
169.861
163.745
158.884
155.081
152.156
149.951
148.319
147.13
146.276
145.67
145.248
144.958
144.762
144.632
144.546
144.49
144.455
144.433
144.419
144.411
144.406
144.403
144.402
144.401
144.4
144.4
144.4
144.4
144.4
144.4
144.4
144.4
144.4
144.4
144.4
144.4
144.4
144.4
144.4
144.4
144.4
144.4
144.4
144.4
144.4
144.401
144.401
144.401
144.401
144.401
144.401
144.402
144.402
144.402
144.402
144.403
144.403
144.404
144.404
144.404
144.405
144.405
144.406
144.406
144.407
144.408
144.408
144.409
144.409
144.41
144.41
144.411
144.411
144.412
144.412
144.413
144.413
144.413
144.413
144.413
144.414
144.414
144.414
144.414
144.413
144.413
144.413
144.413
144.413
144.412
144.412
144.412
144.411
144.411
144.411
144.41
144.41
144.41
144.409
144.409
144.409
144.408
144.408
144.408
144.407
144.407
144.407
144.407
144.406
144.406
144.406
144.406
144.406
144.406
144.406
722.671
687.49
650.792
612.817
573.893
534.436
494.973
456.131
418.508
382.358
347.886
315.531
285.828
259.23
235.994
216.117
199.433
185.745
174.823
166.358
159.962
155.234
151.811
149.385
147.701
146.552
145.781
145.272
144.941
144.731
144.598
144.517
144.467
144.438
144.421
144.411
144.406
144.403
144.401
144.401
144.4
144.4
144.4
144.4
144.4
144.4
144.4
144.4
144.4
144.4
144.4
144.4
144.401
144.401
144.401
144.401
144.401
144.402
144.402
144.403
144.403
144.404
144.405
144.405
144.406
144.407
144.408
144.41
144.411
144.412
144.414
144.416
144.417
144.419
144.421
144.423
144.426
144.428
144.43
144.432
144.434
144.436
144.438
144.44
144.442
144.444
144.445
144.447
144.448
144.449
144.45
144.451
144.451
144.452
144.452
144.452
144.452
144.451
144.451
144.45
144.449
144.448
144.447
144.446
144.445
144.443
144.442
144.441
144.439
144.438
144.437
144.435
144.434
144.433
144.431
144.43
144.429
144.428
144.427
144.426
144.425
144.425
144.424
144.424
144.424
144.424
144.424
144.424
144.425
1056.64
1020.16
980.595
938.029
892.744
845.264
796.383
747.175
697.427
646.356
594.145
541.535
489.567
439.521
392.416
348.729
308.992
273.853
243.794
218.884
198.817
183.131
171.278
162.621
156.488
152.256
149.407
147.532
146.324
145.559
145.085
144.796
144.624
144.524
144.466
144.434
144.417
144.408
144.404
144.402
144.401
144.4
144.4
144.4
144.4
144.401
144.401
144.401
144.401
144.402
144.402
144.402
144.403
144.404
144.405
144.406
144.407
144.409
144.411
144.413
144.415
144.418
144.421
144.425
144.429
144.433
144.438
144.443
144.449
144.455
144.461
144.468
144.475
144.483
144.491
144.498
144.507
144.515
144.523
144.531
144.539
144.546
144.554
144.56
144.567
144.573
144.578
144.582
144.586
144.59
144.592
144.594
144.595
144.596
144.595
144.594
144.593
144.591
144.588
144.585
144.581
144.577
144.573
144.568
144.563
144.558
144.553
144.548
144.543
144.537
144.532
144.527
144.523
144.518
144.514
144.51
144.506
144.502
144.499
144.496
144.494
144.492
144.491
144.491
144.491
144.492
144.494
144.497
1288.62
1268.74
1246.85
1222.62
1195.59
1165.17
1130.68
1091.43
1047.15
997.948
943.995
885.801
824.538
762.101
700.06
637.345
573.936
510.973
450.33
393.857
342.62
297.437
259.009
227.621
202.958
184.313
170.781
161.348
155.008
150.881
148.268
146.656
145.684
145.112
144.784
144.6
144.501
144.449
144.423
144.41
144.405
144.402
144.402
144.402
144.402
144.402
144.403
144.404
144.405
144.406
144.408
144.41
144.413
144.416
144.419
144.424
144.429
144.435
144.442
144.45
144.46
144.47
144.482
144.496
144.511
144.527
144.546
144.566
144.587
144.61
144.634
144.66
144.687
144.715
144.744
144.774
144.804
144.834
144.863
144.893
144.921
144.949
144.975
145
145.023
145.044
145.062
145.078
145.092
145.104
145.113
145.119
145.123
145.123
145.122
145.118
145.111
145.103
145.092
145.08
145.067
145.052
145.036
145.019
145.001
144.983
144.964
144.945
144.927
144.908
144.89
144.872
144.854
144.838
144.822
144.807
144.794
144.781
144.77
144.76
144.752
144.747
144.744
144.745
144.746
144.751
144.759
144.772
1374.51
1360.82
1346.39
1331.09
1314.68
1296.77
1276.85
1254.41
1229.02
1200.22
1167.32
1129.27
1084.74
1032.69
973.347
907.521
836.749
763.735
691.263
618.595
545.93
475.13
408.931
349.361
297.736
254.903
221.024
195.494
177.179
164.675
156.522
151.422
148.343
146.545
145.528
144.971
144.677
144.529
144.458
144.425
144.412
144.408
144.407
144.408
144.409
144.411
144.415
144.419
144.425
144.431
144.439
144.449
144.461
144.475
144.492
144.512
144.535
144.562
144.594
144.629
144.67
144.715
144.766
144.823
144.885
144.953
145.027
145.106
145.191
145.281
145.376
145.475
145.577
145.683
145.79
145.898
146.006
146.113
146.219
146.321
146.419
146.512
146.599
146.679
146.751
146.816
146.873
146.921
146.96
146.99
147.011
147.021
147.022
147.015
146.999
146.975
146.943
146.905
146.86
146.811
146.758
146.7
146.64
146.577
146.511
146.445
146.378
146.311
146.245
146.18
146.117
146.056
145.997
145.942
145.89
145.843
145.799
145.761
145.727
145.701
145.685
145.682
145.685
145.693
145.714
145.75
145.807
1420.63
1409.18
1397.27
1384.89
1371.8
1357.84
1342.84
1326.71
1309.46
1291.11
1271.37
1249.35
1223.94
1194.15
1159.21
1117.97
1068.65
1009.5
940.681
863.905
782.489
700.907
619.617
538.785
460.734
388.867
325.814
273.203
231.647
200.682
178.971
164.652
155.741
150.48
147.52
145.931
145.116
144.72
144.539
144.463
144.436
144.431
144.432
144.436
144.445
144.458
144.475
144.496
144.521
144.552
144.59
144.635
144.689
144.753
144.828
144.915
145.017
145.133
145.265
145.415
145.584
145.771
145.978
146.205
146.453
146.72
147.007
147.313
147.635
147.973
148.325
148.687
149.057
149.433
149.81
150.185
150.554
150.915
151.263
151.596
151.911
152.203
152.471
152.712
152.925
153.11
153.266
153.392
153.487
153.552
153.581
153.58
153.55
153.49
153.402
153.29
153.156
153.005
152.836
152.653
152.458
152.251
152.036
151.815
151.589
151.362
151.136
150.911
150.691
150.476
150.27
150.073
149.887
149.714
149.554
149.41
149.283
149.176
149.095
149.056
149.056
149.072
149.117
149.209
149.361
149.587
149.906
150.344
1466.29
1455.2
1443.38
1430.95
1418.19
1405.25
1392.36
1379.37
1365.77
1351.82
1337.53
1322.3
1305.68
1287.33
1267.28
1245.61
1221.47
1193.08
1158.81
1117.19
1066.26
1003.68
929.032
844.498
754.984
665.434
576.235
489.011
407.57
335.735
276.152
229.897
196.483
174.145
160.346
152.445
148.231
146.129
145.15
144.729
144.569
144.53
144.53
144.543
144.573
144.621
144.685
144.764
144.86
144.977
145.118
145.286
145.486
145.722
145.998
146.319
146.688
147.111
147.589
148.128
148.729
149.394
150.125
150.921
151.782
152.706
153.69
154.729
155.817
156.947
158.11
159.299
160.504
161.714
162.918
164.105
165.264
166.387
167.463
168.483
169.438
170.32
171.12
171.834
172.46
173
173.452
173.811
174.077
174.253
174.322
174.306
174.201
174.004
173.724
173.375
172.966
172.503
171.991
171.434
170.839
170.21
169.554
168.878
168.189
167.494
166.798
166.108
165.429
164.769
164.131
163.523
162.949
162.416
161.928
161.488
161.102
160.784
160.566
160.497
160.519
160.602
160.806
161.177
161.752
162.58
163.724
165.275
1501.99
1491.06
1479.71
1468.08
1456.35
1444.57
1432.74
1420.73
1408.14
1394.73
1380.55
1365.85
1351.27
1336.86
1321.45
1305.78
1289.39
1271.34
1251.09
1228.59
1203.36
1173.56
1136.88
1090.93
1032.77
960.047
873.699
778.375
680.975
583.484
488.008
399.088
321.633
259.176
212.999
182.048
163.389
153.269
148.302
146.086
145.207
144.944
144.924
144.958
145.059
145.231
145.465
145.758
146.113
146.541
147.052
147.66
148.379
149.222
150.2
151.326
152.612
154.065
155.696
157.509
159.507
161.688
164.05
166.583
169.28
172.128
175.11
178.208
181.397
184.651
187.944
191.247
194.533
197.775
200.945
204.016
206.967
209.779
212.436
214.922
217.217
219.306
221.175
222.819
224.242
225.452
226.454
227.234
227.789
228.14
228.249
228.18
227.883
227.365
226.667
225.82
224.84
223.736
222.515
221.186
219.761
218.254
216.677
215.046
213.375
211.68
209.976
208.277
206.6
204.959
203.37
201.848
200.408
199.07
197.851
196.757
195.8
195.038
194.603
194.559
194.676
195.036
195.77
196.979
198.763
201.244
204.586
209.005
1520.89
1509.62
1498.27
1486.92
1475.58
1464.16
1452.5
1440.35
1427.53
1414.29
1401.01
1387.95
1374.96
1360.95
1345.73
1329.89
1314.38
1298.9
1282.17
1264.93
1246.13
1224.99
1201.06
1172.91
1138.14
1093.89
1036.4
962.002
870.815
768.239
662.106
555.201
451.562
357.652
279.919
222.228
184.559
163.204
152.703
148.226
146.695
146.46
146.544
146.861
147.454
148.287
149.33
150.588
152.083
153.851
155.927
158.343
161.128
164.306
167.89
171.891
176.312
181.149
186.391
192.015
197.99
204.271
210.809
217.556
224.461
231.473
238.538
245.6
252.598
259.473
266.173
272.652
278.871
284.79
290.378
295.617
300.503
305.03
309.186
312.952
316.317
319.272
321.82
323.982
325.79
327.258
328.356
329.078
329.487
329.545
329.355
328.732
327.745
326.514
325.07
323.424
321.576
319.533
317.31
314.924
312.393
309.737
306.977
304.135
301.235
298.301
295.358
292.434
289.557
286.755
284.058
281.5
279.126
276.971
275.052
273.38
272.139
271.662
271.751
272.197
273.237
275.059
277.834
281.743
286.994
293.843
302.606
1548.85
1537.59
1526.21
1514.72
1503.08
1491.21
1479.04
1466.51
1453.68
1440.81
1428.15
1415.76
1403.32
1390.12
1376.04
1361.79
1348
1334.35
1318.76
1302.16
1285.97
1270.05
1252.71
1234.02
1213.24
1189.76
1161.77
1126.39
1080.02
1017.73
934.876
832.273
718.003
599.362
481.604
373.082
283.531
219.474
180.863
161.615
153.987
152.249
152.389
153.3
155.209
157.974
161.422
165.495
170.217
175.638
181.807
188.752
196.483
204.981
214.202
224.079
234.531
245.47
256.808
268.449
280.287
292.206
304.09
315.839
327.371
338.621
349.534
360.06
370.142
379.721
388.75
397.199
405.043
412.253
418.815
424.749
430.101
434.908
439.181
442.92
446.14
448.848
451.067
452.84
454.234
455.288
455.944
456.129
456.081
455.822
455.259
454.254
452.846
451.254
449.519
447.62
445.535
443.261
440.809
438.198
435.446
432.567
429.576
426.492
423.337
420.132
416.904
413.677
410.489
407.375
404.362
401.502
398.86
396.499
394.437
392.611
391.588
391.545
391.94
393.016
394.956
397.954
402.213
407.919
415.262
424.467
435.77
449.365
465.2
1573.37
1562.04
1550.56
1538.89
1527.02
1514.91
1502.55
1489.99
1477.3
1464.62
1451.97
1439.28
1426.29
1412.82
1399.05
1385.52
1372.54
1359.51
1345.35
1330.54
1316.26
1302.29
1285.89
1268.73
1252.59
1235.37
1216.34
1195.11
1171.02
1141.26
1101.66
1046.88
969.818
866.645
743.417
611.32
479.705
361.109
269.055
210.463
181.542
172.468
172.22
174.39
179.715
187.566
197.121
207.943
219.891
232.915
246.95
261.898
277.622
293.957
310.711
327.678
344.659
361.486
378.035
394.211
409.916
425.029
439.414
452.953
465.571
477.227
487.91
497.649
506.466
514.374
521.38
527.498
532.783
537.261
540.939
543.898
546.257
548.109
549.499
550.438
550.98
551.143
551.058
550.713
550.125
549.369
548.427
547.293
546.055
544.66
543.171
541.646
540.045
538.291
536.44
534.547
532.62
530.657
528.668
526.66
524.633
522.586
520.522
518.449
516.385
514.335
512.316
510.335
508.427
506.612
504.884
503.296
501.905
500.764
499.813
499.207
499.28
499.779
500.743
502.172
504.231
507.097
510.799
515.292
520.657
526.974
534.152
541.992
550.363
1581.77
1570.19
1558.42
1546.47
1534.34
1522.04
1509.62
1497.12
1484.54
1471.86
1458.99
1445.83
1432.42
1418.94
1405.59
1392.35
1378.8
1364.75
1350.7
1337.33
1324
1309.45
1294.49
1280.29
1264.37
1246.89
1229.98
1212.75
1192.99
1170.52
1143.57
1106.96
1054.15
976.166
866.199
730.404
584.653
445.854
333.363
261.661
231.16