/*--------------------------------*- C++ -*----------------------------------*\
| =========                 |                                                 |
| \\      /  F ield         | OpenFOAM: The Open Source CFD Toolbox           |
|  \\    /   O peration     | Version:  v1706                                 |
|   \\  /    A nd           | Web:      www.OpenFOAM.com                      |
|    \\/     M anipulation  |                                                 |
\*---------------------------------------------------------------------------*/
FoamFile
{
    version     2.0;
    format      ascii;
    class       volVectorField;
    location    "8e-06";
    object      U;
}
// * * * * * * * * * * * * * * * * * * * * * * * * * * * * * * * * * * * * * //

dimensions      [0 1 -1 0 0 0 0];


internalField   nonuniform List<vector> 
29871
(
(2764.5 -3.86811e-11 5.9431e-15)
(2764.5 -3.86651e-11 4.34182e-15)
(2764.5 -3.83211e-11 4.80096e-15)
(2764.5 -3.85811e-11 3.99077e-15)
(2764.5 -3.9972e-11 1.71608e-15)
(2764.5 -3.94636e-11 1.96431e-15)
(2764.5 -3.75658e-11 3.00846e-15)
(2764.5 -3.60202e-11 3.18501e-15)
(2764.5 -3.46176e-11 3.71122e-15)
(2764.5 -3.39125e-11 3.68397e-15)
(2764.5 -3.44681e-11 3.64256e-15)
(2764.5 -3.72444e-11 6.48376e-15)
(2764.5 -4.0528e-11 4.54427e-15)
(2764.5 -4.11365e-11 4.42973e-15)
(2764.5 -4.17913e-11 3.7243e-15)
(2764.5 -4.08612e-11 2.69109e-15)
(2764.5 -3.99968e-11 2.86744e-15)
(2764.5 -4.05317e-11 3.5245e-15)
(2764.5 -4.05944e-11 5.0005e-15)
(2764.5 -4.00786e-11 5.04534e-15)
(2764.5 -4.10713e-11 2.76067e-15)
(2764.5 -4.31209e-11 3.83613e-15)
(2764.5 -4.68209e-11 1.50129e-15)
(2764.5 -4.84027e-11 2.44093e-15)
(2764.5 -4.98851e-11 4.62343e-15)
(2764.5 -4.98266e-11 4.11614e-15)
(2764.5 -4.75337e-11 6.06672e-15)
(2764.5 -4.35145e-11 3.46943e-15)
(2764.5 -3.92336e-11 1.5858e-15)
(2764.5 -3.89324e-11 3.67518e-15)
(2764.5 -3.95215e-11 4.05803e-15)
(2764.5 -4.13891e-11 2.57689e-15)
(2764.5 -4.27419e-11 3.66747e-15)
(2764.5 -4.27413e-11 5.57649e-15)
(2764.5 -4.3005e-11 4.26056e-15)
(2764.5 -4.3794e-11 9.56487e-16)
(2764.5 -4.24372e-11 -8.53418e-16)
(2764.5 -4.12421e-11 3.13813e-15)
(2764.5 -4.15092e-11 3.43624e-15)
(2764.5 -4.26002e-11 3.98754e-15)
(2764.5 -4.23515e-11 5.31452e-15)
(2764.5 -4.26273e-11 6.011e-15)
(2764.5 -4.28937e-11 6.14275e-15)
(2764.5 -4.21501e-11 3.66199e-15)
(2764.5 -4.12326e-11 3.08699e-15)
(2764.5 -4.10625e-11 3.53502e-15)
(2764.5 -4.00912e-11 2.7275e-15)
(2764.5 -3.89564e-11 4.40472e-16)
(2764.5 -3.58125e-11 -4.23062e-16)
(2764.5 -3.3218e-11 4.41818e-15)
(2764.5 -2.85544e-11 5.25456e-15)
(2764.5 -2.70242e-11 1.78182e-15)
(2764.5 -2.96028e-11 2.09741e-15)
(2764.5 -3.21899e-11 3.90043e-15)
(2764.5 -3.40152e-11 3.49253e-15)
(2764.5 -3.44078e-11 3.9081e-15)
(2764.5 -3.51036e-11 4.71899e-15)
(2764.5 -3.68023e-11 4.83169e-15)
(2764.5 -3.92939e-11 4.25761e-15)
(2764.5 -4.00172e-11 5.39834e-15)
(2764.5 -4.06959e-11 2.01007e-15)
(2764.5 -4.15559e-11 1.48266e-15)
(2764.5 -4.2456e-11 1.73793e-15)
(2764.5 -4.36184e-11 3.60683e-16)
(2764.5 -4.46298e-11 2.02153e-15)
(2764.5 -4.47971e-11 5.10939e-15)
(2764.5 -4.25757e-11 3.06328e-15)
(2764.5 -4.17954e-11 2.6509e-15)
(2764.5 -4.12869e-11 1.87123e-15)
(2764.5 -4.10496e-11 2.05358e-15)
(2764.5 -4.08303e-11 2.90377e-15)
(2764.5 -4.00282e-11 3.10025e-15)
(2764.5 -3.81389e-11 2.16036e-15)
(2764.5 -3.34916e-11 2.5141e-15)
(2764.5 -3.14665e-11 2.20123e-15)
(2764.5 -3.29281e-11 3.94456e-15)
(2764.5 -3.46018e-11 1.42242e-15)
(2764.5 -3.58668e-11 2.10889e-15)
(2764.5 -3.79508e-11 2.36254e-15)
(2764.5 -3.98601e-11 3.926e-15)
(2764.5 -3.95151e-11 4.34052e-15)
(2764.5 -3.63641e-11 3.59697e-15)
(2764.5 -3.23372e-11 3.95202e-15)
(2764.5 -2.65839e-11 2.10416e-15)
(2764.5 -2.60585e-11 4.80328e-15)
(2764.5 -2.74951e-11 4.37831e-15)
(2764.5 -2.7155e-11 3.16956e-15)
(2764.5 -3.07191e-11 4.30774e-15)
(2764.5 -3.40875e-11 4.69586e-15)
(2764.5 -3.23502e-11 3.96867e-15)
(2764.5 -2.69092e-11 4.45871e-15)
(2764.5 -2.4397e-11 1.50895e-15)
(2764.5 -2.53591e-11 2.48593e-15)
(2764.5 -2.71404e-11 4.24279e-15)
(2764.5 -3.30421e-11 2.37901e-15)
(2764.5 -3.99692e-11 2.08733e-15)
(2764.5 -4.35559e-11 2.06669e-15)
(2764.5 -4.76216e-11 2.51332e-15)
(2764.5 -4.92938e-11 2.39065e-15)
(2764.5 -4.84667e-11 2.64654e-15)
(2764.5 -4.8378e-11 3.892e-15)
(2764.5 -4.13462e-11 3.36731e-15)
(2764.5 -3.83837e-11 2.2865e-15)
(2764.5 -3.80154e-11 2.0112e-15)
(2764.5 -3.8138e-11 5.76087e-16)
(2764.5 -1.22725e-10 9.81876e-15)
(2764.5 -1.21984e-10 1.0297e-14)
(2764.5 -1.20054e-10 1.18137e-14)
(2764.5 -1.18138e-10 1.20384e-14)
(2764.5 -1.16365e-10 1.02557e-14)
(2764.5 -1.17918e-10 1.27242e-14)
(2764.5 -1.20915e-10 1.2777e-14)
(2764.5 -1.23957e-10 1.14827e-14)
(2764.5 -1.24006e-10 1.1383e-14)
(2764.5 -1.2237e-10 1.12927e-14)
(2764.5 -1.15363e-10 1.13683e-14)
(2764.5 -1.11541e-10 1.09908e-14)
(2764.5 -1.1283e-10 1.34169e-14)
(2764.5 -1.13232e-10 1.3444e-14)
(2764.5 -1.15431e-10 6.03564e-15)
(2764.5 -1.18701e-10 7.61178e-15)
(2764.5 -1.20848e-10 1.1501e-14)
(2764.5 -1.202e-10 1.13859e-14)
(2764.5 -1.21505e-10 9.17218e-15)
(2764.5 -1.1937e-10 7.96136e-15)
(2764.5 -1.14812e-10 8.08394e-15)
(2764.5 -1.10497e-10 1.00709e-14)
(2764.5 -1.0949e-10 1.08689e-14)
(2764.5 -1.10351e-10 1.44444e-14)
(2764.5 -1.12801e-10 1.06176e-14)
(2764.5 -1.15818e-10 1.09402e-14)
(2764.5 -1.21233e-10 1.16102e-14)
(2764.5 -1.28775e-10 1.08082e-14)
(2764.5 -1.30208e-10 1.08935e-14)
(2764.5 -1.27669e-10 1.09936e-14)
(2764.5 -1.25732e-10 1.11422e-14)
(2764.5 -1.24451e-10 7.5781e-15)
(2764.5 -1.24091e-10 9.87096e-15)
(2764.5 -1.25803e-10 1.3357e-14)
(2764.5 -1.24745e-10 1.24125e-14)
(2764.5 -1.25393e-10 1.33434e-14)
(2764.5 -1.28266e-10 9.23515e-15)
(2764.5 -1.2723e-10 1.15706e-14)
(2764.5 -1.23128e-10 1.05667e-14)
(2764.5 -1.22587e-10 1.14731e-14)
(2764.5 -1.24131e-10 1.19072e-14)
(2764.5 -1.23627e-10 1.08283e-14)
(2764.5 -1.24272e-10 1.13188e-14)
(2764.5 -1.26536e-10 1.05705e-14)
(2764.5 -1.25552e-10 9.96238e-15)
(2764.5 -1.27638e-10 1.08272e-14)
(2764.5 -1.28174e-10 1.11462e-14)
(2764.5 -1.27023e-10 8.38417e-15)
(2764.5 -1.25678e-10 1.07319e-14)
(2764.5 -1.20963e-10 8.8589e-15)
(2764.5 -1.18818e-10 6.40841e-15)
(2764.5 -1.14891e-10 8.80618e-15)
(2764.5 -1.08216e-10 1.22727e-14)
(2764.5 -1.08249e-10 9.84873e-15)
(2764.5 -1.08288e-10 1.00299e-14)
(2764.5 -1.11225e-10 9.53161e-15)
(2764.5 -1.11214e-10 1.00791e-14)
(2764.5 -1.09844e-10 1.1056e-14)
(2764.5 -1.08104e-10 8.1577e-15)
(2764.5 -1.10725e-10 4.74082e-15)
(2764.5 -1.1347e-10 1.03857e-14)
(2764.5 -1.13933e-10 6.66127e-15)
(2764.5 -1.11295e-10 7.41753e-15)
(2764.5 -1.10684e-10 7.35921e-15)
(2764.5 -1.09752e-10 8.11691e-15)
(2764.5 -1.12271e-10 7.05972e-15)
(2764.5 -1.15428e-10 6.00823e-15)
(2764.5 -1.12093e-10 8.93716e-15)
(2764.5 -1.11344e-10 1.04634e-14)
(2764.5 -1.11469e-10 8.8261e-15)
(2764.5 -1.1371e-10 1.04912e-14)
(2764.5 -1.15003e-10 7.69072e-15)
(2764.5 -1.19529e-10 5.68218e-15)
(2764.5 -1.26895e-10 9.71548e-15)
(2764.5 -1.23051e-10 8.35694e-15)
(2764.5 -1.18535e-10 8.41349e-15)
(2764.5 -1.17817e-10 6.83711e-15)
(2764.5 -1.16966e-10 8.16896e-15)
(2764.5 -1.16154e-10 7.27511e-15)
(2764.5 -1.17602e-10 1.0966e-14)
(2764.5 -1.23116e-10 1.00628e-14)
(2764.5 -1.33617e-10 8.49043e-15)
(2764.5 -1.39523e-10 8.80773e-15)
(2764.5 -1.40744e-10 9.94817e-15)
(2764.5 -1.35342e-10 1.12683e-14)
(2764.5 -1.28773e-10 1.12619e-14)
(2764.5 -1.26657e-10 1.19031e-14)
(2764.5 -1.17041e-10 1.07589e-14)
(2764.5 -1.16795e-10 1.06558e-14)
(2764.5 -1.18057e-10 1.10537e-14)
(2764.5 -1.27927e-10 8.91666e-15)
(2764.5 -1.26227e-10 7.26825e-15)
(2764.5 -1.2008e-10 1.18303e-14)
(2764.5 -1.1025e-10 1.10204e-14)
(2764.5 -1.00928e-10 9.37126e-15)
(2764.5 -9.77735e-11 8.60586e-15)
(2764.5 -9.92435e-11 9.71378e-15)
(2764.5 -1.03344e-10 1.00952e-14)
(2764.5 -1.08647e-10 9.67301e-15)
(2764.5 -1.15363e-10 5.78239e-15)
(2764.5 -1.19806e-10 7.93609e-15)
(2764.5 -1.26809e-10 9.39635e-15)
(2764.5 -1.2698e-10 7.65756e-15)
(2764.5 -1.24711e-10 8.06899e-15)
(2764.5 -1.22272e-10 5.02464e-15)
(2764.5 -2.13222e-10 2.2566e-14)
(2764.5 -2.11929e-10 2.28694e-14)
(2764.5 -2.12319e-10 1.86649e-14)
(2764.5 -2.11209e-10 1.90886e-14)
(2764.5 -2.12236e-10 2.31405e-14)
(2764.5 -2.10435e-10 1.96125e-14)
(2764.5 -2.02116e-10 2.01839e-14)
(2764.5 -1.97899e-10 1.92577e-14)
(2764.5 -1.96276e-10 2.20721e-14)
(2764.5 -2.02741e-10 2.05355e-14)
(2764.5 -2.05131e-10 1.85909e-14)
(2764.5 -2.03895e-10 1.73141e-14)
(2764.5 -2.00416e-10 1.51016e-14)
(2764.5 -1.98368e-10 1.67513e-14)
(2764.5 -1.95068e-10 1.75005e-14)
(2764.5 -1.93225e-10 1.91115e-14)
(2764.5 -1.92085e-10 1.6974e-14)
(2764.5 -1.93696e-10 1.82947e-14)
(2764.5 -1.94587e-10 1.59679e-14)
(2764.5 -1.9623e-10 1.56615e-14)
(2764.5 -2.03984e-10 1.58203e-14)
(2764.5 -2.06405e-10 1.48139e-14)
(2764.5 -2.04946e-10 1.65374e-14)
(2764.5 -1.99586e-10 1.98269e-14)
(2764.5 -1.93575e-10 1.44443e-14)
(2764.5 -1.90786e-10 1.59531e-14)
(2764.5 -1.89409e-10 1.95653e-14)
(2764.5 -1.882e-10 1.778e-14)
(2764.5 -1.90248e-10 1.7502e-14)
(2764.5 -1.94332e-10 1.80098e-14)
(2764.5 -2.01772e-10 1.77768e-14)
(2764.5 -2.00353e-10 1.81712e-14)
(2764.5 -2.0017e-10 1.75269e-14)
(2764.5 -1.98851e-10 1.80943e-14)
(2764.5 -1.98808e-10 1.83675e-14)
(2764.5 -1.98204e-10 1.83417e-14)
(2764.5 -1.98774e-10 1.89333e-14)
(2764.5 -2.00678e-10 1.83247e-14)
(2764.5 -2.05511e-10 1.70669e-14)
(2764.5 -2.05045e-10 1.91543e-14)
(2764.5 -2.01117e-10 1.89438e-14)
(2764.5 -2.0139e-10 1.64143e-14)
(2764.5 -2.00062e-10 1.67406e-14)
(2764.5 -1.97556e-10 1.62006e-14)
(2764.5 -1.9963e-10 1.77636e-14)
(2764.5 -1.99591e-10 1.61863e-14)
(2764.5 -1.99529e-10 1.86904e-14)
(2764.5 -2.054e-10 1.85896e-14)
(2764.5 -2.09489e-10 1.60555e-14)
(2764.5 -2.14023e-10 1.48684e-14)
(2764.5 -2.18427e-10 1.39505e-14)
(2764.5 -2.19588e-10 1.57576e-14)
(2764.5 -2.1986e-10 1.45778e-14)
(2764.5 -2.14422e-10 1.32524e-14)
(2764.5 -2.07957e-10 1.44764e-14)
(2764.5 -2.01577e-10 1.72352e-14)
(2764.5 -1.9901e-10 1.52515e-14)
(2764.5 -1.94235e-10 1.44655e-14)
(2764.5 -1.91807e-10 2.11826e-14)
(2764.5 -1.85685e-10 1.64831e-14)
(2764.5 -1.82866e-10 1.42897e-14)
(2764.5 -1.81885e-10 1.34773e-14)
(2764.5 -1.8594e-10 1.48199e-14)
(2764.5 -1.87059e-10 1.96632e-14)
(2764.5 -1.9233e-10 1.40175e-14)
(2764.5 -1.9439e-10 1.41443e-14)
(2764.5 -1.93671e-10 1.42843e-14)
(2764.5 -1.98374e-10 1.42048e-14)
(2764.5 -2.07792e-10 1.5386e-14)
(2764.5 -2.11575e-10 1.57571e-14)
(2764.5 -2.13534e-10 1.51942e-14)
(2764.5 -2.15612e-10 1.70557e-14)
(2764.5 -2.15782e-10 1.39685e-14)
(2764.5 -2.15112e-10 1.47035e-14)
(2764.5 -2.10667e-10 1.50754e-14)
(2764.5 -2.11955e-10 1.33881e-14)
(2764.5 -2.07598e-10 1.56053e-14)
(2764.5 -1.996e-10 1.77834e-14)
(2764.5 -1.91758e-10 1.38838e-14)
(2764.5 -1.88598e-10 1.31564e-14)
(2764.5 -1.80548e-10 1.63041e-14)
(2764.5 -1.75951e-10 1.51302e-14)
(2764.5 -1.74275e-10 1.58049e-14)
(2764.5 -1.83128e-10 1.47855e-14)
(2764.5 -1.88079e-10 1.69214e-14)
(2764.5 -1.90656e-10 1.89013e-14)
(2764.5 -1.90998e-10 1.6143e-14)
(2764.5 -1.87551e-10 1.45701e-14)
(2764.5 -1.81237e-10 1.71361e-14)
(2764.5 -1.717e-10 1.54083e-14)
(2764.5 -1.69834e-10 1.63885e-14)
(2764.5 -1.69017e-10 1.59395e-14)
(2764.5 -1.7637e-10 1.33808e-14)
(2764.5 -1.80148e-10 1.57466e-14)
(2764.5 -1.78346e-10 1.56474e-14)
(2764.5 -1.69944e-10 1.53119e-14)
(2764.5 -1.57028e-10 1.29785e-14)
(2764.5 -1.52411e-10 1.56317e-14)
(2764.5 -1.4948e-10 1.43555e-14)
(2764.5 -1.51062e-10 1.28319e-14)
(2764.5 -1.57369e-10 1.28888e-14)
(2764.5 -1.62997e-10 1.37155e-14)
(2764.5 -1.67583e-10 1.2495e-14)
(2764.5 -1.7465e-10 1.26935e-14)
(2764.5 -1.79916e-10 1.3141e-14)
(2764.5 -1.81266e-10 1.23693e-14)
(2764.5 -3.01137e-10 2.95766e-14)
(2764.5 -3.0298e-10 3.44635e-14)
(2764.5 -3.01624e-10 2.83162e-14)
(2764.5 -3.0091e-10 2.74706e-14)
(2764.5 -2.99028e-10 2.74147e-14)
(2764.5 -2.99125e-10 2.70499e-14)
(2764.5 -2.98588e-10 2.93216e-14)
(2764.5 -2.95095e-10 2.93476e-14)
(2764.5 -2.9166e-10 2.74408e-14)
(2764.5 -2.87796e-10 2.38423e-14)
(2764.5 -2.88432e-10 2.71594e-14)
(2764.5 -2.88905e-10 2.75015e-14)
(2764.5 -2.86403e-10 2.70082e-14)
(2764.5 -2.84924e-10 2.52054e-14)
(2764.5 -2.8296e-10 2.61379e-14)
(2764.5 -2.78791e-10 2.35481e-14)
(2764.5 -2.74749e-10 2.20274e-14)
(2764.5 -2.71783e-10 2.37084e-14)
(2764.5 -2.7032e-10 2.30835e-14)
(2764.5 -2.69812e-10 2.36506e-14)
(2764.5 -2.7267e-10 2.157e-14)
(2764.5 -2.76055e-10 2.53318e-14)
(2764.5 -2.80234e-10 2.82122e-14)
(2764.5 -2.85621e-10 2.44849e-14)
(2764.5 -2.85121e-10 2.37876e-14)
(2764.5 -2.83392e-10 2.38854e-14)
(2764.5 -2.7824e-10 2.67162e-14)
(2764.5 -2.74277e-10 2.55595e-14)
(2764.5 -2.68863e-10 2.26669e-14)
(2764.5 -2.63898e-10 2.54324e-14)
(2764.5 -2.66541e-10 2.42554e-14)
(2764.5 -2.65805e-10 2.61156e-14)
(2764.5 -2.69909e-10 2.34022e-14)
(2764.5 -2.68474e-10 2.66002e-14)
(2764.5 -2.71996e-10 2.63699e-14)
(2764.5 -2.70178e-10 2.62771e-14)
(2764.5 -2.68069e-10 2.73387e-14)
(2764.5 -2.68576e-10 2.40243e-14)
(2764.5 -2.70111e-10 2.5962e-14)
(2764.5 -2.75353e-10 2.2448e-14)
(2764.5 -2.76583e-10 2.37072e-14)
(2764.5 -2.75232e-10 2.81851e-14)
(2764.5 -2.73888e-10 2.38697e-14)
(2764.5 -2.71242e-10 2.4953e-14)
(2764.5 -2.69317e-10 2.61243e-14)
(2764.5 -2.70842e-10 2.42272e-14)
(2764.5 -2.67592e-10 2.31697e-14)
(2764.5 -2.69124e-10 2.2324e-14)
(2764.5 -2.76247e-10 2.82856e-14)
(2764.5 -2.79971e-10 2.435e-14)
(2764.5 -2.81984e-10 2.13758e-14)
(2764.5 -2.89018e-10 2.25923e-14)
(2764.5 -2.89589e-10 2.33896e-14)
(2764.5 -2.89654e-10 2.41949e-14)
(2764.5 -2.88483e-10 2.05882e-14)
(2764.5 -2.83848e-10 2.08654e-14)
(2764.5 -2.82417e-10 2.32985e-14)
(2764.5 -2.79169e-10 2.39169e-14)
(2764.5 -2.80361e-10 2.17728e-14)
(2764.5 -2.77603e-10 2.25742e-14)
(2764.5 -2.76815e-10 2.40184e-14)
(2764.5 -2.7225e-10 2.1751e-14)
(2764.5 -2.6978e-10 2.07878e-14)
(2764.5 -2.67315e-10 2.06102e-14)
(2764.5 -2.6487e-10 1.98829e-14)
(2764.5 -2.69905e-10 2.0292e-14)
(2764.5 -2.71539e-10 2.02203e-14)
(2764.5 -2.67027e-10 2.05134e-14)
(2764.5 -2.69456e-10 2.1445e-14)
(2764.5 -2.68664e-10 2.01427e-14)
(2764.5 -2.68429e-10 2.16446e-14)
(2764.5 -2.68432e-10 2.19544e-14)
(2764.5 -2.68215e-10 2.08633e-14)
(2764.5 -2.71188e-10 2.26142e-14)
(2764.5 -2.73145e-10 1.8872e-14)
(2764.5 -2.75316e-10 1.90783e-14)
(2764.5 -2.76526e-10 2.08524e-14)
(2764.5 -2.75731e-10 2.06211e-14)
(2764.5 -2.70607e-10 2.12897e-14)
(2764.5 -2.68093e-10 2.31829e-14)
(2764.5 -2.60573e-10 2.26105e-14)
(2764.5 -2.52352e-10 2.01617e-14)
(2764.5 -2.4882e-10 1.99326e-14)
(2764.5 -2.4998e-10 1.73187e-14)
(2764.5 -2.56159e-10 2.18514e-14)
(2764.5 -2.60281e-10 1.57964e-14)
(2764.5 -2.70827e-10 1.75671e-14)
(2764.5 -2.79844e-10 2.34772e-14)
(2764.5 -2.84666e-10 2.1486e-14)
(2764.5 -2.83633e-10 1.91314e-14)
(2764.5 -2.78088e-10 1.98061e-14)
(2764.5 -2.74415e-10 1.98423e-14)
(2764.5 -2.73627e-10 2.01805e-14)
(2764.5 -2.78156e-10 2.27147e-14)
(2764.5 -2.83359e-10 1.93778e-14)
(2764.5 -2.8455e-10 1.94762e-14)
(2764.5 -2.821e-10 2.24293e-14)
(2764.5 -2.73999e-10 2.30832e-14)
(2764.5 -2.60717e-10 1.97231e-14)
(2764.5 -2.50834e-10 2.08203e-14)
(2764.5 -2.48819e-10 2.05196e-14)
(2764.5 -2.51509e-10 1.85167e-14)
(2764.5 -2.46899e-10 2.01257e-14)
(2764.5 -2.46145e-10 2.05365e-14)
(2764.5 -2.50728e-10 1.68215e-14)
(2764.5 -2.61929e-10 1.68503e-14)
(2764.5 -3.73052e-10 3.51167e-14)
(2764.5 -3.79256e-10 3.86951e-14)
(2764.5 -3.81426e-10 3.80348e-14)
(2764.5 -3.84402e-10 3.57365e-14)
(2764.5 -3.85378e-10 3.7531e-14)
(2764.5 -3.8617e-10 3.56246e-14)
(2764.5 -3.86265e-10 3.45752e-14)
(2764.5 -3.89091e-10 3.7731e-14)
(2764.5 -3.89963e-10 3.90134e-14)
(2764.5 -3.90783e-10 3.9514e-14)
(2764.5 -3.90189e-10 3.75691e-14)
(2764.5 -3.87e-10 3.60882e-14)
(2764.5 -3.82877e-10 3.67273e-14)
(2764.5 -3.78827e-10 3.34232e-14)
(2764.5 -3.77458e-10 2.93811e-14)
(2764.5 -3.74218e-10 3.60336e-14)
(2764.5 -3.6923e-10 3.30242e-14)
(2764.5 -3.62048e-10 3.70194e-14)
(2764.5 -3.58679e-10 3.69761e-14)
(2764.5 -3.52306e-10 3.38801e-14)
(2764.5 -3.47875e-10 3.38182e-14)
(2764.5 -3.4946e-10 3.25105e-14)
(2764.5 -3.49865e-10 3.43764e-14)
(2764.5 -3.49805e-10 3.69536e-14)
(2764.5 -3.51247e-10 3.48982e-14)
(2764.5 -3.55168e-10 3.28584e-14)
(2764.5 -3.6144e-10 3.42294e-14)
(2764.5 -3.64802e-10 2.90161e-14)
(2764.5 -3.63808e-10 2.95025e-14)
(2764.5 -3.62464e-10 3.25299e-14)
(2764.5 -3.59005e-10 3.22902e-14)
(2764.5 -3.56364e-10 3.14111e-14)
(2764.5 -3.52694e-10 3.16449e-14)
(2764.5 -3.48159e-10 3.08442e-14)
(2764.5 -3.46338e-10 3.16916e-14)
(2764.5 -3.46466e-10 3.11954e-14)
(2764.5 -3.49156e-10 3.24525e-14)
(2764.5 -3.49649e-10 3.54828e-14)
(2764.5 -3.50122e-10 2.92039e-14)
(2764.5 -3.49472e-10 2.9015e-14)
(2764.5 -3.51379e-10 3.1582e-14)
(2764.5 -3.53537e-10 3.53011e-14)
(2764.5 -3.57917e-10 3.11068e-14)
(2764.5 -3.60126e-10 3.0541e-14)
(2764.5 -3.58529e-10 3.2052e-14)
(2764.5 -3.52218e-10 3.24913e-14)
(2764.5 -3.50283e-10 3.24524e-14)
(2764.5 -3.47181e-10 3.26743e-14)
(2764.5 -3.42249e-10 3.01262e-14)
(2764.5 -3.41e-10 3.05743e-14)
(2764.5 -3.40808e-10 2.90445e-14)
(2764.5 -3.43758e-10 2.87509e-14)
(2764.5 -3.47104e-10 2.60915e-14)
(2764.5 -3.60134e-10 3.19608e-14)
(2764.5 -3.67689e-10 3.16882e-14)
(2764.5 -3.74465e-10 2.96266e-14)
(2764.5 -3.78856e-10 2.95402e-14)
(2764.5 -3.77675e-10 3.01377e-14)
(2764.5 -3.7452e-10 3.02293e-14)
(2764.5 -3.67742e-10 2.8471e-14)
(2764.5 -3.57526e-10 2.61392e-14)
(2764.5 -3.50961e-10 2.89182e-14)
(2764.5 -3.48413e-10 2.80828e-14)
(2764.5 -3.40619e-10 2.66773e-14)
(2764.5 -3.33616e-10 2.94417e-14)
(2764.5 -3.25984e-10 2.89295e-14)
(2764.5 -3.21992e-10 2.46318e-14)
(2764.5 -3.24508e-10 2.57443e-14)
(2764.5 -3.27623e-10 2.44651e-14)
(2764.5 -3.37716e-10 2.54819e-14)
(2764.5 -3.36937e-10 2.77069e-14)
(2764.5 -3.40567e-10 2.55752e-14)
(2764.5 -3.45884e-10 2.93203e-14)
(2764.5 -3.52594e-10 2.86292e-14)
(2764.5 -3.59211e-10 2.51151e-14)
(2764.5 -3.64656e-10 2.71537e-14)
(2764.5 -3.73123e-10 2.74418e-14)
(2764.5 -3.77015e-10 2.75103e-14)
(2764.5 -3.77419e-10 2.74918e-14)
(2764.5 -3.76124e-10 2.79277e-14)
(2764.5 -3.72608e-10 2.91548e-14)
(2764.5 -3.7261e-10 2.91736e-14)
(2764.5 -3.69235e-10 2.73601e-14)
(2764.5 -3.61521e-10 2.55291e-14)
(2764.5 -3.55788e-10 2.57457e-14)
(2764.5 -3.47284e-10 2.83715e-14)
(2764.5 -3.44534e-10 2.8166e-14)
(2764.5 -3.48581e-10 2.69227e-14)
(2764.5 -3.5088e-10 2.85627e-14)
(2764.5 -3.51067e-10 2.6312e-14)
(2764.5 -3.55407e-10 2.77015e-14)
(2764.5 -3.55949e-10 2.9331e-14)
(2764.5 -3.54341e-10 2.69961e-14)
(2764.5 -3.50699e-10 2.63276e-14)
(2764.5 -3.49922e-10 2.73078e-14)
(2764.5 -3.51131e-10 2.67206e-14)
(2764.5 -3.5227e-10 2.6055e-14)
(2764.5 -3.55287e-10 2.83234e-14)
(2764.5 -3.52008e-10 2.64802e-14)
(2764.5 -3.51084e-10 2.72308e-14)
(2764.5 -3.43135e-10 2.66306e-14)
(2764.5 -3.39321e-10 2.45916e-14)
(2764.5 -3.3979e-10 2.46348e-14)
(2764.5 -3.43161e-10 2.82244e-14)
(2764.5 -3.41222e-10 2.59484e-14)
(2764.5 -3.38689e-10 2.37527e-14)
(2764.5 -3.41618e-10 2.78879e-14)
(2764.5 -4.43695e-10 4.7047e-14)
(2764.5 -4.46555e-10 4.44864e-14)
(2764.5 -4.4805e-10 4.6034e-14)
(2764.5 -4.50231e-10 4.13257e-14)
(2764.5 -4.54584e-10 4.46075e-14)
(2764.5 -4.58996e-10 4.35911e-14)
(2764.5 -4.60867e-10 4.7384e-14)
(2764.5 -4.66058e-10 4.62133e-14)
(2764.5 -4.67754e-10 4.81926e-14)
(2764.5 -4.69436e-10 4.89109e-14)
(2764.5 -4.7119e-10 4.30492e-14)
(2764.5 -4.71932e-10 4.51617e-14)
(2764.5 -4.68562e-10 4.46346e-14)
(2764.5 -4.66684e-10 4.37256e-14)
(2764.5 -4.6642e-10 4.73122e-14)
(2764.5 -4.61911e-10 4.41465e-14)
(2764.5 -4.5683e-10 4.05109e-14)
(2764.5 -4.55193e-10 4.11373e-14)
(2764.5 -4.54992e-10 4.13718e-14)
(2764.5 -4.53122e-10 4.12058e-14)
(2764.5 -4.44442e-10 4.06982e-14)
(2764.5 -4.36276e-10 4.21612e-14)
(2764.5 -4.35226e-10 4.38301e-14)
(2764.5 -4.34545e-10 4.21716e-14)
(2764.5 -4.333e-10 3.78604e-14)
(2764.5 -4.34011e-10 3.71153e-14)
(2764.5 -4.33786e-10 3.91635e-14)
(2764.5 -4.37544e-10 3.53432e-14)
(2764.5 -4.39109e-10 3.9619e-14)
(2764.5 -4.40736e-10 3.92418e-14)
(2764.5 -4.42689e-10 3.90578e-14)
(2764.5 -4.43741e-10 3.87423e-14)
(2764.5 -4.41556e-10 3.96664e-14)
(2764.5 -4.33292e-10 3.91374e-14)
(2764.5 -4.29642e-10 4.07924e-14)
(2764.5 -4.28351e-10 4.08141e-14)
(2764.5 -4.28453e-10 3.88378e-14)
(2764.5 -4.27424e-10 3.81552e-14)
(2764.5 -4.27121e-10 3.54284e-14)
(2764.5 -4.25225e-10 3.91542e-14)
(2764.5 -4.24229e-10 3.87624e-14)
(2764.5 -4.22033e-10 3.84739e-14)
(2764.5 -4.25986e-10 3.93575e-14)
(2764.5 -4.26808e-10 3.62493e-14)
(2764.5 -4.37922e-10 4.01631e-14)
(2764.5 -4.40163e-10 3.96455e-14)
(2764.5 -4.39879e-10 3.75355e-14)
(2764.5 -4.38909e-10 3.74458e-14)
(2764.5 -4.3696e-10 3.66571e-14)
(2764.5 -4.32282e-10 3.92742e-14)
(2764.5 -4.27694e-10 3.7038e-14)
(2764.5 -4.25001e-10 3.36318e-14)
(2764.5 -4.19469e-10 3.53239e-14)
(2764.5 -4.16021e-10 3.76459e-14)
(2764.5 -4.18717e-10 4.25962e-14)
(2764.5 -4.20912e-10 4.13825e-14)
(2764.5 -4.24768e-10 4.25862e-14)
(2764.5 -4.30714e-10 3.49237e-14)
(2764.5 -4.38382e-10 3.2888e-14)
(2764.5 -4.44081e-10 3.50748e-14)
(2764.5 -4.45171e-10 3.49419e-14)
(2764.5 -4.43948e-10 3.39566e-14)
(2764.5 -4.47733e-10 3.46838e-14)
(2764.5 -4.51618e-10 3.69365e-14)
(2764.5 -4.54928e-10 3.27427e-14)
(2764.5 -4.48582e-10 3.191e-14)
(2764.5 -4.40203e-10 3.85118e-14)
(2764.5 -4.36201e-10 3.74272e-14)
(2764.5 -4.31857e-10 3.07741e-14)
(2764.5 -4.33738e-10 3.34544e-14)
(2764.5 -4.29454e-10 3.76669e-14)
(2764.5 -4.26649e-10 3.13359e-14)
(2764.5 -4.18027e-10 3.09098e-14)
(2764.5 -4.11713e-10 3.30816e-14)
(2764.5 -4.03506e-10 3.32603e-14)
(2764.5 -3.89551e-10 3.38055e-14)
(2764.5 -3.87349e-10 3.3052e-14)
(2764.5 -3.89797e-10 3.51173e-14)
(2764.5 -3.90765e-10 3.60201e-14)
(2764.5 -3.957e-10 3.21456e-14)
(2764.5 -3.94891e-10 3.15115e-14)
(2764.5 -3.9102e-10 3.33117e-14)
(2764.5 -3.88937e-10 3.54504e-14)
(2764.5 -3.87792e-10 3.45493e-14)
(2764.5 -3.85381e-10 3.39486e-14)
(2764.5 -3.78812e-10 3.26414e-14)
(2764.5 -3.7504e-10 3.27148e-14)
(2764.5 -3.72499e-10 3.2575e-14)
(2764.5 -3.73177e-10 3.57096e-14)
(2764.5 -3.74224e-10 3.13931e-14)
(2764.5 -3.78604e-10 3.34161e-14)
(2764.5 -3.8253e-10 3.07331e-14)
(2764.5 -3.83971e-10 3.00948e-14)
(2764.5 -3.8677e-10 3.33883e-14)
(2764.5 -3.87128e-10 3.27765e-14)
(2764.5 -3.8755e-10 3.02742e-14)
(2764.5 -3.88713e-10 2.93716e-14)
(2764.5 -3.88541e-10 3.2914e-14)
(2764.5 -3.88369e-10 3.09109e-14)
(2764.5 -3.88126e-10 2.94718e-14)
(2764.5 -3.87298e-10 3.16993e-14)
(2764.5 -3.82052e-10 3.16298e-14)
(2764.5 -3.76918e-10 3.46643e-14)
(2764.5 -3.73106e-10 3.22415e-14)
(2764.5 -3.72e-10 3.01119e-14)
(2764.5 -3.72247e-10 2.88114e-14)
(2764.5 -3.67333e-10 3.32709e-14)
(2764.5 -5.28205e-10 5.05858e-14)
(2764.5 -5.32494e-10 5.36285e-14)
(2764.5 -5.29671e-10 5.48223e-14)
(2764.5 -5.27249e-10 5.0179e-14)
(2764.5 -5.24487e-10 5.08426e-14)
(2764.5 -5.23846e-10 5.07901e-14)
(2764.5 -5.21432e-10 4.75985e-14)
(2764.5 -5.2331e-10 5.44762e-14)
(2764.5 -5.28037e-10 5.41702e-14)
(2764.5 -5.31724e-10 5.61379e-14)
(2764.5 -5.35602e-10 5.28541e-14)
(2764.5 -5.36961e-10 5.06542e-14)
(2764.5 -5.36854e-10 5.63844e-14)
(2764.5 -5.43206e-10 5.01832e-14)
(2764.5 -5.49743e-10 4.88569e-14)
(2764.5 -5.50478e-10 5.05978e-14)
(2764.5 -5.48428e-10 5.03249e-14)
(2764.5 -5.47372e-10 5.03421e-14)
(2764.5 -5.47406e-10 4.95105e-14)
(2764.5 -5.45871e-10 4.93751e-14)
(2764.5 -5.43034e-10 4.86781e-14)
(2764.5 -5.41495e-10 4.93883e-14)
(2764.5 -5.38592e-10 4.98613e-14)
(2764.5 -5.33327e-10 4.59564e-14)
(2764.5 -5.23596e-10 4.68338e-14)
(2764.5 -5.21972e-10 4.92881e-14)
(2764.5 -5.18857e-10 4.88926e-14)
(2764.5 -5.15244e-10 4.82056e-14)
(2764.5 -5.13227e-10 4.90129e-14)
(2764.5 -5.08368e-10 4.77279e-14)
(2764.5 -5.08707e-10 4.7624e-14)
(2764.5 -5.09923e-10 4.64148e-14)
(2764.5 -5.11415e-10 4.80618e-14)
(2764.5 -5.09716e-10 5.12702e-14)
(2764.5 -5.1524e-10 5.13914e-14)
(2764.5 -5.24003e-10 4.60891e-14)
(2764.5 -5.23534e-10 4.44767e-14)
(2764.5 -5.19566e-10 4.56865e-14)
(2764.5 -5.17666e-10 4.57833e-14)
(2764.5 -5.15483e-10 4.55241e-14)
(2764.5 -5.12519e-10 4.57439e-14)
(2764.5 -5.1222e-10 4.6491e-14)
(2764.5 -5.10537e-10 4.42069e-14)
(2764.5 -5.08331e-10 4.34148e-14)
(2764.5 -5.07115e-10 4.56814e-14)
(2764.5 -5.07295e-10 4.64297e-14)
(2764.5 -5.06984e-10 4.52645e-14)
(2764.5 -5.08211e-10 4.54446e-14)
(2764.5 -5.1355e-10 4.68022e-14)
(2764.5 -5.14272e-10 4.72353e-14)
(2764.5 -5.12618e-10 4.50067e-14)
(2764.5 -5.12975e-10 4.42875e-14)
(2764.5 -5.1101e-10 4.48954e-14)
(2764.5 -5.09177e-10 4.46153e-14)
(2764.5 -5.07945e-10 4.70838e-14)
(2764.5 -5.06166e-10 4.37117e-14)
(2764.5 -5.03156e-10 3.93866e-14)
(2764.5 -5.05858e-10 4.51845e-14)
(2764.5 -5.0503e-10 4.58876e-14)
(2764.5 -5.09728e-10 4.20513e-14)
(2764.5 -5.23374e-10 4.01427e-14)
(2764.5 -5.32127e-10 4.57033e-14)
(2764.5 -5.35054e-10 4.00339e-14)
(2764.5 -5.36222e-10 4.06871e-14)
(2764.5 -5.33987e-10 4.13587e-14)
(2764.5 -5.2196e-10 3.9299e-14)
(2764.5 -5.1435e-10 4.57717e-14)
(2764.5 -5.12154e-10 4.37538e-14)
(2764.5 -5.06918e-10 4.2743e-14)
(2764.5 -4.999e-10 4.28402e-14)
(2764.5 -4.83369e-10 4.07169e-14)
(2764.5 -4.68797e-10 4.06379e-14)
(2764.5 -4.63026e-10 3.91248e-14)
(2764.5 -4.58205e-10 3.92727e-14)
(2764.5 -4.5718e-10 4.02715e-14)
(2764.5 -4.54027e-10 3.87317e-14)
(2764.5 -4.52928e-10 3.88685e-14)
(2764.5 -4.61181e-10 3.91112e-14)
(2764.5 -4.62446e-10 3.79725e-14)
(2764.5 -4.66118e-10 3.80589e-14)
(2764.5 -4.70854e-10 3.84327e-14)
(2764.5 -4.77436e-10 3.78363e-14)
(2764.5 -4.89754e-10 3.92032e-14)
(2764.5 -4.99119e-10 3.29336e-14)
(2764.5 -5.19271e-10 3.91716e-14)
(2764.5 -5.25925e-10 3.94742e-14)
(2764.5 -5.30236e-10 3.99578e-14)
(2764.5 -5.33813e-10 3.99479e-14)
(2764.5 -5.41038e-10 3.78619e-14)
(2764.5 -5.42472e-10 3.76882e-14)
(2764.5 -5.42122e-10 3.72493e-14)
(2764.5 -5.43449e-10 3.72435e-14)
(2764.5 -5.45007e-10 4.39235e-14)
(2764.5 -5.53673e-10 3.38945e-14)
(2764.5 -5.60869e-10 3.55661e-14)
(2764.5 -5.62901e-10 3.85091e-14)
(2764.5 -5.63707e-10 3.83499e-14)
(2764.5 -5.63467e-10 3.95784e-14)
(2764.5 -5.65773e-10 3.98438e-14)
(2764.5 -5.72644e-10 3.82636e-14)
(2764.5 -5.69542e-10 3.62915e-14)
(2764.5 -5.64641e-10 3.5563e-14)
(2764.5 -5.61873e-10 3.79368e-14)
(2764.5 -5.57207e-10 3.52763e-14)
(2764.5 -5.4191e-10 3.9241e-14)
(2764.5 -5.30243e-10 3.86194e-14)
(2764.5 -5.24182e-10 3.74029e-14)
(2764.5 -5.14982e-10 3.78564e-14)
(2764.5 -5.08135e-10 3.41091e-14)
(2764.5 -5.04257e-10 3.65729e-14)
(2764.5 -6.05244e-10 5.86834e-14)
(2764.5 -6.09494e-10 5.73507e-14)
(2764.5 -6.16046e-10 6.01274e-14)
(2764.5 -6.14307e-10 5.66109e-14)
(2764.5 -6.12227e-10 5.93844e-14)
(2764.5 -6.1062e-10 6.00602e-14)
(2764.5 -6.0914e-10 5.97392e-14)
(2764.5 -6.07163e-10 5.76582e-14)
(2764.5 -6.06774e-10 6.09951e-14)
(2764.5 -6.0704e-10 6.08318e-14)
(2764.5 -6.0821e-10 5.68756e-14)
(2764.5 -6.10837e-10 6.00281e-14)
(2764.5 -6.09053e-10 6.07541e-14)
(2764.5 -6.08982e-10 6.22718e-14)
(2764.5 -6.14464e-10 5.4664e-14)
(2764.5 -6.25653e-10 5.37049e-14)
(2764.5 -6.28317e-10 5.77063e-14)
(2764.5 -6.30598e-10 5.94871e-14)
(2764.5 -6.32103e-10 5.89553e-14)
(2764.5 -6.3498e-10 5.60845e-14)
(2764.5 -6.33722e-10 5.59659e-14)
(2764.5 -6.32323e-10 5.49666e-14)
(2764.5 -6.2945e-10 5.79771e-14)
(2764.5 -6.1952e-10 6.10236e-14)
(2764.5 -6.12406e-10 5.65196e-14)
(2764.5 -6.10626e-10 5.55484e-14)
(2764.5 -6.10661e-10 5.74135e-14)
(2764.5 -6.08184e-10 5.87093e-14)
(2764.5 -6.06325e-10 5.67374e-14)
(2764.5 -6.02945e-10 5.25409e-14)
(2764.5 -5.98314e-10 5.00391e-14)
(2764.5 -5.94997e-10 5.52669e-14)
(2764.5 -5.93314e-10 5.79067e-14)
(2764.5 -5.91093e-10 5.26883e-14)
(2764.5 -5.9023e-10 4.96496e-14)
(2764.5 -5.94388e-10 5.28987e-14)
(2764.5 -5.96575e-10 5.30235e-14)
(2764.5 -5.93222e-10 5.43384e-14)
(2764.5 -5.92838e-10 5.24407e-14)
(2764.5 -5.98169e-10 5.58089e-14)
(2764.5 -5.97968e-10 5.41195e-14)
(2764.5 -5.96312e-10 5.27229e-14)
(2764.5 -5.96927e-10 5.08861e-14)
(2764.5 -5.9243e-10 5.29857e-14)
(2764.5 -5.84078e-10 5.2654e-14)
(2764.5 -5.79946e-10 5.25053e-14)
(2764.5 -5.76616e-10 5.41672e-14)
(2764.5 -5.77739e-10 5.55255e-14)
(2764.5 -5.7954e-10 5.16686e-14)
(2764.5 -5.85868e-10 5.22813e-14)
(2764.5 -5.90983e-10 5.11635e-14)
(2764.5 -5.98345e-10 5.31777e-14)
(2764.5 -6.10638e-10 4.93885e-14)
(2764.5 -6.12802e-10 5.25531e-14)
(2764.5 -6.13337e-10 5.24042e-14)
(2764.5 -6.10488e-10 4.97324e-14)
(2764.5 -6.034e-10 5.15983e-14)
(2764.5 -5.96154e-10 4.93605e-14)
(2764.5 -5.84594e-10 5.10879e-14)
(2764.5 -5.65041e-10 5.24572e-14)
(2764.5 -5.56158e-10 4.93335e-14)
(2764.5 -5.54768e-10 5.10336e-14)
(2764.5 -5.51414e-10 4.94553e-14)
(2764.5 -5.63048e-10 4.82375e-14)
(2764.5 -5.67003e-10 4.64258e-14)
(2764.5 -5.73455e-10 4.92289e-14)
(2764.5 -5.81278e-10 5.06397e-14)
(2764.5 -5.87431e-10 4.51557e-14)
(2764.5 -5.99644e-10 4.83169e-14)
(2764.5 -6.19346e-10 5.16712e-14)
(2764.5 -6.29919e-10 4.83594e-14)
(2764.5 -6.34052e-10 4.7007e-14)
(2764.5 -6.3233e-10 4.7639e-14)
(2764.5 -6.33074e-10 5.01793e-14)
(2764.5 -6.3382e-10 4.76685e-14)
(2764.5 -6.30462e-10 4.55173e-14)
(2764.5 -6.31958e-10 4.84807e-14)
(2764.5 -6.3135e-10 4.63616e-14)
(2764.5 -6.30788e-10 4.59121e-14)
(2764.5 -6.26188e-10 4.52103e-14)
(2764.5 -6.18141e-10 4.45099e-14)
(2764.5 -6.13489e-10 4.26757e-14)
(2764.5 -6.06646e-10 4.60845e-14)
(2764.5 -5.98344e-10 4.43844e-14)
(2764.5 -5.97164e-10 4.31237e-14)
(2764.5 -6.00555e-10 4.70526e-14)
(2764.5 -5.9238e-10 4.92825e-14)
(2764.5 -5.80371e-10 4.18259e-14)
(2764.5 -5.77194e-10 4.34046e-14)
(2764.5 -5.76321e-10 4.30882e-14)
(2764.5 -5.72739e-10 4.61392e-14)
(2764.5 -5.65866e-10 4.23967e-14)
(2764.5 -5.61841e-10 4.93855e-14)
(2764.5 -5.6205e-10 4.29721e-14)
(2764.5 -5.58391e-10 4.52606e-14)
(2764.5 -5.5927e-10 4.51949e-14)
(2764.5 -5.62351e-10 4.46313e-14)
(2764.5 -5.68663e-10 4.59381e-14)
(2764.5 -5.71854e-10 4.36993e-14)
(2764.5 -5.75382e-10 4.62917e-14)
(2764.5 -5.91577e-10 4.77937e-14)
(2764.5 -5.91338e-10 4.79326e-14)
(2764.5 -5.91381e-10 4.60803e-14)
(2764.5 -5.93969e-10 4.34282e-14)
(2764.5 -5.98258e-10 4.48552e-14)
(2764.5 -6.01252e-10 4.33993e-14)
(2764.5 -6.00193e-10 4.43062e-14)
(2764.5 -5.95601e-10 4.3647e-14)
(2764.5 -5.93881e-10 4.38296e-14)
(2764.5 -5.913e-10 4.19521e-14)
(2764.5 -6.90261e-10 7.10365e-14)
(2764.5 -6.84452e-10 6.84915e-14)
(2764.5 -6.83858e-10 6.88882e-14)
(2764.5 -6.83767e-10 6.74315e-14)
(2764.5 -6.86863e-10 7.17169e-14)
(2764.5 -6.9121e-10 6.77766e-14)
(2764.5 -6.90916e-10 6.55086e-14)