/*--------------------------------*- C++ -*----------------------------------*\
| =========                 |                                                 |
| \\      /  F ield         | OpenFOAM: The Open Source CFD Toolbox           |
|  \\    /   O peration     | Version:  v1706                                 |
|   \\  /    A nd           | Web:      www.OpenFOAM.com                      |
|    \\/     M anipulation  |                                                 |
\*---------------------------------------------------------------------------*/
FoamFile
{
    version     2.0;
    format      ascii;
    class       volScalarField;
    location    "8e-06";
    object      wallHeatFlux;
}
// * * * * * * * * * * * * * * * * * * * * * * * * * * * * * * * * * * * * * //

dimensions      [1 0 -3 0 0 0 0];


internalField   uniform 0;

boundaryField
{
    cone
    {
        type            calculated;
        value           nonuniform List<scalar> 
181
(
115347
123171
130583
137173
142497
146180
147936
147634
145374
141514
136606
131259
126044
121363
117424
114274
111858
110062
108760
107825
107152
106655
106273
105961
105689
105440
105203
104971
104741
104513
104285
104058
103832
103608
103386
103166
102949
102735
102525
102321
102123
101932
101749
101574
101408
101252
101107
100975
100856
100753
100665
100593
100540
100506
100493
100502
100535
100593
100679
100795
100942
101123
101340
101595
101891
102231
102618
103054
103543
104088
104694
105362
106099
106908
107794
108761
109814
110957
112195
113533
114976
116526
118189
119969
121867
123888
126034
128307
130708
133236
135893
138675
141580
144602
147735
150970
154297
157703
161171
164685
168224
171767
175291
178772
182187
185515
188736
191834
194799
197626
200317
202880
205328
207681
209962
212197
214415
216642
218903
221222
223616
226102
228690
231386
234195
237117
240151
243293
246538
249883
253320
256846
260454
264141
267901
271732
275630
279593
283619
287706
291854
296062
300332
304662
309054
313511
318032
322621
327278
332007
336811
341690
346650
351691
356818
362034
367342
372747
378252
383863
389583
395419
401377
407463
413684
420047
426561
433234
440076
447096
454307
461718
469344
477198
485294
493649
502280
511206
520447
530027
539969
)
;
    }
    inlet
    {
        type            calculated;
        value           uniform 0;
    }
    rWedge
    {
        type            wedge;
    }
    lWedge
    {
        type            wedge;
    }
    outlet
    {
        type            calculated;
        value           nonuniform 0();
    }
    procBoundary1to0
    {
        type            processor;
        value           uniform 0;
    }
    procBoundary1to2
    {
        type            processor;
        value           uniform 0;
    }
}


// ************************************************************************* //
