/*--------------------------------*- C++ -*----------------------------------*\
| =========                 |                                                 |
| \\      /  F ield         | OpenFOAM: The Open Source CFD Toolbox           |
|  \\    /   O peration     | Version:  v1706                                 |
|   \\  /    A nd           | Web:      www.OpenFOAM.com                      |
|    \\/     M anipulation  |                                                 |
\*---------------------------------------------------------------------------*/
FoamFile
{
    version     2.0;
    format      ascii;
    class       volVectorField;
    location    "1.2e-05";
    object      U;
}
// * * * * * * * * * * * * * * * * * * * * * * * * * * * * * * * * * * * * * //

dimensions      [0 1 -1 0 0 0 0];


internalField   nonuniform List<vector> 
120000
(
(2764.5 -2.08803e-08 4.08176e-11)
(2764.5 -6.56239e-09 1.19726e-11)
(2764.5 -3.15929e-09 5.81344e-12)
(2764.5 -1.95528e-09 3.50072e-12)
(2764.5 -1.33715e-09 2.33012e-12)
(2764.5 -9.67893e-10 1.68141e-12)
(2764.5 -7.30208e-10 1.28138e-12)
(2764.5 -5.70498e-10 1.02257e-12)
(2764.5 -4.62169e-10 8.06031e-13)
(2764.5 -3.81651e-10 6.95218e-13)
(2764.5 -3.20721e-10 5.11664e-13)
(2764.5 -2.72378e-10 4.61411e-13)
(2764.5 -2.3454e-10 4.21445e-13)
(2764.5 -2.05591e-10 3.50637e-13)
(2764.5 -1.83248e-10 3.11714e-13)
(2764.5 -1.66356e-10 2.63345e-13)
(2764.5 -1.45731e-10 2.18972e-13)
(2764.5 -1.36363e-10 1.96105e-13)
(2764.5 -1.20358e-10 1.84423e-13)
(2764.5 -1.10998e-10 1.73129e-13)
(2764.5 -1.01464e-10 1.6653e-13)
(2764.5 -9.40991e-11 1.39355e-13)
(2764.5 -8.77326e-11 1.3299e-13)
(2764.5 -8.21219e-11 1.12239e-13)
(2764.5 -7.61978e-11 1.16921e-13)
(2764.5 -7.27972e-11 1.14729e-13)
(2764.5 -6.45587e-11 9.03423e-14)
(2764.5 -6.5209e-11 7.89868e-14)
(2764.5 -6.0705e-11 8.55224e-14)
(2764.5 -5.8178e-11 7.79431e-14)
(2764.5 -5.65725e-11 8.65774e-14)
(2764.5 -5.32659e-11 7.39188e-14)
(2764.5 -4.7242e-11 6.51078e-14)
(2764.5 -4.92942e-11 6.2366e-14)
(2764.5 -4.60467e-11 6.37635e-14)
(2764.5 -4.48968e-11 5.57176e-14)
(2764.5 -4.49371e-11 5.38789e-14)
(2764.5 -3.97234e-11 4.23053e-14)
(2764.5 -4.12104e-11 4.11304e-14)
(2764.5 -4.12839e-11 4.72654e-14)
(2764.5 -3.81114e-11 3.7427e-14)
(2764.5 -3.59918e-11 3.87714e-14)
(2764.5 -3.85628e-11 4.42291e-14)
(2764.5 -3.48009e-11 3.96441e-14)
(2764.5 -3.27836e-11 3.8284e-14)
(2764.5 -3.31638e-11 3.19216e-14)
(2764.5 -3.46621e-11 4.34597e-14)
(2764.5 -3.20819e-11 3.20715e-14)
(2764.5 -2.95665e-11 2.86735e-14)
(2764.5 -3.39469e-11 3.33668e-14)
(2764.5 -3.00955e-11 3.19795e-14)
(2764.5 -2.95479e-11 3.10329e-14)
(2764.5 -2.9519e-11 2.87409e-14)
(2764.5 -2.87075e-11 2.70791e-14)
(2764.5 -2.90277e-11 2.78497e-14)
(2764.5 -2.7847e-11 2.20515e-14)
(2764.5 -2.87249e-11 2.0225e-14)
(2764.5 -2.83735e-11 1.9132e-14)
(2764.5 -2.83832e-11 2.18518e-14)
(2764.5 -3.01004e-11 2.69263e-14)
(2764.5 -2.77137e-11 2.59697e-14)
(2764.5 -2.54928e-11 1.50394e-14)
(2764.5 -2.60263e-11 1.80501e-14)
(2764.5 -2.58265e-11 2.10181e-14)
(2764.5 -2.51083e-11 1.6938e-14)
(2764.5 -2.60111e-11 1.47146e-14)
(2764.5 -2.6947e-11 1.44002e-14)
(2764.5 -2.52375e-11 1.80994e-14)
(2764.5 -2.57041e-11 1.93855e-14)
(2764.5 -2.56322e-11 1.69342e-14)
(2764.5 -2.52398e-11 1.34796e-14)
(2764.5 -2.50229e-11 1.60061e-14)
(2764.5 -2.54998e-11 1.42476e-14)
(2764.5 -2.32611e-11 1.44338e-14)
(2764.5 -2.49166e-11 1.72628e-14)
(2764.5 -2.51412e-11 1.51067e-14)
(2764.5 -2.35963e-11 1.41129e-14)
(2764.5 -2.5102e-11 1.6597e-14)
(2764.5 -2.53084e-11 1.00934e-14)
(2764.5 -2.42562e-11 7.66741e-15)
(2764.5 -2.50591e-11 1.18011e-14)
(2764.5 -2.61214e-11 1.22213e-14)
(2764.5 -2.52933e-11 8.49783e-15)
(2764.5 -2.36306e-11 1.01196e-14)
(2764.5 -2.41666e-11 1.08406e-14)
(2764.5 -2.3712e-11 9.66166e-15)
(2764.5 -2.46053e-11 9.25189e-15)
(2764.5 -2.58325e-11 9.60304e-15)
(2764.5 -2.45661e-11 1.30862e-14)
(2764.5 -2.57747e-11 7.78823e-15)
(2764.5 -2.60869e-11 5.81871e-15)
(2764.5 -2.52814e-11 6.05032e-15)
(2764.5 -2.38046e-11 1.09489e-14)
(2764.5 -2.42545e-11 1.36603e-14)
(2764.5 -2.50849e-11 1.31431e-14)
(2764.5 -2.51703e-11 1.17327e-14)
(2764.5 -2.38613e-11 7.22137e-15)
(2764.5 -2.26717e-11 1.1362e-14)
(2764.5 -2.38635e-11 1.10243e-14)
(2764.5 -2.21745e-11 7.7712e-15)
(2764.5 -2.43879e-11 6.97383e-15)
(2764.5 -2.66158e-11 1.28109e-14)
(2764.5 -2.45304e-11 1.27115e-14)
(2764.5 -2.298e-11 9.86386e-15)
(2764.5 -2.26976e-11 1.14187e-14)
(2764.5 -2.50667e-11 9.07089e-15)
(2764.5 -2.65903e-11 5.91767e-15)
(2764.5 -2.9647e-11 6.5104e-15)
(2764.5 -2.59168e-11 1.0087e-14)
(2764.5 -2.29746e-11 7.09992e-15)
(2764.5 -2.39387e-11 7.14643e-15)
(2764.5 -2.44354e-11 6.91893e-15)
(2764.5 -2.41932e-11 9.13316e-15)
(2764.5 -2.36433e-11 7.84749e-15)
(2764.5 -2.41438e-11 9.47608e-15)
(2764.5 -2.45531e-11 7.62127e-15)
(2764.5 -2.55688e-11 9.04683e-15)
(2764.5 -2.53163e-11 1.2305e-14)
(2764.5 -2.50032e-11 1.03762e-14)
(2764.5 -2.6914e-11 7.48465e-15)
(2764.5 -2.83829e-11 7.83773e-15)
(2764.5 -2.866e-11 8.14677e-15)
(2764.5 -2.88507e-11 6.87512e-15)
(2764.5 -3.01868e-11 8.53718e-15)
(2764.5 -2.99205e-11 9.71653e-15)
(2764.5 -3.06352e-11 7.53992e-15)
(2764.5 -3.03284e-11 8.87838e-15)
(2764.5 -3.05746e-11 7.98393e-15)
(2764.5 -3.06157e-11 9.39667e-15)
(2764.5 -3.00079e-11 9.82396e-15)
(2764.5 -2.94254e-11 1.1552e-14)
(2764.5 -2.93123e-11 1.20629e-14)
(2764.5 -3.09599e-11 5.4364e-15)
(2764.5 -3.38062e-11 3.88217e-15)
(2764.5 -3.19001e-11 5.42263e-15)
(2764.5 -2.58898e-11 4.29806e-15)
(2764.5 -2.45683e-11 7.60005e-15)
(2764.5 -2.48216e-11 1.32285e-14)
(2764.5 -2.67044e-11 -1.56662e-15)
(2764.5 -2.53478e-11 1.17005e-14)
(2764.5 -2.92308e-11 2.93323e-15)
(2764.5 -3.10359e-11 1.39753e-15)
(2764.5 -3.62352e-11 1.00614e-14)
(2764.5 -3.39813e-11 4.15396e-15)
(2764.5 -3.501e-11 6.81065e-15)
(2764.5 -2.96689e-11 7.1249e-15)
(2764.5 -2.60599e-11 8.84021e-15)
(2764.5 -2.71184e-11 9.98131e-15)
(2764.5 -3.18753e-11 6.88749e-15)
(2764.5 -3.71262e-11 6.17793e-15)
(2764.5 -3.92184e-11 2.46758e-15)
(2764.5 -4.08536e-11 5.44919e-15)
(2764.5 -4.1488e-11 4.9243e-15)
(2764.5 -4.19953e-11 6.67184e-15)
(2764.5 -3.92541e-11 8.59087e-15)
(2764.5 -4.06526e-11 4.48432e-15)
(2764.5 -3.97444e-11 1.13698e-14)
(2764.5 -3.99564e-11 -4.25923e-15)
(2764.5 -3.67782e-11 1.22043e-14)
(2764.5 -3.62099e-11 2.40221e-15)
(2764.5 -3.82671e-11 4.30419e-15)
(2764.5 -3.52303e-11 4.12342e-15)
(2764.5 -3.39853e-11 8.2042e-15)
(2764.5 -3.3704e-11 9.75433e-15)
(2764.5 -3.41397e-11 5.2942e-15)
(2764.5 -3.54839e-11 4.20503e-15)
(2764.5 -3.58874e-11 8.63035e-15)
(2764.5 -3.9853e-11 8.1348e-15)
(2764.5 -3.75816e-11 4.56265e-15)
(2764.5 -4.10504e-11 4.32098e-15)
(2764.5 -4.42092e-11 3.5153e-15)
(2764.5 -4.69611e-11 1.02303e-14)
(2764.5 -4.96113e-11 6.73226e-15)
(2764.5 -4.94473e-11 3.47783e-15)
(2764.5 -4.59095e-11 7.67573e-16)
(2764.5 -4.70548e-11 8.21502e-15)
(2764.5 -4.87633e-11 7.81895e-15)
(2764.5 -5.25023e-11 9.45778e-15)
(2764.5 -5.96813e-11 -1.82762e-15)
(2764.5 -6.19024e-11 6.51258e-15)
(2764.5 -5.9014e-11 8.78815e-15)
(2764.5 -5.83915e-11 3.11158e-15)
(2764.5 -5.89156e-11 1.12258e-15)
(2764.5 -6.11158e-11 5.18133e-15)
(2764.5 -6.30808e-11 9.01861e-15)
(2764.5 -6.4711e-11 9.50391e-15)
(2764.5 -6.11084e-11 6.67123e-15)
(2764.5 -6.63769e-11 9.7346e-15)
(2764.5 -6.86591e-11 7.65285e-15)
(2764.5 -7.05582e-11 6.32799e-15)
(2764.5 -7.16731e-11 9.05671e-15)
(2764.5 -7.34229e-11 9.21078e-15)
(2764.5 -7.16116e-11 6.67867e-16)
(2764.5 -7.52255e-11 4.35456e-15)
(2764.5 -6.69605e-08 1.17876e-10)
(2764.5 -2.47862e-08 4.14793e-11)
(2764.5 -1.13545e-08 1.87815e-11)
(2764.5 -6.60999e-09 1.11418e-11)
(2764.5 -4.38985e-09 7.40467e-12)
(2764.5 -3.14327e-09 5.3278e-12)
(2764.5 -2.37153e-09 3.99324e-12)
(2764.5 -1.85563e-09 3.09449e-12)
(2764.5 -1.49702e-09 2.47958e-12)
(2764.5 -1.22823e-09 2.0217e-12)
(2764.5 -1.03095e-09 1.58894e-12)
(2764.5 -8.82847e-10 1.41853e-12)
(2764.5 -7.55982e-10 1.18587e-12)
(2764.5 -6.58568e-10 1.04664e-12)
(2764.5 -5.83594e-10 8.89871e-13)
(2764.5 -5.25956e-10 8.21936e-13)
(2764.5 -4.68875e-10 7.02807e-13)
(2764.5 -4.3092e-10 6.31054e-13)
(2764.5 -3.89921e-10 5.86152e-13)
(2764.5 -3.52303e-10 5.26638e-13)
(2764.5 -3.25339e-10 4.87154e-13)
(2764.5 -3.04512e-10 4.15075e-13)
(2764.5 -2.7999e-10 3.92762e-13)
(2764.5 -2.56129e-10 3.48699e-13)
(2764.5 -2.40558e-10 3.42796e-13)
(2764.5 -2.37392e-10 3.36011e-13)
(2764.5 -2.17803e-10 2.93729e-13)
(2764.5 -2.04021e-10 2.68295e-13)
(2764.5 -1.91628e-10 2.62275e-13)
(2764.5 -1.7942e-10 2.47728e-13)
(2764.5 -1.73318e-10 2.20493e-13)
(2764.5 -1.67607e-10 2.165e-13)
(2764.5 -1.52768e-10 1.76457e-13)
(2764.5 -1.57942e-10 1.63807e-13)
(2764.5 -1.49084e-10 1.69439e-13)
(2764.5 -1.39567e-10 1.67082e-13)
(2764.5 -1.41582e-10 1.52189e-13)
(2764.5 -1.31648e-10 1.47437e-13)
(2764.5 -1.21849e-10 1.38414e-13)
(2764.5 -1.28295e-10 1.27315e-13)
(2764.5 -1.19446e-10 1.14467e-13)
(2764.5 -1.14033e-10 1.20297e-13)
(2764.5 -1.15314e-10 1.2999e-13)
(2764.5 -1.127e-10 1.16131e-13)
(2764.5 -1.03166e-10 9.17353e-14)
(2764.5 -1.03604e-10 1.06356e-13)
(2764.5 -1.02907e-10 1.0836e-13)
(2764.5 -1.01662e-10 8.61943e-14)
(2764.5 -9.53885e-11 8.686e-14)
(2764.5 -9.62093e-11 9.75161e-14)
(2764.5 -9.75619e-11 9.51435e-14)
(2764.5 -9.392e-11 8.1347e-14)
(2764.5 -8.69875e-11 7.96932e-14)
(2764.5 -9.03358e-11 6.48218e-14)
(2764.5 -8.91202e-11 7.04482e-14)
(2764.5 -8.38815e-11 6.49385e-14)
(2764.5 -8.40819e-11 6.3163e-14)
(2764.5 -8.48535e-11 6.22796e-14)
(2764.5 -8.64984e-11 7.39345e-14)
(2764.5 -8.54535e-11 7.3278e-14)
(2764.5 -8.82012e-11 6.26309e-14)
(2764.5 -8.11335e-11 4.52475e-14)
(2764.5 -8.31417e-11 6.09967e-14)
(2764.5 -7.87354e-11 5.82282e-14)
(2764.5 -7.66654e-11 5.28919e-14)
(2764.5 -7.56923e-11 5.23711e-14)
(2764.5 -7.48552e-11 4.45743e-14)
(2764.5 -7.40031e-11 5.29127e-14)
(2764.5 -7.87983e-11 5.58991e-14)
(2764.5 -7.83525e-11 4.73376e-14)
(2764.5 -7.66284e-11 4.86848e-14)
(2764.5 -7.12878e-11 5.15712e-14)
(2764.5 -7.79239e-11 4.39915e-14)
(2764.5 -7.49242e-11 4.55827e-14)
(2764.5 -6.93773e-11 4.91422e-14)
(2764.5 -7.65773e-11 4.98955e-14)
(2764.5 -7.44492e-11 4.51014e-14)
(2764.5 -7.16079e-11 4.48345e-14)
(2764.5 -7.14452e-11 3.02711e-14)
(2764.5 -7.18743e-11 2.90881e-14)
(2764.5 -6.90256e-11 3.50075e-14)
(2764.5 -7.14879e-11 3.33028e-14)
(2764.5 -7.53263e-11 2.99184e-14)
(2764.5 -7.38404e-11 3.54272e-14)
(2764.5 -7.38206e-11 4.27851e-14)
(2764.5 -7.13642e-11 4.15788e-14)
(2764.5 -6.94342e-11 3.40197e-14)
(2764.5 -7.13892e-11 3.87859e-14)
(2764.5 -6.91521e-11 3.57618e-14)
(2764.5 -6.7607e-11 2.66289e-14)
(2764.5 -7.06998e-11 3.23214e-14)
(2764.5 -7.57294e-11 2.59022e-14)
(2764.5 -7.29804e-11 3.41227e-14)
(2764.5 -6.84617e-11 3.40491e-14)
(2764.5 -6.9862e-11 4.00517e-14)
(2764.5 -7.46101e-11 3.13476e-14)
(2764.5 -7.35325e-11 2.42036e-14)
(2764.5 -7.24603e-11 2.79301e-14)
(2764.5 -7.34753e-11 2.59065e-14)
(2764.5 -6.96499e-11 2.62232e-14)
(2764.5 -6.83574e-11 2.65361e-14)
(2764.5 -6.88539e-11 2.76589e-14)
(2764.5 -7.65701e-11 3.08822e-14)
(2764.5 -7.53364e-11 2.05356e-14)
(2764.5 -7.02162e-11 2.12397e-14)
(2764.5 -6.94376e-11 1.90571e-14)
(2764.5 -6.82771e-11 2.16899e-14)
(2764.5 -7.47114e-11 2.21797e-14)
(2764.5 -8.18619e-11 1.90078e-14)
(2764.5 -7.71615e-11 1.87097e-14)
(2764.5 -7.41361e-11 2.30955e-14)
(2764.5 -7.42246e-11 2.22204e-14)
(2764.5 -7.5636e-11 2.3016e-14)
(2764.5 -7.33745e-11 2.41334e-14)
(2764.5 -7.25933e-11 2.76457e-14)
(2764.5 -7.24676e-11 2.73439e-14)
(2764.5 -7.30264e-11 2.86326e-14)
(2764.5 -7.5642e-11 2.75197e-14)
(2764.5 -7.47241e-11 2.24608e-14)
(2764.5 -7.41197e-11 1.91623e-14)
(2764.5 -7.59706e-11 1.95411e-14)
(2764.5 -7.81061e-11 2.04817e-14)
(2764.5 -7.80487e-11 2.11975e-14)
(2764.5 -7.96146e-11 2.267e-14)
(2764.5 -8.21113e-11 2.42518e-14)
(2764.5 -8.42415e-11 2.21853e-14)
(2764.5 -8.56206e-11 2.20153e-14)
(2764.5 -8.60647e-11 2.16655e-14)
(2764.5 -8.79677e-11 2.22675e-14)
(2764.5 -8.99512e-11 2.50145e-14)
(2764.5 -9.06311e-11 2.35936e-14)
(2764.5 -8.81147e-11 1.71064e-14)
(2764.5 -8.60621e-11 1.66215e-14)
(2764.5 -9.03411e-11 2.06147e-14)
(2764.5 -9.39177e-11 1.9968e-14)
(2764.5 -9.63638e-11 2.08245e-14)
(2764.5 -9.17719e-11 2.0643e-14)
(2764.5 -8.93943e-11 2.07215e-14)
(2764.5 -9.23984e-11 1.52898e-14)
(2764.5 -8.51804e-11 2.40507e-14)
(2764.5 -8.14312e-11 1.94583e-14)
(2764.5 -8.23109e-11 2.07307e-14)
(2764.5 -8.90663e-11 1.53109e-14)
(2764.5 -9.77575e-11 2.30623e-14)
(2764.5 -1.02491e-10 1.80831e-14)
(2764.5 -1.09707e-10 2.23644e-14)
(2764.5 -1.05724e-10 2.224e-14)
(2764.5 -9.80463e-11 2.05557e-14)
(2764.5 -9.53664e-11 2.84764e-14)
(2764.5 -9.46024e-11 1.95741e-14)
(2764.5 -9.37384e-11 1.6955e-14)
(2764.5 -9.79921e-11 1.20042e-14)
(2764.5 -1.01235e-10 1.70501e-14)
(2764.5 -1.03564e-10 1.43503e-14)
(2764.5 -1.06853e-10 2.0368e-14)
(2764.5 -1.06675e-10 1.69398e-14)
(2764.5 -1.13107e-10 2.29566e-14)
(2764.5 -1.13129e-10 1.44824e-14)
(2764.5 -1.17777e-10 2.43558e-14)
(2764.5 -1.10349e-10 1.67111e-14)
(2764.5 -1.1814e-10 2.47903e-14)
(2764.5 -1.20288e-10 2.08637e-14)
(2764.5 -1.22538e-10 2.38147e-14)
(2764.5 -1.22813e-10 2.40064e-14)
(2764.5 -1.23805e-10 1.88565e-14)
(2764.5 -1.22991e-10 1.86885e-14)
(2764.5 -1.2345e-10 2.27444e-14)
(2764.5 -1.23294e-10 1.84126e-14)
(2764.5 -1.30823e-10 1.93747e-14)
(2764.5 -1.24588e-10 1.90615e-14)
(2764.5 -1.26651e-10 1.61678e-14)
(2764.5 -1.30153e-10 1.97083e-14)
(2764.5 -1.33248e-10 1.88268e-14)
(2764.5 -1.42693e-10 2.07419e-14)
(2764.5 -1.42328e-10 1.44337e-14)
(2764.5 -1.44922e-10 1.93671e-14)
(2764.5 -1.43624e-10 1.68749e-14)
(2764.5 -1.41015e-10 1.9098e-14)
(2764.5 -1.36068e-10 2.0493e-14)
(2764.5 -1.51276e-10 2.02022e-14)
(2764.5 -1.58486e-10 1.80071e-14)
(2764.5 -1.62035e-10 1.81768e-14)
(2764.5 -1.62114e-10 1.91808e-14)
(2764.5 -1.64567e-10 1.76186e-14)
(2764.5 -1.67598e-10 1.7288e-14)
(2764.5 -1.73917e-10 2.33796e-14)
(2764.5 -1.7594e-10 1.2742e-14)
(2764.5 -1.75493e-10 2.31957e-14)
(2764.5 -1.83722e-10 2.88468e-14)
(2764.5 -1.84743e-10 2.16649e-14)
(2764.5 -1.94151e-10 2.59393e-14)
(2764.5 -1.97364e-10 1.83494e-14)
(2764.5 -2.10111e-10 1.81558e-14)
(2764.5 -2.16243e-10 2.06712e-14)
(2764.5 -1.0628e-07 1.82026e-10)
(2764.5 -4.53322e-08 7.33393e-11)
(2764.5 -2.12522e-08 3.34485e-11)
(2764.5 -1.20391e-08 1.91575e-11)
(2764.5 -7.8457e-09 1.25001e-11)
(2764.5 -5.56903e-09 8.84848e-12)
(2764.5 -4.18176e-09 6.68613e-12)
(2764.5 -3.26309e-09 5.12702e-12)
(2764.5 -2.61813e-09 4.13934e-12)
(2764.5 -2.15533e-09 3.34472e-12)
(2764.5 -1.80807e-09 2.77703e-12)
(2764.5 -1.5374e-09 2.39029e-12)
(2764.5 -1.32351e-09 2.02392e-12)
(2764.5 -1.1516e-09 1.74403e-12)
(2764.5 -1.01881e-09 1.53298e-12)
(2764.5 -9.16592e-10 1.35442e-12)
(2764.5 -8.14976e-10 1.17127e-12)
(2764.5 -7.47995e-10 1.07566e-12)
(2764.5 -6.8216e-10 9.63161e-13)
(2764.5 -6.16103e-10 8.96964e-13)
(2764.5 -5.66188e-10 8.03825e-13)
(2764.5 -5.25381e-10 6.94681e-13)
(2764.5 -4.83348e-10 6.71407e-13)
(2764.5 -4.47732e-10 6.02524e-13)
(2764.5 -4.14414e-10 5.94713e-13)
(2764.5 -4.03834e-10 5.50981e-13)
(2764.5 -3.76054e-10 5.2758e-13)
(2764.5 -3.59533e-10 4.74584e-13)
(2764.5 -3.34873e-10 4.22109e-13)
(2764.5 -3.12217e-10 4.08276e-13)
(2764.5 -2.96512e-10 3.6357e-13)
(2764.5 -2.8587e-10 3.71582e-13)
(2764.5 -2.65565e-10 3.15159e-13)
(2764.5 -2.7106e-10 3.15092e-13)
(2764.5 -2.55777e-10 3.15724e-13)
(2764.5 -2.45202e-10 2.74932e-13)
(2764.5 -2.36783e-10 2.53573e-13)
(2764.5 -2.23084e-10 2.6066e-13)
(2764.5 -2.12899e-10 2.5343e-13)
(2764.5 -2.10076e-10 2.23604e-13)
(2764.5 -2.12325e-10 2.1659e-13)
(2764.5 -1.98529e-10 2.1034e-13)
(2764.5 -1.92828e-10 2.13274e-13)
(2764.5 -1.89859e-10 1.97481e-13)
(2764.5 -1.8232e-10 1.67705e-13)
(2764.5 -1.79813e-10 1.76564e-13)
(2764.5 -1.76959e-10 1.74308e-13)
(2764.5 -1.71428e-10 1.64878e-13)
(2764.5 -1.67309e-10 1.60359e-13)
(2764.5 -1.63701e-10 1.70543e-13)
(2764.5 -1.63711e-10 1.54035e-13)
(2764.5 -1.59382e-10 1.42936e-13)
(2764.5 -1.48676e-10 1.33938e-13)
(2764.5 -1.46294e-10 1.33257e-13)
(2764.5 -1.48974e-10 1.25465e-13)
(2764.5 -1.44797e-10 1.2367e-13)
(2764.5 -1.38703e-10 1.12394e-13)
(2764.5 -1.40346e-10 1.05088e-13)
(2764.5 -1.44173e-10 1.20574e-13)
(2764.5 -1.47822e-10 1.14151e-13)
(2764.5 -1.45492e-10 1.07142e-13)
(2764.5 -1.44355e-10 1.07306e-13)
(2764.5 -1.42132e-10 1.02823e-13)
(2764.5 -1.35153e-10 8.3292e-14)
(2764.5 -1.30139e-10 9.23135e-14)
(2764.5 -1.30443e-10 8.96543e-14)
(2764.5 -1.23684e-10 7.89201e-14)
(2764.5 -1.21408e-10 9.16756e-14)
(2764.5 -1.30213e-10 8.33103e-14)
(2764.5 -1.29602e-10 7.77339e-14)
(2764.5 -1.28453e-10 7.76383e-14)
(2764.5 -1.23701e-10 7.85727e-14)
(2764.5 -1.2748e-10 7.22086e-14)
(2764.5 -1.26072e-10 7.80489e-14)
(2764.5 -1.1894e-10 8.14259e-14)
(2764.5 -1.22027e-10 8.12362e-14)
(2764.5 -1.24587e-10 6.70596e-14)
(2764.5 -1.23998e-10 6.77329e-14)
(2764.5 -1.19029e-10 6.92811e-14)
(2764.5 -1.20446e-10 6.50106e-14)
(2764.5 -1.15724e-10 6.30426e-14)
(2764.5 -1.15779e-10 5.81922e-14)
(2764.5 -1.20089e-10 5.42576e-14)
(2764.5 -1.20075e-10 5.40702e-14)
(2764.5 -1.21307e-10 5.72141e-14)
(2764.5 -1.19733e-10 5.46492e-14)
(2764.5 -1.21647e-10 5.77592e-14)
(2764.5 -1.21764e-10 6.56472e-14)
(2764.5 -1.19081e-10 5.88107e-14)
(2764.5 -1.15722e-10 5.70801e-14)
(2764.5 -1.15111e-10 5.04953e-14)
(2764.5 -1.19034e-10 4.86824e-14)
(2764.5 -1.21402e-10 5.86914e-14)
(2764.5 -1.19852e-10 6.28237e-14)
(2764.5 -1.17797e-10 6.4363e-14)
(2764.5 -1.18542e-10 4.753e-14)
(2764.5 -1.22387e-10 4.18305e-14)
(2764.5 -1.1989e-10 4.51885e-14)
(2764.5 -1.18764e-10 4.82147e-14)
(2764.5 -1.17699e-10 4.90736e-14)
(2764.5 -1.19848e-10 4.29937e-14)
(2764.5 -1.16197e-10 4.74634e-14)
(2764.5 -1.18744e-10 4.91569e-14)
(2764.5 -1.23392e-10 4.17051e-14)
(2764.5 -1.23007e-10 4.82563e-14)
(2764.5 -1.19233e-10 4.36897e-14)
(2764.5 -1.1441e-10 3.951e-14)
(2764.5 -1.16769e-10 3.46899e-14)
(2764.5 -1.25282e-10 3.62984e-14)
(2764.5 -1.27679e-10 4.11647e-14)
(2764.5 -1.27635e-10 3.52033e-14)
(2764.5 -1.27993e-10 3.51803e-14)
(2764.5 -1.27812e-10 3.63497e-14)
(2764.5 -1.2823e-10 3.89553e-14)
(2764.5 -1.25437e-10 3.84612e-14)
(2764.5 -1.2304e-10 4.45619e-14)
(2764.5 -1.22692e-10 4.60634e-14)
(2764.5 -1.26344e-10 4.616e-14)
(2764.5 -1.26992e-10 3.89953e-14)
(2764.5 -1.25125e-10 3.73404e-14)
(2764.5 -1.25655e-10 3.74869e-14)
(2764.5 -1.25389e-10 3.75742e-14)
(2764.5 -1.26327e-10 3.57201e-14)
(2764.5 -1.26262e-10 3.31058e-14)
(2764.5 -1.27532e-10 3.4332e-14)
(2764.5 -1.30716e-10 3.49731e-14)
(2764.5 -1.33171e-10 3.43649e-14)
(2764.5 -1.34345e-10 3.48758e-14)
(2764.5 -1.38556e-10 3.89551e-14)
(2764.5 -1.42658e-10 3.73463e-14)
(2764.5 -1.46536e-10 3.3462e-14)
(2764.5 -1.4666e-10 3.66345e-14)
(2764.5 -1.46604e-10 4.08457e-14)
(2764.5 -1.50883e-10 3.45292e-14)
(2764.5 -1.53035e-10 3.53259e-14)
(2764.5 -1.5494e-10 2.92332e-14)
(2764.5 -1.55219e-10 2.84324e-14)
(2764.5 -1.53409e-10 2.96448e-14)
(2764.5 -1.5272e-10 3.97832e-14)
(2764.5 -1.59365e-10 3.80132e-14)
(2764.5 -1.51419e-10 2.78047e-14)
(2764.5 -1.44565e-10 2.60929e-14)
(2764.5 -1.47927e-10 2.83417e-14)
(2764.5 -1.50809e-10 3.03717e-14)
(2764.5 -1.57639e-10 3.36758e-14)
(2764.5 -1.67735e-10 3.23478e-14)
(2764.5 -1.76907e-10 3.19901e-14)
(2764.5 -1.72918e-10 2.61628e-14)
(2764.5 -1.72189e-10 3.70442e-14)
(2764.5 -1.7237e-10 3.21365e-14)
(2764.5 -1.67742e-10 3.32716e-14)
(2764.5 -1.64627e-10 3.14223e-14)
(2764.5 -1.6906e-10 3.40031e-14)
(2764.5 -1.71651e-10 2.10234e-14)
(2764.5 -1.75166e-10 3.55965e-14)
(2764.5 -1.72264e-10 3.16427e-14)
(2764.5 -1.77661e-10 3.46215e-14)
(2764.5 -1.83082e-10 3.46987e-14)
(2764.5 -1.86823e-10 3.62609e-14)
(2764.5 -1.86146e-10 2.90723e-14)
(2764.5 -1.90301e-10 3.25919e-14)
(2764.5 -1.92168e-10 3.10228e-14)
(2764.5 -1.96455e-10 3.65148e-14)
(2764.5 -1.99538e-10 3.03599e-14)
(2764.5 -2.00242e-10 2.73011e-14)
(2764.5 -2.03407e-10 3.10211e-14)
(2764.5 -2.07767e-10 2.83447e-14)
(2764.5 -2.08608e-10 3.22443e-14)
(2764.5 -2.13413e-10 3.08681e-14)
(2764.5 -2.16068e-10 3.38871e-14)
(2764.5 -2.13872e-10 2.9981e-14)
(2764.5 -2.136e-10 3.4919e-14)
(2764.5 -2.13939e-10 3.41348e-14)
(2764.5 -2.23318e-10 3.39401e-14)
(2764.5 -2.284e-10 3.17372e-14)
(2764.5 -2.36448e-10 3.31821e-14)
(2764.5 -2.41705e-10 2.89952e-14)
(2764.5 -2.4793e-10 3.1848e-14)
(2764.5 -2.41005e-10 2.8018e-14)
(2764.5 -2.44188e-10 2.732e-14)
(2764.5 -2.49239e-10 3.40289e-14)
(2764.5 -2.55779e-10 3.44855e-14)
(2764.5 -2.58691e-10 3.10581e-14)
(2764.5 -2.67595e-10 2.62453e-14)
(2764.5 -2.75301e-10 2.72609e-14)
(2764.5 -2.81396e-10 3.26998e-14)
(2764.5 -2.87169e-10 3.04451e-14)
(2764.5 -2.85977e-10 3.38369e-14)
(2764.5 -2.91948e-10 3.23266e-14)
(2764.5 -2.93548e-10 3.23513e-14)
(2764.5 -2.99504e-10 3.35972e-14)
(2764.5 -2.99697e-10 3.64954e-14)
(2764.5 -3.09347e-10 3.0916e-14)
(2764.5 -3.1793e-10 3.25065e-14)
(2764.5 -1.37733e-07 2.33318e-10)
(2764.5 -6.63927e-08 1.05119e-10)
(2764.5 -3.25542e-08 4.94665e-11)
(2764.5 -1.83164e-08 2.76319e-11)
(2764.5 -1.17566e-08 1.77635e-11)
(2764.5 -8.25874e-09 1.24968e-11)
(2764.5 -6.16766e-09 9.39642e-12)
(2764.5 -4.807e-09 7.28394e-12)
(2764.5 -3.84397e-09 5.83327e-12)
(2764.5 -3.15496e-09 4.78309e-12)
(2764.5 -2.65085e-09 3.91006e-12)
(2764.5 -2.2468e-09 3.37324e-12)
(2764.5 -1.93385e-09 2.89537e-12)
(2764.5 -1.68781e-09 2.50162e-12)
(2764.5 -1.48557e-09 2.25275e-12)
(2764.5 -1.33146e-09 1.9302e-12)
(2764.5 -1.1962e-09 1.69163e-12)
(2764.5 -1.08246e-09 1.50847e-12)
(2764.5 -9.89883e-10 1.32821e-12)
(2764.5 -8.99468e-10 1.26744e-12)
(2764.5 -8.25019e-10 1.11838e-12)
(2764.5 -7.63789e-10 1.03196e-12)
(2764.5 -7.04491e-10 9.56462e-13)
(2764.5 -6.53352e-10 8.76395e-13)
(2764.5 -6.09239e-10 8.11436e-13)
(2764.5 -5.76988e-10 7.51102e-13)
(2764.5 -5.39048e-10 7.04662e-13)
(2764.5 -5.17351e-10 6.40053e-13)
(2764.5 -4.89552e-10 6.1246e-13)
(2764.5 -4.58655e-10 5.64834e-13)
(2764.5 -4.32193e-10 5.38921e-13)
(2764.5 -4.09469e-10 5.14234e-13)
(2764.5 -3.88848e-10 4.93518e-13)
(2764.5 -3.8452e-10 4.67172e-13)
(2764.5 -3.73924e-10 4.40254e-13)
(2764.5 -3.5539e-10 3.97928e-13)
(2764.5 -3.38725e-10 3.83271e-13)
(2764.5 -3.16365e-10 3.49862e-13)
(2764.5 -3.10299e-10 3.55763e-13)
(2764.5 -2.98789e-10 3.16637e-13)
(2764.5 -3.0167e-10 3.07383e-13)
(2764.5 -2.91339e-10 2.86243e-13)
(2764.5 -2.78675e-10 2.84712e-13)
(2764.5 -2.68921e-10 2.66401e-13)
(2764.5 -2.62101e-10 2.68317e-13)
(2764.5 -2.54039e-10 2.4402e-13)
(2764.5 -2.50898e-10 2.474e-13)
(2764.5 -2.44719e-10 2.34895e-13)
(2764.5 -2.43971e-10 2.35854e-13)
(2764.5 -2.43307e-10 2.27157e-13)
(2764.5 -2.33636e-10 2.09521e-13)
(2764.5 -2.25393e-10 2.05771e-13)
(2764.5 -2.17781e-10 1.93849e-13)
(2764.5 -2.10934e-10 1.90139e-13)
(2764.5 -2.07342e-10 1.69684e-13)
(2764.5 -2.03919e-10 1.74649e-13)
(2764.5 -2.02e-10 1.65512e-13)
(2764.5 -1.98397e-10 1.59633e-13)
(2764.5 -1.96491e-10 1.70924e-13)
(2764.5 -1.99052e-10 1.66355e-13)
(2764.5 -2.01455e-10 1.53243e-13)
(2764.5 -2.04691e-10 1.40401e-13)
(2764.5 -2.07794e-10 1.34575e-13)
(2764.5 -1.98463e-10 1.32057e-13)
(2764.5 -1.90738e-10 1.46248e-13)
(2764.5 -1.86534e-10 1.33728e-13)
(2764.5 -1.77147e-10 1.21454e-13)
(2764.5 -1.74477e-10 1.29502e-13)
(2764.5 -1.78934e-10 1.09196e-13)
(2764.5 -1.77242e-10 1.0516e-13)
(2764.5 -1.78472e-10 1.0603e-13)
(2764.5 -1.73822e-10 1.13339e-13)
(2764.5 -1.79401e-10 1.11868e-13)
(2764.5 -1.81614e-10 1.13627e-13)
(2764.5 -1.71641e-10 1.06047e-13)
(2764.5 -1.72645e-10 1.03552e-13)
(2764.5 -1.7189e-10 1.06971e-13)
(2764.5 -1.7243e-10 1.11439e-13)
(2764.5 -1.706e-10 1.05333e-13)
(2764.5 -1.72073e-10 9.3005e-14)
(2764.5 -1.66916e-10 8.37098e-14)
(2764.5 -1.63738e-10 9.17845e-14)
(2764.5 -1.65078e-10 8.58836e-14)
(2764.5 -1.65687e-10 8.77913e-14)
(2764.5 -1.67141e-10 8.30162e-14)
(2764.5 -1.64876e-10 8.52749e-14)
(2764.5 -1.6488e-10 8.44445e-14)
(2764.5 -1.66959e-10 8.12514e-14)
(2764.5 -1.72725e-10 7.47797e-14)
(2764.5 -1.68536e-10 8.05947e-14)
(2764.5 -1.62757e-10 7.88876e-14)
(2764.5 -1.6112e-10 8.00953e-14)
(2764.5 -1.64196e-10 7.99256e-14)
(2764.5 -1.68973e-10 8.6778e-14)
(2764.5 -1.67579e-10 7.62335e-14)
(2764.5 -1.62637e-10 7.41956e-14)
(2764.5 -1.7116e-10 7.46498e-14)
(2764.5 -1.71131e-10 6.71088e-14)
(2764.5 -1.68773e-10 6.61514e-14)
(2764.5 -1.63511e-10 6.55681e-14)
(2764.5 -1.66536e-10 6.04212e-14)
(2764.5 -1.66901e-10 6.32856e-14)
(2764.5 -1.65399e-10 6.60085e-14)
(2764.5 -1.67474e-10 6.70435e-14)
(2764.5 -1.70094e-10 6.65644e-14)
(2764.5 -1.72348e-10 6.42876e-14)
(2764.5 -1.68013e-10 6.02102e-14)
(2764.5 -1.65646e-10 5.89676e-14)
(2764.5 -1.70972e-10 5.56585e-14)
(2764.5 -1.71762e-10 4.97614e-14)
(2764.5 -1.74474e-10 5.09865e-14)
(2764.5 -1.76703e-10 5.17185e-14)
(2764.5 -1.80859e-10 5.66872e-14)
(2764.5 -1.80385e-10 5.70487e-14)
(2764.5 -1.78829e-10 6.11638e-14)
(2764.5 -1.72598e-10 6.12678e-14)
(2764.5 -1.71317e-10 6.00705e-14)
(2764.5 -1.73116e-10 5.50673e-14)
(2764.5 -1.7568e-10 5.13481e-14)
(2764.5 -1.7548e-10 5.35285e-14)
(2764.5 -1.76403e-10 5.41989e-14)
(2764.5 -1.77476e-10 5.25977e-14)
(2764.5 -1.80263e-10 4.89871e-14)
(2764.5 -1.81497e-10 5.11705e-14)
(2764.5 -1.81311e-10 5.44203e-14)
(2764.5 -1.82218e-10 5.17722e-14)
(2764.5 -1.83501e-10 5.56003e-14)
(2764.5 -1.82386e-10 5.64466e-14)
(2764.5 -1.85411e-10 5.01059e-14)
(2764.5 -1.90209e-10 4.88812e-14)
(2764.5 -1.95457e-10 4.9775e-14)
(2764.5 -1.99689e-10 5.18783e-14)
(2764.5 -2.00754e-10 5.01735e-14)
(2764.5 -2.06354e-10 4.802e-14)
(2764.5 -2.09937e-10 4.79606e-14)
(2764.5 -2.13869e-10 4.88448e-14)
(2764.5 -2.14368e-10 5.65814e-14)
(2764.5 -2.1682e-10 4.80189e-14)
(2764.5 -2.11196e-10 4.79533e-14)
(2764.5 -2.18751e-10 4.69029e-14)
(2764.5 -2.2243e-10 4.28196e-14)
(2764.5 -2.15617e-10 4.73637e-14)
(2764.5 -2.09991e-10 4.41128e-14)
(2764.5 -2.09241e-10 4.43838e-14)
(2764.5 -2.09877e-10 4.47922e-14)
(2764.5 -2.16063e-10 4.75854e-14)
(2764.5 -2.29735e-10 4.6648e-14)
(2764.5 -2.3434e-10 4.48678e-14)
(2764.5 -2.34841e-10 4.6434e-14)
(2764.5 -2.37446e-10 4.36959e-14)
(2764.5 -2.38354e-10 4.82326e-14)
(2764.5 -2.36718e-10 4.52256e-14)
(2764.5 -2.37664e-10 5.1162e-14)
(2764.5 -2.40556e-10 3.85394e-14)
(2764.5 -2.43658e-10 4.49151e-14)
(2764.5 -2.41207e-10 4.0639e-14)
(2764.5 -2.47593e-10 4.75103e-14)
(2764.5 -2.55006e-10 4.53174e-14)
(2764.5 -2.56414e-10 4.57796e-14)
(2764.5 -2.56674e-10 4.0031e-14)
(2764.5 -2.58812e-10 4.71955e-14)
(2764.5 -2.63819e-10 4.29247e-14)
(2764.5 -2.70132e-10 4.36526e-14)
(2764.5 -2.75197e-10 3.89339e-14)
(2764.5 -2.76334e-10 4.63086e-14)
(2764.5 -2.7808e-10 4.13815e-14)
(2764.5 -2.80426e-10 4.41798e-14)
(2764.5 -2.83212e-10 4.35444e-14)
(2764.5 -2.88766e-10 4.70994e-14)
(2764.5 -2.9571e-10 4.26169e-14)
(2764.5 -2.98649e-10 3.92426e-14)
(2764.5 -2.99568e-10 4.22417e-14)
(2764.5 -3.00302e-10 3.54927e-14)
(2764.5 -3.04026e-10 4.27819e-14)
(2764.5 -3.1077e-10 4.76984e-14)
(2764.5 -3.17176e-10 4.48393e-14)
(2764.5 -3.2157e-10 4.20307e-14)
(2764.5 -3.29551e-10 4.04347e-14)
(2764.5 -3.30159e-10 4.42654e-14)
(2764.5 -3.33303e-10 4.8047e-14)
(2764.5 -3.39122e-10 4.4186e-14)
(2764.5 -3.42999e-10 4.48903e-14)
(2764.5 -3.45657e-10 4.39442e-14)
(2764.5 -3.51571e-10 4.132e-14)
(2764.5 -3.60909e-10 4.19815e-14)
(2764.5 -3.70268e-10 4.88044e-14)
(2764.5 -3.81203e-10 4.59847e-14)
(2764.5 -3.86322e-10 4.79587e-14)
(2764.5 -3.94238e-10 4.63438e-14)
(2764.5 -4.00044e-10 4.51663e-14)
(2764.5 -4.09157e-10 4.5845e-14)
(2764.5 -4.14626e-10 4.95697e-14)
(2764.5 -4.2343e-10 4.85903e-14)
(2764.5 -4.32795e-10 4.93366e-14)
(2764.5 -1.62702e-07 2.73863e-10)
(2764.5 -8.68438e-08 1.35828e-10)
(2764.5 -4.4878e-08 6.63562e-11)
(2764.5 -2.54223e-08 3.67832e-11)
(2764.5 -1.61573e-08 2.34881e-11)
(2764.5 -1.12415e-08 1.64555e-11)
(2764.5 -8.34113e-09 1.21803e-11)
(2764.5 -6.47695e-09 9.47629e-12)
(2764.5 -5.17671e-09 7.60924e-12)
(2764.5 -4.23901e-09 6.27219e-12)
(2764.5 -3.55168e-09 5.16163e-12)
(2764.5 -3.01446e-09 4.36934e-12)
(2764.5 -2.59089e-09 3.71278e-12)
(2764.5 -2.25677e-09 3.2309e-12)
(2764.5 -1.99241e-09 2.87572e-12)
(2764.5 -1.77547e-09 2.51618e-12)
(2764.5 -1.59582e-09 2.19088e-12)
(2764.5 -1.44232e-09 1.98868e-12)
(2764.5 -1.31905e-09 1.79987e-12)
(2764.5 -1.20244e-09 1.63048e-12)
(2764.5 -1.09893e-09 1.48307e-12)
(2764.5 -1.01416e-09 1.3604e-12)
(2764.5 -9.40617e-10 1.22797e-12)
(2764.5 -8.74287e-10 1.14963e-12)
(2764.5 -8.16065e-10 1.034e-12)
(2764.5 -7.6603e-10 9.95396e-13)
(2764.5 -7.1633e-10 9.11492e-13)
(2764.5 -6.82249e-10 8.65754e-13)
(2764.5 -6.48173e-10 8.26003e-13)
(2764.5 -6.10373e-10 7.59057e-13)
(2764.5 -5.7588e-10 6.93422e-13)
(2764.5 -5.46063e-10 6.69598e-13)
(2764.5 -5.2115e-10 6.18569e-13)
(2764.5 -5.0203e-10 5.72556e-13)
(2764.5 -4.81592e-10 5.51992e-13)
(2764.5 -4.73393e-10 5.35285e-13)
(2764.5 -4.55692e-10 4.99177e-13)
(2764.5 -4.26073e-10 4.67825e-13)
(2764.5 -4.11732e-10 4.3365e-13)
(2764.5 -3.96475e-10 4.06909e-13)
(2764.5 -3.96733e-10 4.13724e-13)
(2764.5 -3.85841e-10 3.97618e-13)
(2764.5 -3.67958e-10 3.792e-13)
(2764.5 -3.52574e-10 3.66153e-13)
(2764.5 -3.47083e-10 3.51103e-13)
(2764.5 -3.33742e-10 3.32156e-13)
(2764.5 -3.22279e-10 3.13389e-13)
(2764.5 -3.16985e-10 3.06174e-13)
(2764.5 -3.16199e-10 2.90983e-13)
(2764.5 -3.18872e-10 2.6923e-13)
(2764.5 -3.11498e-10 2.75885e-13)
(2764.5 -3.00433e-10 2.64778e-13)
(2764.5 -2.8906e-10 2.56287e-13)
(2764.5 -2.81163e-10 2.43335e-13)
(2764.5 -2.71617e-10 2.40259e-13)
(2764.5 -2.64159e-10 2.33715e-13)
(2764.5 -2.6491e-10 2.12393e-13)
(2764.5 -2.61511e-10 2.05384e-13)
(2764.5 -2.57708e-10 2.14265e-13)
(2764.5 -2.54894e-10 1.9652e-13)
(2764.5 -2.55596e-10 1.87032e-13)
(2764.5 -2.59186e-10 1.78855e-13)
(2764.5 -2.65433e-10 1.81754e-13)
(2764.5 -2.60799e-10 1.92038e-13)
(2764.5 -2.49998e-10 1.73647e-13)
(2764.5 -2.45487e-10 1.76177e-13)
(2764.5 -2.40909e-10 1.69562e-13)
(2764.5 -2.32834e-10 1.55065e-13)
(2764.5 -2.3071e-10 1.62027e-13)
(2764.5 -2.27005e-10 1.6e-13)
(2764.5 -2.30002e-10 1.51117e-13)
(2764.5 -2.29232e-10 1.51319e-13)
(2764.5 -2.28549e-10 1.43971e-13)
(2764.5 -2.31692e-10 1.3918e-13)
(2764.5 -2.32393e-10 1.44061e-13)
(2764.5 -2.26605e-10 1.4038e-13)
(2764.5 -2.21584e-10 1.42407e-13)
(2764.5 -2.19973e-10 1.3386e-13)
(2764.5 -2.19876e-10 1.21098e-13)
(2764.5 -2.20192e-10 1.18459e-13)
(2764.5 -2.21307e-10 1.25497e-13)
(2764.5 -2.2058e-10 1.18663e-13)
(2764.5 -2.18314e-10 1.15509e-13)
(2764.5 -2.14959e-10 1.15605e-13)
(2764.5 -2.14584e-10 1.11549e-13)
(2764.5 -2.15285e-10 1.07602e-13)
(2764.5 -2.12377e-10 1.02181e-13)