/*--------------------------------*- C++ -*----------------------------------*\
| =========                 |                                                 |
| \\      /  F ield         | OpenFOAM: The Open Source CFD Toolbox           |
|  \\    /   O peration     | Version:  v1706                                 |
|   \\  /    A nd           | Web:      www.OpenFOAM.com                      |
|    \\/     M anipulation  |                                                 |
\*---------------------------------------------------------------------------*/
FoamFile
{
    version     2.0;
    format      ascii;
    class       volScalarField;
    location    "6e-06";
    object      kappatr;
}
// * * * * * * * * * * * * * * * * * * * * * * * * * * * * * * * * * * * * * //

dimensions      [1 1 -3 -1 0 0 0];


internalField   nonuniform List<scalar> 
29871
(
0.014593
0.014593
0.014593
0.014593
0.014593
0.014593
0.014593
0.014593
0.014593
0.014593
0.014593
0.014593
0.014593
0.014593
0.014593
0.014593
0.014593
0.014593
0.014593
0.014593
0.014593
0.014593
0.014593
0.014593
0.014593
0.014593
0.014593
0.014593
0.014593
0.014593
0.014593
0.014593
0.014593
0.014593
0.014593
0.014593
0.014593
0.014593
0.014593
0.014593
0.014593
0.014593
0.014593
0.014593
0.014593
0.014593
0.014593
0.014593
0.014593
0.014593
0.014593
0.014593
0.014593
0.014593
0.014593
0.014593
0.014593
0.014593
0.014593
0.014593
0.014593
0.014593
0.014593
0.014593
0.014593
0.014593
0.014593
0.014593
0.014593
0.014593
0.014593
0.014593
0.014593
0.014593
0.014593
0.014593
0.014593
0.014593
0.014593
0.014593
0.014593
0.014593
0.014593
0.014593
0.014593
0.014593
0.014593
0.014593
0.014593
0.014593
0.014593
0.014593
0.014593
0.014593
0.014593
0.014593
0.014593
0.014593
0.014593
0.014593
0.014593
0.014593
0.014593
0.014593
0.014593
0.014593
0.014593
0.014593
0.014593
0.014593
0.014593
0.014593
0.014593
0.014593
0.014593
0.014593
0.014593
0.014593
0.014593
0.014593
0.014593
0.014593
0.014593
0.014593
0.014593
0.014593
0.014593
0.014593
0.014593
0.014593
0.014593
0.014593
0.014593
0.014593
0.014593
0.014593
0.014593
0.014593
0.014593
0.014593
0.014593
0.014593
0.014593
0.014593
0.014593
0.014593
0.014593
0.014593
0.014593
0.014593
0.014593
0.014593
0.014593
0.014593
0.014593
0.014593
0.014593
0.014593
0.014593
0.014593
0.014593
0.014593
0.014593
0.014593
0.014593
0.014593
0.014593
0.014593
0.014593
0.014593
0.014593
0.014593
0.014593
0.014593
0.014593
0.014593
0.014593
0.014593
0.014593
0.014593
0.014593
0.014593
0.014593
0.014593
0.014593
0.014593
0.014593
0.014593
0.014593
0.014593
0.014593
0.014593
0.014593
0.014593
0.014593
0.014593
0.014593
0.014593
0.014593
0.014593
0.014593
0.014593
0.014593
0.014593
0.014593
0.014593
0.014593
0.014593
0.014593
0.014593
0.014593
0.014593
0.014593
0.014593
0.014593
0.014593
0.014593
0.014593
0.014593
0.014593
0.014593
0.014593
0.014593
0.014593
0.014593
0.014593
0.014593
0.014593
0.014593
0.014593
0.014593
0.014593
0.014593
0.014593
0.014593
0.014593
0.014593
0.014593
0.014593
0.014593
0.014593
0.014593
0.014593
0.014593
0.014593
0.014593
0.014593
0.014593
0.014593
0.014593
0.014593
0.014593
0.014593
0.014593
0.014593
0.014593
0.014593
0.014593
0.014593
0.014593
0.014593
0.014593
0.014593
0.014593
0.014593
0.014593
0.014593
0.014593
0.014593
0.014593
0.014593
0.014593
0.014593
0.014593
0.014593
0.014593
0.014593
0.014593
0.014593
0.014593
0.014593
0.014593
0.014593
0.014593
0.014593
0.014593
0.014593
0.014593
0.014593
0.014593
0.014593
0.014593
0.014593
0.014593
0.014593
0.014593
0.014593
0.014593
0.014593
0.014593
0.014593
0.014593
0.014593
0.014593
0.014593
0.014593
0.014593
0.014593
0.014593
0.014593
0.014593
0.014593
0.014593
0.014593
0.014593
0.014593
0.014593
0.014593
0.014593
0.014593
0.014593
0.014593
0.014593
0.014593
0.014593
0.014593
0.014593
0.014593
0.014593
0.014593
0.014593
0.014593
0.014593
0.014593
0.014593
0.014593
0.014593
0.014593
0.014593
0.014593
0.014593
0.014593
0.014593
0.014593
0.014593
0.014593
0.014593
0.014593
0.014593
0.014593
0.014593
0.014593
0.014593
0.014593
0.014593
0.014593
0.014593
0.014593
0.014593
0.014593
0.014593
0.014593
0.014593
0.014593
0.014593
0.014593
0.014593
0.014593
0.014593
0.014593
0.014593
0.014593
0.014593
0.014593
0.014593
0.014593
0.014593
0.014593
0.014593
0.014593
0.014593
0.014593
0.014593
0.014593
0.014593
0.014593
0.014593
0.014593
0.014593
0.014593
0.014593
0.014593
0.014593
0.014593
0.014593
0.014593
0.014593
0.014593
0.014593
0.014593
0.014593
0.014593
0.014593
0.014593
0.014593
0.014593
0.014593
0.014593
0.014593
0.014593
0.014593
0.014593
0.014593
0.014593
0.014593
0.014593
0.014593
0.014593
0.014593
0.014593
0.014593
0.014593
0.014593
0.014593
0.014593
0.014593
0.014593
0.014593
0.014593
0.014593
0.014593
0.014593
0.014593
0.014593
0.014593
0.014593
0.014593
0.014593
0.014593
0.014593
0.014593
0.014593
0.014593
0.014593
0.014593
0.014593
0.014593
0.014593
0.014593
0.014593
0.014593
0.014593
0.014593
0.014593
0.014593
0.014593
0.014593
0.014593
0.014593
0.014593
0.014593
0.014593
0.014593
0.014593
0.014593
0.014593
0.014593
0.014593
0.014593
0.014593
0.014593
0.014593
0.014593
0.014593
0.014593
0.014593
0.014593
0.014593
0.014593
0.014593
0.014593
0.014593
0.014593
0.014593
0.014593
0.014593
0.014593
0.014593
0.014593
0.014593
0.014593
0.014593
0.014593
0.014593
0.014593
0.014593
0.014593
0.014593
0.014593
0.014593
0.014593
0.014593
0.014593
0.014593
0.014593
0.014593
0.014593
0.014593
0.014593
0.014593
0.014593
0.014593
0.014593
0.014593
0.014593
0.014593
0.014593
0.014593
0.014593
0.014593
0.014593
0.014593
0.014593
0.014593
0.014593
0.014593
0.014593
0.014593
0.014593
0.014593
0.014593
0.014593
0.014593
0.014593
0.014593
0.014593
0.014593
0.014593
0.014593
0.014593
0.014593
0.014593
0.014593
0.014593
0.014593
0.014593
0.014593
0.014593
0.014593
0.014593
0.014593
0.014593
0.014593
0.014593
0.014593
0.014593
0.014593
0.014593
0.014593
0.014593
0.014593
0.014593
0.014593
0.014593
0.014593
0.014593
0.014593
0.014593
0.014593
0.014593
0.014593
0.014593
0.014593
0.014593
0.014593
0.014593
0.014593
0.014593
0.014593
0.014593
0.014593
0.014593
0.014593
0.014593
0.014593
0.014593
0.014593
0.014593
0.014593
0.014593
0.014593
0.014593
0.014593
0.014593
0.014593
0.014593
0.014593
0.014593
0.014593
0.014593
0.014593
0.014593
0.014593
0.014593
0.014593
0.014593
0.014593
0.014593
0.014593
0.014593
0.014593
0.014593
0.014593
0.014593
0.014593
0.014593
0.014593
0.014593
0.014593
0.014593
0.014593
0.014593
0.014593
0.014593
0.014593
0.014593
0.014593
0.014593
0.014593
0.014593
0.014593
0.014593
0.014593
0.014593
0.014593
0.014593
0.014593
0.014593
0.014593
0.014593
0.014593
0.014593
0.014593
0.014593
0.014593
0.014593
0.014593
0.014593
0.014593
0.014593
0.014593
0.014593
0.014593
0.014593
0.014593
0.014593
0.014593
0.014593
0.014593
0.014593
0.014593
0.014593
0.014593
0.014593
0.014593
0.014593
0.014593
0.014593
0.014593
0.014593
0.014593
0.014593
0.014593
0.014593
0.014593
0.014593
0.014593
0.014593
0.014593
0.014593
0.014593
0.014593
0.014593
0.014593
0.014593
0.014593
0.014593
0.014593
0.014593
0.014593
0.014593
0.014593
0.014593
0.014593
0.014593
0.014593
0.014593
0.014593
0.014593
0.014593
0.014593
0.014593
0.014593
0.014593
0.014593
0.014593
0.014593
0.014593
0.014593
0.014593
0.014593
0.014593
0.014593
0.014593
0.014593
0.014593
0.014593
0.014593
0.014593
0.014593
0.014593
0.014593
0.014593
0.014593
0.014593
0.014593
0.014593
0.014593
0.014593
0.014593
0.014593
0.014593
0.014593
0.014593
0.014593
0.014593
0.014593
0.014593
0.014593
0.014593
0.014593
0.014593
0.014593
0.014593
0.014593
0.014593
0.014593
0.014593
0.014593
0.014593
0.014593
0.014593
0.014593
0.014593
0.014593
0.014593
0.014593
0.014593
0.014593
0.014593
0.014593
0.014593
0.014593
0.014593
0.014593
0.014593
0.014593
0.014593
0.014593
0.014593
0.014593
0.014593
0.014593
0.014593
0.014593
0.014593
0.014593
0.014593
0.014593
0.014593
0.014593
0.014593
0.014593
0.014593
0.014593
0.014593
0.014593
0.014593
0.014593
0.014593
0.014593
0.014593
0.014593
0.014593
0.014593
0.014593
0.014593
0.014593
0.014593
0.014593
0.014593
0.014593
0.014593
0.014593
0.014593
0.014593
0.014593
0.014593
0.014593
0.014593
0.014593
0.014593
0.014593
0.014593
0.014593
0.014593
0.014593
0.014593
0.014593
0.014593
0.014593
0.014593
0.014593
0.014593
0.014593
0.014593
0.014593
0.014593
0.014593
0.014593
0.014593
0.014593
0.014593
0.014593
0.014593
0.014593
0.014593
0.014593
0.014593
0.014593
0.014593
0.014593
0.014593
0.014593
0.014593
0.014593
0.014593
0.014593
0.014593
0.014593
0.014593
0.014593
0.014593
0.014593
0.014593
0.014593
0.014593
0.014593
0.014593
0.014593
0.014593
0.014593
0.014593
0.014593
0.014593
0.014593
0.014593
0.014593
0.014593
0.014593
0.014593
0.014593
0.014593
0.014593
0.014593
0.014593
0.014593
0.014593
0.014593
0.014593
0.014593
0.014593
0.014593
0.014593
0.014593
0.014593
0.014593
0.014593
0.014593
0.014593
0.014593
0.014593
0.014593
0.014593
0.014593
0.014593
0.014593
0.014593
0.014593
0.014593
0.014593
0.014593
0.014593
0.014593
0.014593
0.014593
0.014593
0.014593
0.014593
0.014593
0.014593
0.014593
0.014593
0.014593
0.014593
0.014593
0.014593
0.014593
0.014593
0.014593
0.014593
0.014593
0.014593
0.014593
0.014593
0.014593
0.014593
0.014593
0.014593
0.014593
0.014593
0.014593
0.014593
0.014593
0.014593
0.014593
0.014593
0.014593
0.014593
0.014593
0.014593
0.014593
0.014593
0.014593
0.014593
0.014593
0.014593
0.014593
0.014593
0.014593
0.014593
0.014593
0.014593
0.014593
0.014593
0.014593
0.014593
0.014593
0.014593
0.014593
0.014593
0.014593
0.014593
0.014593
0.014593
0.014593
0.014593
0.014593
0.014593
0.014593
0.014593
0.014593
0.014593
0.014593
0.014593
0.014593
0.014593
0.014593
0.014593
0.014593
0.014593
0.014593
0.014593
0.014593
0.014593
0.014593
0.014593
0.014593
0.014593
0.014593
0.014593
0.014593
0.014593
0.014593
0.014593
0.014593
0.014593
0.014593
0.014593
0.014593
0.014593
0.014593
0.014593
0.014593
0.014593
0.014593
0.014593
0.014593
0.014593
0.014593
0.014593
0.014593
0.014593
0.014593
0.014593
0.014593
0.014593
0.014593
0.014593
0.014593
0.014593
0.014593
0.014593
0.014593
0.014593
0.014593
0.014593
0.014593
0.014593
0.014593
0.014593
0.014593
0.014593
0.014593
0.014593
0.014593
0.014593
0.014593
0.014593
0.014593
0.014593
0.014593
0.014593
0.014593
0.014593
0.014593
0.014593
0.014593
0.014593
0.014593
0.014593
0.014593
0.014593
0.014593
0.014593
0.014593
0.014593
0.014593
0.014593
0.014593
0.014593
0.014593
0.014593
0.014593
0.014593
0.014593
0.014593
0.014593
0.014593
0.014593
0.014593
0.014593
0.014593
0.014593
0.014593
0.014593
0.014593
0.014593
0.014593
0.014593
0.014593
0.014593
0.014593
0.014593
0.014593
0.014593
0.014593
0.014593
0.014593
0.014593
0.014593
0.014593
0.014593
0.014593
0.014593
0.014593
0.014593
0.014593
0.014593
0.014593
0.014593
0.014593
0.014593
0.014593
0.014593
0.014593
0.014593
0.014593
0.014593
0.014593
0.014593
0.014593
0.014593
0.014593
0.014593
0.014593
0.014593
0.014593
0.014593
0.014593
0.014593
0.014593
0.014593
0.014593
0.014593
0.014593
0.014593
0.014593
0.014593
0.014593
0.014593
0.014593
0.014593
0.014593
0.014593
0.014593
0.014593
0.014593
0.014593
0.014593
0.014593
0.014593
0.014593
0.014593
0.014593
0.014593
0.014593
0.014593
0.014593
0.014593
0.014593
0.014593
0.014593
0.014593
0.014593
0.014593
0.014593
0.014593
0.014593
0.014593
0.014593
0.014593
0.014593
0.014593
0.014593
0.014593
0.014593
0.014593
0.014593
0.014593
0.014593
0.014593
0.014593
0.014593
0.014593
0.014593
0.014593
0.014593
0.014593
0.014593
0.014593
0.014593
0.014593
0.014593
0.014593
0.014593
0.014593
0.014593
0.014593
0.014593
0.014593
0.014593
0.014593
0.014593
0.014593
0.014593
0.014593
0.014593
0.014593
0.014593
0.014593
0.014593
0.014593
0.014593
0.014593
0.014593
0.014593
0.014593
0.014593
0.014593
0.014593
0.014593
0.014593
0.014593
0.014593
0.014593
0.014593
0.014593
0.014593
0.014593
0.014593
0.014593
0.014593
0.014593
0.014593
0.014593
0.014593
0.014593
0.014593
0.014593
0.014593
0.014593
0.014593
0.014593
0.014593
0.014593
0.014593
0.014593
0.014593
0.014593
0.014593
0.014593
0.014593
0.014593
0.014593
0.014593
0.014593
0.014593
0.014593
0.014593
0.014593
0.014593
0.014593
0.014593
0.014593
0.014593
0.014593
0.014593
0.014593
0.014593
0.014593
0.014593
0.014593
0.014593
0.014593
0.014593
0.014593
0.014593
0.014593
0.014593
0.014593
0.014593
0.014593
0.014593
0.014593
0.014593
0.014593
0.014593
0.014593
0.014593
0.014593
0.014593
0.014593
0.014593
0.014593
0.014593
0.014593
0.014593
0.014593
0.014593
0.014593
0.014593
0.014593
0.014593
0.014593
0.014593
0.014593
0.014593
0.014593
0.014593
0.014593
0.014593
0.014593
0.014593
0.014593
0.014593
0.014593
0.014593
0.014593
0.014593
0.014593
0.014593
0.014593
0.014593
0.014593
0.014593
0.014593
0.014593
0.014593
0.014593
0.014593
0.014593
0.014593
0.014593
0.014593
0.014593
0.014593
0.014593
0.014593
0.014593
0.014593
0.014593
0.014593
0.014593
0.014593
0.014593
0.014593
0.014593
0.014593
0.014593
0.014593
0.014593
0.014593
0.014593
0.014593
0.014593
0.014593
0.014593
0.014593
0.014593
0.014593
0.014593
0.014593
0.014593
0.014593
0.014593
0.014593
0.014593
0.014593
0.014593
0.014593
0.014593
0.014593
0.014593
0.014593
0.014593
0.014593
0.014593
0.014593
0.014593
0.014593
0.014593
0.014593
0.014593
0.014593
0.014593
0.014593
0.014593
0.014593
0.014593
0.014593
0.014593
0.014593
0.014593
0.014593
0.014593
0.014593
0.014593
0.014593
0.014593
0.014593
0.014593
0.014593
0.014593
0.014593
0.014593
0.014593
0.014593
0.014593
0.014593
0.014593
0.014593
0.014593
0.014593
0.014593
0.014593
0.014593
0.014593
0.014593
0.014593
0.014593
0.014593
0.014593
0.014593
0.014593
0.014593
0.014593
0.014593
0.014593
0.014593
0.014593
0.014593
0.014593
0.014593
0.014593
0.014593
0.014593
0.014593
0.014593
0.014593
0.014593
0.014593
0.014593
0.014593
0.014593
0.014593
0.014593
0.014593
0.014593
0.014593
0.014593
0.014593
0.014593
0.014593
0.014593
0.014593
0.014593
0.014593
0.014593
0.014593
0.014593
0.014593
0.014593
0.014593
0.014593
0.014593
0.014593
0.014593
0.014593
0.014593
0.014593
0.014593
0.014593
0.014593
0.014593
0.014593
0.014593
0.014593
0.014593
0.014593
0.014593
0.014593
0.014593
0.014593
0.014593
0.014593
0.014593
0.014593
0.014593
0.014593
0.014593
0.014593
0.014593
0.014593
0.014593
0.014593
0.014593
0.014593
0.014593
0.014593
0.014593
0.014593
0.014593
0.014593
0.014593
0.014593
0.014593
0.014593
0.014593
0.014593
0.014593
0.014593
0.014593
0.014593
0.014593
0.014593
0.014593
0.014593
0.014593
0.014593
0.014593
0.014593
0.014593
0.014593
0.014593
0.0145931
0.0145931
0.0145931
0.0145931
0.0145931
0.0145931
0.0145931
0.0145931
0.014593
0.014593
0.014593
0.014593
0.014593
0.014593
0.014593
0.014593
0.014593
0.014593
0.014593
0.014593
0.014593
0.014593
0.014593
0.014593
0.014593
0.014593
0.014593
0.014593
0.014593
0.014593
0.014593
0.014593
0.014593
0.014593
0.014593
0.014593
0.014593
0.014593
0.014593
0.014593
0.014593
0.014593
0.014593
0.014593
0.014593
0.014593
0.014593
0.014593
0.014593
0.014593
0.014593
0.014593
0.014593
0.014593
0.014593
0.014593
0.014593
0.014593
0.014593
0.014593
0.014593
0.014593
0.014593
0.014593
0.014593
0.014593
0.014593
0.014593
0.014593
0.014593
0.014593
0.014593
0.014593
0.014593
0.014593
0.014593
0.014593
0.014593
0.014593
0.014593
0.014593
0.014593
0.014593
0.014593
0.014593
0.014593
0.014593
0.014593
0.014593
0.014593
0.014593
0.014593
0.014593
0.014593
0.014593
0.014593
0.014593
0.014593
0.014593
0.014593
0.014593
0.0145931
0.0145931
0.0145931
0.0145931
0.0145931
0.0145931
0.0145931
0.0145931
0.0145931
0.0145931
0.0145932
0.0145932
0.0145932
0.0145932
0.0145932
0.0145933
0.0145933
0.0145933
0.0145933
0.0145934
0.0145934
0.0145935
0.014593
0.014593
0.014593
0.014593
0.014593
0.014593
0.014593
0.014593
0.014593
0.014593
0.014593
0.014593
0.014593
0.014593
0.014593
0.014593
0.014593
0.014593
0.014593
0.0145931
0.0145931
0.0145931
0.0145931
0.0145931
0.0145931
0.0145931
0.0145931
0.0145931
0.0145931
0.0145931
0.0145931
0.0145931
0.0145931
0.0145931
0.0145931
0.0145932
0.0145932
0.0145932
0.0145932
0.0145932
0.0145932
0.0145932
0.0145932
0.0145932
0.0145932
0.0145932
0.0145932
0.0145932
0.0145932
0.0145932
0.0145932
0.0145932
0.0145932
0.0145932
0.0145931
0.0145931
0.0145931
0.0145931
0.0145931
0.0145931
0.0145931
0.0145931
0.0145931
0.0145931
0.0145931
0.0145931
0.0145931
0.0145931
0.0145931
0.0145931
0.0145931
0.0145931
0.0145931
0.0145931
0.0145931
0.0145931
0.0145931
0.0145931
0.0145931
0.0145931
0.0145931
0.0145931
0.0145931
0.0145931
0.0145931
0.0145931
0.0145931
0.0145931
0.0145931
0.0145931
0.0145932
0.0145932
0.0145932
0.0145932
0.0145933
0.0145933
0.0145934
0.0145934
0.0145934
0.0145935
0.0145936
0.0145936
0.0145937
0.0145938
0.0145938
0.0145939
0.014594
0.0145941
0.0145942
0.0145944
0.0145945
0.0145947
0.0145948
0.014595
0.0145952
0.0145954
0.014593
0.014593
0.014593
0.014593
0.014593
0.014593
0.014593
0.014593
0.014593
0.014593
0.014593
0.014593
0.014593
0.014593
0.014593
0.0145931
0.0145931
0.0145931
0.0145931
0.0145931
0.0145931
0.0145931
0.0145931
0.0145932
0.0145932
0.0145932
0.0145932
0.0145933
0.0145933
0.0145933
0.0145933
0.0145934
0.0145934
0.0145934
0.0145935
0.0145935
0.0145935
0.0145935
0.0145936
0.0145936
0.0145936
0.0145936
0.0145937
0.0145937
0.0145937
0.0145937
0.0145937
0.0145937
0.0145937
0.0145937
0.0145937
0.0145937
0.0145937
0.0145937
0.0145937
0.0145937
0.0145937
0.0145937
0.0145937
0.0145936
0.0145936
0.0145936
0.0145936
0.0145936
0.0145935
0.0145935
0.0145935
0.0145935
0.0145935
0.0145934
0.0145934
0.0145934
0.0145934
0.0145934
0.0145934
0.0145933
0.0145933
0.0145933
0.0145933
0.0145933
0.0145933
0.0145933
0.0145933
0.0145933
0.0145933
0.0145933
0.0145933
0.0145933
0.0145933
0.0145933
0.0145933
0.0145934
0.0145934
0.0145935
0.0145935
0.0145936
0.0145936
0.0145937
0.0145938
0.014594
0.0145941
0.0145943
0.0145944
0.0145946
0.0145949
0.0145951
0.0145954
0.0145956
0.014596
0.0145963
0.0145966
0.014597
0.0145975
0.0145979
0.0145984
0.014599
0.0145996
0.0146002
0.014601
0.0146018
0.0146027
0.0146037
0.0146048
0.014593
0.014593
0.014593
0.014593
0.014593
0.014593
0.014593
0.0145931
0.0145931
0.0145931
0.0145931
0.0145931
0.0145931
0.0145932
0.0145932
0.0145932
0.0145933
0.0145933
0.0145934
0.0145934
0.0145935
0.0145936
0.0145936
0.0145937
0.0145938
0.0145939
0.014594
0.0145941
0.0145942
0.0145943
0.0145945
0.0145946
0.0145947
0.0145948
0.014595
0.0145951
0.0145952
0.0145953
0.0145954
0.0145955
0.0145956
0.0145957
0.0145958
0.0145959
0.0145959
0.014596
0.014596
0.0145961
0.0145961
0.0145961
0.0145961
0.0145961
0.014596
0.014596
0.014596
0.0145959
0.0145959
0.0145958
0.0145957
0.0145956
0.0145956
0.0145955
0.0145954
0.0145953
0.0145952
0.0145952
0.0145951
0.014595
0.0145949
0.0145948
0.0145947
0.0145947
0.0145946
0.0145945
0.0145945
0.0145944
0.0145944
0.0145943
0.0145943
0.0145943
0.0145942
0.0145942
0.0145942
0.0145942
0.0145942
0.0145942
0.0145942
0.0145943
0.0145943
0.0145944
0.0145945
0.0145946
0.0145948
0.014595
0.0145953
0.0145956
0.0145959
0.0145963
0.0145968
0.0145974
0.0145981
0.0145988
0.0145997
0.0146006
0.0146016
0.0146028
0.014604
0.0146053
0.0146068
0.0146084
0.0146101
0.0146119
0.014614
0.0146161
0.0146185
0.0146212
0.0146241
0.0146273
0.0146308
0.0146348
0.0146392
0.0146441
0.0146496
0.0145931
0.0145931
0.0145931
0.0145931
0.0145931
0.0145932
0.0145932
0.0145932
0.0145933
0.0145934
0.0145934
0.0145935
0.0145936
0.0145938
0.0145939
0.0145941
0.0145942
0.0145944
0.0145947
0.0145949
0.0145952
0.0145955
0.0145958
0.0145962
0.0145966
0.014597
0.0145974
0.0145979
0.0145983
0.0145988
0.0145993
0.0145999
0.0146004
0.0146009
0.0146014
0.0146019
0.0146024
0.0146029
0.0146034
0.0146038
0.0146042
0.0146045
0.0146049
0.0146051
0.0146054
0.0146056
0.0146057
0.0146058
0.0146059
0.0146059
0.0146058
0.0146058
0.0146056
0.0146055
0.0146053
0.014605
0.0146048
0.0146045
0.0146042
0.0146039
0.0146036
0.0146032
0.0146029
0.0146025
0.0146022
0.0146018
0.0146015
0.0146011
0.0146008
0.0146005
0.0146002
0.0145999
0.0145996
0.0145994
0.0145991
0.0145989
0.0145987
0.0145985
0.0145984
0.0145982
0.0145981
0.0145981
0.0145981
0.0145981
0.0145981
0.0145982
0.0145983
0.0145985
0.0145988
0.0145991
0.0145996
0.0146002
0.014601
0.0146019
0.014603
0.0146044
0.0146061
0.014608
0.0146103
0.014613
0.014616
0.0146195
0.0146234
0.0146278
0.0146326
0.0146379
0.0146436
0.0146499
0.0146568
0.0146641
0.0146721
0.0146808
0.0146902
0.0147004
0.0147116
0.0147239
0.0147375
0.0147525
0.0147692
0.0147879
0.0148086
0.0148316
0.0148573
0.0145932
0.0145933
0.0145934
0.0145935
0.0145936
0.0145937
0.0145939
0.0145941
0.0145943
0.0145946
0.014595
0.0145954
0.0145958
0.0145964
0.014597
0.0145977
0.0145985
0.0145993
0.0146003
0.0146014
0.0146026
0.0146039
0.0146053
0.0146068
0.0146085
0.0146102
0.014612
0.0146139
0.0146159
0.014618
0.0146201
0.0146222
0.0146243
0.0146264
0.0146285
0.0146306
0.0146326
0.0146345
0.0146363
0.014638
0.0146395
0.0146409
0.0146422
0.0146432
0.0146441
0.0146448
0.0146453
0.0146456
0.0146457
0.0146457
0.0146454
0.014645
0.0146444
0.0146437
0.0146429
0.0146419
0.0146408
0.0146396
0.0146384
0.0146371
0.0146357
0.0146343
0.0146329
0.0146315
0.0146301
0.0146287
0.0146273
0.0146259
0.0146246
0.0146233
0.0146221
0.0146209
0.0146199
0.0146188
0.0146179
0.0146171
0.0146163
0.0146156
0.014615
0.0146145
0.0146142
0.014614
0.014614
0.0146141
0.0146143
0.0146147
0.0146153
0.0146163
0.0146176
0.0146193
0.0146215
0.0146242
0.0146277
0.0146319
0.0146371
0.0146434
0.0146509
0.0146598
0.0146702
0.0146823
0.0146962
0.0147119
0.0147296
0.0147492
0.0147709
0.0147948
0.0148208
0.0148491
0.0148798
0.014913
0.0149489
0.0149878
0.0150298
0.0150756
0.0151255
0.0151802
0.0152403
0.0153068
0.0153802
0.0154616
0.0155518
0.0156518
0.0157624
0.0158847
0.0160195
0.014594
0.0145943
0.0145946
0.014595
0.0145956
0.0145962
0.0145969
0.0145978
0.0145989
0.0146002
0.0146017
0.0146034
0.0146054
0.0146077
0.0146103
0.0146133
0.0146167
0.0146204
0.0146246
0.0146292
0.0146342
0.0146397
0.0146456
0.0146519
0.0146587
0.0146658
0.0146734
0.0146812
0.0146893
0.0146975
0.014706
0.0147145
0.014723
0.0147315
0.0147398
0.0147479
0.0147557
0.0147631
0.0147701
0.0147765
0.0147824
0.0147876
0.0147922
0.014796
0.0147992
0.0148015
0.0148032
0.014804
0.0148041
0.0148036
0.0148024
0.0148005
0.014798
0.0147949
0.0147913
0.0147872
0.0147828
0.014778
0.014773
0.0147678
0.0147624
0.0147569
0.0147513
0.0147457
0.0147401
0.0147346
0.0147292
0.0147239
0.0147187
0.0147138
0.0147091
0.0147046
0.0147004
0.0146966
0.014693
0.0146897
0.0146868
0.0146842
0.0146821
0.0146804
0.0146793
0.0146791
0.0146792
0.0146797
0.0146809
0.0146829
0.014686
0.0146904
0.0146963
0.0147039
0.0147137
0.014726
0.0147412
0.01476
0.0147829
0.0148104
0.0148433
0.0148823
0.014928
0.0149807
0.015041
0.015109
0.0151849
0.0152688
0.0153608
0.0154611
0.0155698
0.015687
0.015813
0.0159482
0.0160929
0.0162479
0.0164139
0.016592
0.0167835
0.01699
0.017213
0.0174542
0.0177153
0.0179981
0.0183044
0.0186361
0.0189949
0.0193821
0.0197989
0.0145974
0.0145986
0.0146001
0.014602
0.0146042
0.0146069
0.0146102
0.0146141
0.0146187
0.0146241
0.0146305
0.0146378
0.0146463
0.0146561
0.0146671
0.0146796
0.0146936
0.0147092
0.0147264
0.0147453
0.0147659
0.0147881
0.014812
0.0148376
0.0148646
0.0148931
0.0149228
0.0149535
0.0149851
0.0150172
0.0150497
0.0150821
0.0151144
0.0151461
0.0151771
0.015207
0.0152355
0.0152624
0.0152874
0.0153104
0.015331
0.0153493
0.015365
0.015378
0.0153883
0.0153957
0.0154003
0.0154022
0.0154017
0.0153986
0.015393
0.0153849
0.0153747
0.0153625
0.0153486
0.0153331
0.0153163
0.0152983
0.0152794
0.0152597
0.0152396
0.015219
0.0151983
0.0151776
0.0151569
0.0151365
0.0151163
0.0150967
0.0150777
0.0150595
0.0150421
0.0150257
0.0150104
0.0149962
0.0149832
0.0149714
0.0149609
0.0149518
0.0149443
0.0149387
0.014936
0.014936
0.0149371
0.0149401
0.014946
0.0149557
0.0149697
0.0149888
0.0150141
0.0150468
0.0150883
0.0151403
0.0152045
0.0152828
0.0153772
0.0154901
0.0156238
0.0157803
0.0159612
0.0161674
0.0163988
0.0166548
0.0169342
0.0172355
0.017557
0.0178975
0.0182556
0.0186307
0.0190225
0.0194311
0.0198569
0.0203005
0.0207628
0.0212452
0.0217491
0.0222759
0.0228259
0.0233995
0.0239966
0.0246172
0.0252617
0.0259307
0.026625
0.027345
0.028091
0.014608
0.0146122
0.0146174
0.0146238
0.0146317
0.0146413
0.0146528
0.0146666
0.014683
0.0147023
0.014725
0.0147514
0.0147819
0.0148168
0.0148564
0.0149012
0.0149514
0.0150072
0.0150689
0.0151364
0.0152097
0.0152887
0.0153732
0.0154629
0.0155575
0.0156567
0.0157598
0.0158661
0.0159747
0.0160848
0.0161953
0.0163053
0.0164138
0.0165201
0.0166231
0.0167221
0.0168163
0.016905
0.0169876
0.0170635
0.0171321
0.017193
0.0172458
0.0172905
0.0173268
0.0173544
0.0173732
0.0173833
0.0173852
0.0173806
0.0173678
0.017347
0.0173191
0.0172849
0.0172451
0.0172
0.0171503
0.0170966
0.0170394
0.0169792
0.0169166
0.0168523
0.0167869
0.0167208
0.0166543
0.016588
0.0165222
0.0164573
0.0163938
0.0163323
0.016273
0.0162165
0.0161632
0.0161132
0.0160669
0.0160247
0.0159868
0.0159531
0.0159242
0.0159011
0.0158858
0.0158815
0.0158835
0.0158901
0.0159053
0.0159319
0.0159721
0.0160281
0.0161029
0.0162001
0.0163239
0.0164789
0.01667
0.0169015
0.0171776
0.0175023
0.017879
0.0183105
0.0187973
0.0193379
0.019929
0.020565
0.0212393
0.0219443
0.0226718
0.0234138
0.0241633
0.0249145
0.0256639
0.02641
0.0271531
0.0278946
0.0286361
0.0293798
0.0301282
0.0308829
0.0316436
0.0324067
0.0331665
0.0339157
0.0346467
0.0353519
0.0360247
0.03666
0.0372547
0.0378071
0.0146572
0.0146749
0.0146968
0.0147236
0.0147563
0.0147958
0.0148431
0.0148993
0.0149656
0.0150431
0.0151331
0.0152366
0.0153545
0.0154875
0.0156361
0.015801
0.0159825
0.0161807
0.0163953
0.0166254
0.0168698
0.0171268
0.0173946
0.0176716
0.0179562
0.0182467
0.0185411
0.0188374
0.0191329
0.0194252
0.0197114
0.0199894
0.0202568
0.0205119
0.0207532
0.0209794
0.0211896
0.021383
0.0215592
0.0217176
0.0218576
0.021979
0.022082
0.0221668
0.0222336
0.0222811
0.0223091
0.0223181
0.0223144
0.0222965
0.0222596
0.0222058
0.0221381
0.022058
0.0219665
0.0218641
0.0217518
0.0216305
0.0215012
0.0213651
0.0212232
0.0210768
0.020927
0.0207747
0.0206209
0.0204661
0.0203115
0.020158
0.0200067
0.019859
0.0197159
0.0195787
0.0194483
0.0193257
0.0192119
0.0191083
0.0190157
0.0189338
0.0188639
0.0188111
0.0187841
0.0187838
0.0187944
0.0188237
0.0188797
0.0189679
0.0190935
0.0192624
0.0194813
0.0197583
0.020102
0.0205205
0.0210199
0.0216031
0.0222708
0.0230218
0.0238521
0.0247542
0.0257159
0.0267219
0.0277565
0.0288056
0.0298561
0.0308947
0.0319078
0.0328821
0.0338049
0.0346663
0.0354602
0.0361844
0.0368409
0.0374333
0.0379663
0.0384457
0.0388785
0.0392707
0.0396266
0.0399482
0.0402366
0.0404935
0.040721
0.0409209
0.041095
0.0412458
0.0413758
0.0414876
0.0415842
0.041669
0.0148602
0.0149321
0.01502
0.0151267
0.015255
0.0154077
0.0155875
0.0157966
0.0160375
0.0163123
0.0166225
0.0169693
0.0173522
0.0177697
0.0182193
0.0186986
0.0192051
0.0197362
0.0202886
0.0208581
0.0214389
0.022025
0.0226106
0.0231908
0.023762
0.0243214
0.0248668
0.0253962
0.0259069
0.0263963
0.0268613
0.0272995
0.0277087
0.0280873
0.0284346
0.0287501
0.0290339
0.0292867
0.0295097
0.0297037
0.0298688
0.0300058
0.0301162
0.0302022
0.0302659
0.0303036
0.0303098
0.0302999
0.0302734
0.03023
0.0301609
0.0300668
0.0299587
0.0298379
0.0297032
0.0295545
0.0293926
0.0292187
0.029034
0.0288395
0.0286366
0.0284265
0.0282107
0.0279902
0.0277658
0.0275385
0.0273095
0.0270804
0.026853
0.026629
0.0264104
0.0261993
0.0259974
0.0258065
0.025629
0.025468
0.0253261
0.0252004
0.0250945
0.0250263
0.0250111
0.0250225
0.0250613
0.025141
0.0252709
0.0254588
0.0257126
0.0260404
0.0264504
0.0269515
0.0275516
0.0282544
0.0290573
0.0299511
0.030923
0.0319579
0.0330366
0.0341316
0.0352061
0.0362183
0.037134
0.0379359
0.038624
0.0392084
0.0397028
0.0401205
0.0404726
0.0407688
0.0410164
0.0412201
0.0413858
0.0415188
0.0416249
0.0417088
0.0417756
0.0418321
0.0418838
0.0419323
0.041979
0.0420272
0.0420778
0.0421306
0.0421857
0.0422427
0.0423015
0.0423623
0.0424278
0.0424967
0.0156477
0.0159127
0.0162281
0.0165986
0.0170286
0.017521
0.0180765
0.0186934
0.0193686
0.0200986
0.0208794
0.0217055
0.022569
0.0234593
0.0243647
0.0252746
0.0261814
0.0270803
0.0279682
0.0288409
0.0296926
0.0305155
0.0313018
0.0320453
0.0327425
0.033392
0.0339946
0.0345527
0.0350686
0.0355428
0.0359756
0.0363675
0.0367189
0.0370295
0.0373
0.0375319
0.0377267
0.0378867
0.0380146
0.0381136
0.038185
0.0382302
0.0382506
0.0382517
0.0382414
0.0382096
0.0381551
0.0380846
0.0380031
0.0379142
0.0378141
0.0377008
0.0375768
0.0374432
0.0373011
0.0371511
0.0369942
0.036831
0.036662
0.0364875
0.0363081
0.0361244
0.0359368
0.0357459
0.0355519
0.0353554
0.0351572
0.0349588
0.0347621
0.034568
0.0343782
0.0341948
0.0340197
0.0338541
0.0337008
0.0335662
0.0334531
0.0333517
0.0332714
0.033255
0.0332705
0.0333153
0.0333964
0.033524
0.033707
0.0339508
0.0342591
0.0346362
0.035084
0.0355988
0.0361763
0.0368061
0.0374609
0.0381075
0.0387226
0.0392963
0.0398236
0.0402957
0.0407028
0.041043
0.0413257
0.0415605
0.0417523
0.0419068
0.0420288
0.0421226
0.0421944
0.042251
0.0422987
0.0423454
0.04239
0.0424325
0.0424736
0.0425138
0.042555
0.0425995
0.0426478
0.0426965
0.0427442
0.0427917
0.0428397
0.0428894
0.0429417
0.0429976
0.0430579
0.0431236
0.04319
0.0432567
0.018246
0.0190128
0.0198714
0.0208171
0.021844
0.0229429
0.0241005
0.0252988
0.0265189
0.027746
0.028971
0.030187
0.031386
0.0325568
0.0336848
0.0347555
0.035758
0.0366885
0.0375499
0.038347
0.0390823
0.0397547
0.0403601
0.040895
0.0413573
0.0417466
0.0420654
0.0423206
0.0425207
0.0426722
0.0427811
0.0428526
0.0428922
0.0429034
0.0428959
0.0428659
0.0428127
0.0427448
0.0426664
0.0425783
0.0424784
0.0423708
0.0422598
0.0421461
0.0420282
0.0419069
0.0417828
0.0416563
0.0415268
0.0413951
0.0412678
0.0411484
0.0410272
0.0409029
0.0407771
0.0406517
0.0405281
0.0404062
0.0402861
0.0401682
0.0400524
0.0399388
0.039827
0.0397168
0.0396084
0.0395022
0.0393989
0.0392989
0.0392025
0.0391101
0.0390226
0.0389408
0.0388649
0.0387952
0.0387347
0.0386864
0.0386472
0.0386241
0.038624
0.0386394
0.0386657
0.0387137
0.0387881
0.0388868
0.0390099