/*--------------------------------*- C++ -*----------------------------------*\
| =========                 |                                                 |
| \\      /  F ield         | OpenFOAM: The Open Source CFD Toolbox           |
|  \\    /   O peration     | Version:  v1706                                 |
|   \\  /    A nd           | Web:      www.OpenFOAM.com                      |
|    \\/     M anipulation  |                                                 |
\*---------------------------------------------------------------------------*/
FoamFile
{
    version     2.0;
    format      ascii;
    class       volScalarField;
    location    "6e-06";
    object      Mach;
}
// * * * * * * * * * * * * * * * * * * * * * * * * * * * * * * * * * * * * * //

dimensions      [0 0 0 0 0 0 0];


internalField   nonuniform List<scalar> 
29871
(
11.2859
11.2859
11.2859
11.2859
11.2859
11.2859
11.2859
11.2859
11.2859
11.2859
11.2859
11.2859
11.2859
11.2859
11.2859
11.2859
11.2859
11.2859
11.2859
11.2859
11.2859
11.2859
11.2859
11.2859
11.2859
11.2859
11.2859
11.2859
11.2859
11.2859
11.2859
11.2859
11.2859
11.2859
11.2859
11.2859
11.2859
11.2859
11.2859
11.2859
11.2859
11.2859
11.2859
11.2859
11.2859
11.2859
11.2859
11.2859
11.2859
11.2859
11.2859
11.2859
11.2859
11.2859
11.2859
11.2859
11.2859
11.2859
11.2859
11.2859
11.2859
11.2859
11.2859
11.2859
11.2859
11.2859
11.2859
11.2859
11.2859
11.2859
11.2859
11.2859
11.2859
11.2859
11.2859
11.2859
11.2859
11.2859
11.2859
11.2859
11.2859
11.2859
11.2859
11.2859
11.2859
11.2859
11.2859
11.2859
11.2859
11.2859
11.2859
11.2859
11.2859
11.2859
11.2859
11.2859
11.2859
11.2859
11.2859
11.2859
11.2859
11.2859
11.2859
11.2859
11.2859
11.2859
11.2859
11.2859
11.2859
11.2859
11.2859
11.2859
11.2859
11.2859
11.2859
11.2859
11.2859
11.2859
11.2859
11.2859
11.2859
11.2859
11.2859
11.2859
11.2859
11.2859
11.2859
11.2859
11.2859
11.2859
11.2859
11.2859
11.2859
11.2859
11.2859
11.2859
11.2859
11.2859
11.2859
11.2859
11.2859
11.2859
11.2859
11.2859
11.2859
11.2859
11.2859
11.2859
11.2859
11.2859
11.2859
11.2859
11.2859
11.2859
11.2859
11.2859
11.2859
11.2859
11.2859
11.2859
11.2859
11.2859
11.2859
11.2859
11.2859
11.2859
11.2859
11.2859
11.2859
11.2859
11.2859
11.2859
11.2859
11.2859
11.2859
11.2859
11.2859
11.2859
11.2859
11.2859
11.2859
11.2859
11.2859
11.2859
11.2859
11.2859
11.2859
11.2859
11.2859
11.2859
11.2859
11.2859
11.2859
11.2859
11.2859
11.2859
11.2859
11.2859
11.2859
11.2859
11.2859
11.2859
11.2859
11.2859
11.2859
11.2859
11.2859
11.2859
11.2859
11.2859
11.2859
11.2859
11.2859
11.2859
11.2859
11.2859
11.2859
11.2859
11.2859
11.2859
11.2859
11.2859
11.2859
11.2859
11.2859
11.2859
11.2859
11.2859
11.2859
11.2859
11.2859
11.2859
11.2859
11.2859
11.2859
11.2859
11.2859
11.2859
11.2859
11.2859
11.2859
11.2859
11.2859
11.2859
11.2859
11.2859
11.2859
11.2859
11.2859
11.2859
11.2859
11.2859
11.2859
11.2859
11.2859
11.2859
11.2859
11.2859
11.2859
11.2859
11.2859
11.2859
11.2859
11.2859
11.2859
11.2859
11.2859
11.2859
11.2859
11.2859
11.2859
11.2859
11.2859
11.2859
11.2859
11.2859
11.2859
11.2859
11.2859
11.2859
11.2859
11.2859
11.2859
11.2859
11.2859
11.2859
11.2859
11.2859
11.2859
11.2859
11.2859
11.2859
11.2859
11.2859
11.2859
11.2859
11.2859
11.2859
11.2859
11.2859
11.2859
11.2859
11.2859
11.2859
11.2859
11.2859
11.2859
11.2859
11.2859
11.2859
11.2859
11.2859
11.2859
11.2859
11.2859
11.2859
11.2859
11.2859
11.2859
11.2859
11.2859
11.2859
11.2859
11.2859
11.2859
11.2859
11.2859
11.2859
11.2859
11.2859
11.2859
11.2859
11.2859
11.2859
11.2859
11.2859
11.2859
11.2859
11.2859
11.2859
11.2859
11.2859
11.2859
11.2859
11.2859
11.2859
11.2859
11.2859
11.2859
11.2859
11.2859
11.2859
11.2859
11.2859
11.2859
11.2859
11.2859
11.2859
11.2859
11.2859
11.2859
11.2859
11.2859
11.2859
11.2859
11.2859
11.2859
11.2859
11.2859
11.2859
11.2859
11.2859
11.2859
11.2859
11.2859
11.2859
11.2859
11.2859
11.2859
11.2859
11.2859
11.2859
11.2859
11.2859
11.2859
11.2859
11.2859
11.2859
11.2859
11.2859
11.2859
11.2859
11.2859
11.2859
11.2859
11.2859
11.2859
11.2859
11.2859
11.2859
11.2859
11.2859
11.2859
11.2859
11.2859
11.2859
11.2859
11.2859
11.2859
11.2859
11.2859
11.2859
11.2859
11.2859
11.2859
11.2859
11.2859
11.2859
11.2859
11.2859
11.2859
11.2859
11.2859
11.2859
11.2859
11.2859
11.2859
11.2859
11.2859
11.2859
11.2859
11.2859
11.2859
11.2859
11.2859
11.2859
11.2859
11.2859
11.2859
11.2859
11.2859
11.2859
11.2859
11.2859
11.2859
11.2859
11.2859
11.2859
11.2859
11.2859
11.2859
11.2859
11.2859
11.2859
11.2859
11.2859
11.2859
11.2859
11.2859
11.2859
11.2859
11.2859
11.2859
11.2859
11.2859
11.2859
11.2859
11.2859
11.2859
11.2859
11.2859
11.2859
11.2859
11.2859
11.2859
11.2859
11.2859
11.2859
11.2859
11.2859
11.2859
11.2859
11.2859
11.2859
11.2859
11.2859
11.2859
11.2859
11.2859
11.2859
11.2859
11.2859
11.2859
11.2859
11.2859
11.2859
11.2859
11.2859
11.2859
11.2859
11.2859
11.2859
11.2859
11.2859
11.2859
11.2859
11.2859
11.2859
11.2859
11.2859
11.2859
11.2859
11.2859
11.2859
11.2859
11.2859
11.2859
11.2859
11.2859
11.2859
11.2859
11.2859
11.2859
11.2859
11.2859
11.2859
11.2859
11.2859
11.2859
11.2859
11.2859
11.2859
11.2859
11.2859
11.2859
11.2859
11.2859
11.2859
11.2859
11.2859
11.2859
11.2859
11.2859
11.2859
11.2859
11.2859
11.2859
11.2859
11.2859
11.2859
11.2859
11.2859
11.2859
11.2859
11.2859
11.2859
11.2859
11.2859
11.2859
11.2859
11.2859
11.2859
11.2859
11.2859
11.2859
11.2859
11.2859
11.2859
11.2859
11.2859
11.2859
11.2859
11.2859
11.2859
11.2859
11.2859
11.2859
11.2859
11.2859
11.2859
11.2859
11.2859
11.2859
11.2859
11.2859
11.2859
11.2859
11.2859
11.2859
11.2859
11.2859
11.2859
11.2859
11.2859
11.2859
11.2859
11.2859
11.2859
11.2859
11.2859
11.2859
11.2859
11.2859
11.2859
11.2859
11.2859
11.2859
11.2859
11.2859
11.2859
11.2859
11.2859
11.2859
11.2859
11.2859
11.2859
11.2859
11.2859
11.2859
11.2859
11.2859
11.2859
11.2859
11.2859
11.2859
11.2859
11.2859
11.2859
11.2859
11.2859
11.2859
11.2859
11.2859
11.2859
11.2859
11.2859
11.2859
11.2859
11.2859
11.2859
11.2859
11.2859
11.2859
11.2859
11.2859
11.2859
11.2859
11.2859
11.2859
11.2859
11.2859
11.2859
11.2859
11.2859
11.2859
11.2859
11.2859
11.2859
11.2859
11.2859
11.2859
11.2859
11.2859
11.2859
11.2859
11.2859
11.2859
11.2859
11.2859
11.2859
11.2859
11.2859
11.2859
11.2859
11.2859
11.2859
11.2859
11.2859
11.2859
11.2859
11.2859
11.2859
11.2859
11.2859
11.2859
11.2859
11.2859
11.2859
11.2859
11.2859
11.2859
11.2859
11.2859
11.2859
11.2859
11.2859
11.2859
11.2859
11.2859
11.2859
11.2859
11.2859
11.2859
11.2859
11.2859
11.2859
11.2859
11.2859
11.2859
11.2859
11.2859
11.2859
11.2859
11.2859
11.2859
11.2859
11.2859
11.2859
11.2859
11.2859
11.2859
11.2859
11.2859
11.2859
11.2859
11.2859
11.2859
11.2859
11.2859
11.2859
11.2859
11.2859
11.2859
11.2859
11.2859
11.2859
11.2859
11.2859
11.2859
11.2859
11.2859
11.2859
11.2859
11.2859
11.2859
11.2859
11.2859
11.2859
11.2859
11.2859
11.2859
11.2859
11.2859
11.2859
11.2859
11.2859
11.2859
11.2859
11.2859
11.2859
11.2859
11.2859
11.2859
11.2859
11.2859
11.2859
11.2859
11.2859
11.2859
11.2859
11.2859
11.2859
11.2859
11.2859
11.2859
11.2859
11.2859
11.2859
11.2859
11.2859
11.2859
11.2859
11.2859
11.2859
11.2859
11.2859
11.2859
11.2859
11.2859
11.2859
11.2859
11.2859
11.2859
11.2859
11.2859
11.2859
11.2859
11.2859
11.2859
11.2859
11.2859
11.2859
11.2859
11.2859
11.2859
11.2859
11.2859
11.2859
11.2859
11.2859
11.2859
11.2859
11.2859
11.2859
11.2859
11.2859
11.2859
11.2859
11.2859
11.2859
11.2859
11.2859
11.2859
11.2859
11.2859
11.2859
11.2859
11.2859
11.2859
11.2859
11.2859
11.2859
11.2859
11.2859
11.2859
11.2859
11.2859
11.2859
11.2859
11.2859
11.2859
11.2859
11.2859
11.2859
11.2859
11.2859
11.2859
11.2859
11.2859
11.2859
11.2859
11.2859
11.2859
11.2859
11.2859
11.2859
11.2859
11.2859
11.2859
11.2859
11.2859
11.2859
11.2859
11.2859
11.2859
11.2859
11.2859
11.2859
11.2859
11.2859
11.2859
11.2859
11.2859
11.2859
11.2859
11.2859
11.2859
11.2859
11.2859
11.2859
11.2859
11.2859
11.2859
11.2859
11.2859
11.2859
11.2859
11.2859
11.2859
11.2859
11.2859
11.2859
11.2859
11.2859
11.2859
11.2859
11.2859
11.2859
11.2859
11.2859
11.2859
11.2859
11.2859
11.2859
11.2859
11.2859
11.2859
11.2859
11.2859
11.2859
11.2859
11.2859
11.2859
11.2859
11.2859
11.2859
11.2859
11.2859
11.2859
11.2859
11.2859
11.2859
11.2859
11.2859
11.2859
11.2859
11.2859
11.2859
11.2859
11.2859
11.2859
11.2859
11.2859
11.2859
11.2859
11.2859
11.2859
11.2859
11.2859
11.2859
11.2859
11.2859
11.2859
11.2859
11.2859
11.2859
11.2859
11.2859
11.2859
11.2859
11.2859
11.2859
11.2859
11.2859
11.2859
11.2859
11.2859
11.2859
11.2859
11.2859
11.2859
11.2859
11.2859
11.2859
11.2859
11.2859
11.2859
11.2859
11.2859
11.2859
11.2859
11.2859
11.2859
11.2859
11.2859
11.2859
11.2859
11.2859
11.2859
11.2859
11.2859
11.2859
11.2859
11.2859
11.2859
11.2859
11.2859
11.2859
11.2859
11.2859
11.2859
11.2859
11.2859
11.2859
11.2859
11.2859
11.2859
11.2859
11.2859
11.2859
11.2859
11.2859
11.2859
11.2859
11.2859
11.2859
11.2859
11.2859
11.2859
11.2859
11.2859
11.2859
11.2859
11.2859
11.2859
11.2859
11.2859
11.2859
11.2859
11.2859
11.2859
11.2859
11.2859
11.2859
11.2859
11.2859
11.2859
11.2859
11.2859
11.2859
11.2859
11.2859
11.2859
11.2859
11.2859
11.2859
11.2859
11.2859
11.2859
11.2859
11.2859
11.2859
11.2859
11.2859
11.2859
11.2859
11.2859
11.2859
11.2859
11.2859
11.2859
11.2859
11.2859
11.2859
11.2859
11.2859
11.2859
11.2859
11.2859
11.2859
11.2859
11.2859
11.2859
11.2859
11.2859
11.2859
11.2859
11.2859
11.2859
11.2859
11.2859
11.2859
11.2859
11.2859
11.2859
11.2859
11.2859
11.2859
11.2859
11.2859
11.2859
11.2859
11.2859
11.2859
11.2859
11.2859
11.2859
11.2859
11.2859
11.2859
11.2859
11.2859
11.2859
11.2859
11.2859
11.2859
11.2859
11.2859
11.2859
11.2859
11.2859
11.2859
11.2859
11.2859
11.2859
11.2859
11.2859
11.2859
11.2859
11.2859
11.2859
11.2859
11.2859
11.2859
11.2859
11.2859
11.2859
11.2859
11.2859
11.2859
11.2859
11.2859
11.2859
11.2859
11.2859
11.2859
11.2859
11.2859
11.2859
11.2859
11.2859
11.2859
11.2859
11.2859
11.2859
11.2859
11.2859
11.2859
11.2859
11.2859
11.2859
11.2859
11.2859
11.2859
11.2859
11.2859
11.2859
11.2859
11.2859
11.2859
11.2859
11.2859
11.2859
11.2859
11.2859
11.2859
11.2859
11.2859
11.2859
11.2859
11.2859
11.2859
11.2859
11.2859
11.2859
11.2859
11.2859
11.2859
11.2859
11.2859
11.2859
11.2859
11.2859
11.2859
11.2859
11.2859
11.2859
11.2859
11.2859
11.2859
11.2859
11.2859
11.2859
11.2859
11.2859
11.2859
11.2859
11.2859
11.2859
11.2859
11.2859
11.2859
11.2859
11.2859
11.2859
11.2859
11.2859
11.2859
11.2859
11.2859
11.2859
11.2859
11.2859
11.2859
11.2859
11.2859
11.2859
11.2859
11.2859
11.2859
11.2859
11.2859
11.2859
11.2859
11.2859
11.2859
11.2859
11.2859
11.2859
11.2859
11.2859
11.2859
11.2859
11.2859
11.2859
11.2859
11.2859
11.2859
11.2859
11.2859
11.2859
11.2859
11.2859
11.2859
11.2859
11.2859
11.2859
11.2859
11.2859
11.2859
11.2859
11.2859
11.2859
11.2859
11.2859
11.2859
11.2859
11.2859
11.2859
11.2859
11.2859
11.2859
11.2859
11.2859
11.2859
11.2859
11.2859
11.2859
11.2859
11.2859
11.2859
11.2859
11.2859
11.2859
11.2859
11.2859
11.2859
11.2859
11.2859
11.2859
11.2859
11.2859
11.2859
11.2859
11.2859
11.2859
11.2859
11.2859
11.2859
11.2859
11.2859
11.2859
11.2859
11.2859
11.2859
11.2859
11.2859
11.2859
11.2859
11.2859
11.2859
11.2859
11.2859
11.2859
11.2859
11.2859
11.2859
11.2859
11.2859
11.2859
11.2859
11.2859
11.2859
11.2859
11.2859
11.2859
11.2859
11.2859
11.2859
11.2859
11.2859
11.2859
11.2859
11.2859
11.2859
11.2859
11.2859
11.2859
11.2859
11.2859
11.2859
11.2859
11.2859
11.2859
11.2859
11.2859
11.2859
11.2859
11.2859
11.2859
11.2859
11.2859
11.2859
11.2859
11.2859
11.2859
11.2859
11.2859
11.2859
11.2859
11.2859
11.2859
11.2859
11.2859
11.2859
11.2859
11.2859
11.2859
11.2859
11.2859
11.2859
11.2859
11.2859
11.2859
11.2859
11.2859
11.2859
11.2859
11.2859
11.2859
11.2859
11.2859
11.2859
11.2859
11.2859
11.2859
11.2859
11.2859
11.2859
11.2859
11.2859
11.2859
11.2859
11.2859
11.2859
11.2859
11.2859
11.2859
11.2859
11.2859
11.2859
11.2859
11.2859
11.2859
11.2859
11.2859
11.2859
11.2859
11.2859
11.2859
11.2859
11.2859
11.2859
11.2859
11.2859
11.2859
11.2859
11.2859
11.2859
11.2859
11.2859
11.2859
11.2859
11.2859
11.2859
11.2859
11.2859
11.2859
11.2858
11.2858
11.2859
11.2859
11.2859
11.2859
11.2859
11.2859
11.2859
11.2859
11.2859
11.2859
11.2859
11.2859
11.2859
11.2859
11.2859
11.2859
11.2859
11.2859
11.2859
11.2859
11.2859
11.2859
11.2859
11.2859
11.2859
11.2859
11.2859
11.2859
11.2859
11.2859
11.2859
11.2859
11.2859
11.2859
11.2859
11.2859
11.2859
11.2859
11.2859
11.2859
11.2859
11.2859
11.2859
11.2859
11.2859
11.2859
11.2859
11.2859
11.2859
11.2859
11.2859
11.2859
11.2859
11.2859
11.2859
11.2859
11.2859
11.2859
11.2859
11.2859
11.2859
11.2859
11.2859
11.2859
11.2859
11.2859
11.2859
11.2859
11.2859
11.2859
11.2859
11.2859
11.2859
11.2859
11.2859
11.2859
11.2859
11.2859
11.2859
11.2859
11.2859
11.2859
11.2859
11.2859
11.2859
11.2859
11.2859
11.2859
11.2859
11.2859
11.2859
11.2859
11.2859
11.2859
11.2859
11.2858
11.2858
11.2858
11.2858
11.2858
11.2858
11.2858
11.2858
11.2858
11.2858
11.2858
11.2858
11.2858
11.2858
11.2858
11.2858
11.2858
11.2858
11.2859
11.2859
11.2859
11.2859
11.2859
11.2859
11.2859
11.2859
11.2859
11.2859
11.2859
11.2859
11.2859
11.2859
11.2859
11.2859
11.2859
11.2859
11.2859
11.2859
11.2859
11.2859
11.2859
11.2858
11.2858
11.2858
11.2858
11.2858
11.2858
11.2858
11.2858
11.2858
11.2858
11.2858
11.2858
11.2858
11.2858
11.2858
11.2858
11.2858
11.2858
11.2858
11.2858
11.2858
11.2858
11.2858
11.2858
11.2858
11.2858
11.2858
11.2858
11.2858
11.2858
11.2858
11.2858
11.2858
11.2858
11.2858
11.2858
11.2858
11.2858
11.2858
11.2858
11.2858
11.2858
11.2858
11.2858
11.2858
11.2858
11.2858
11.2858
11.2858
11.2858
11.2858
11.2859
11.2859
11.2859
11.2859
11.2859
11.2859
11.2859
11.2858
11.2858
11.2858
11.2858
11.2858
11.2858
11.2858
11.2858
11.2858
11.2858
11.2858
11.2858
11.2858
11.2858
11.2858
11.2858
11.2858
11.2858
11.2858
11.2858
11.2858
11.2858
11.2858
11.2858
11.2857
11.2857
11.2857
11.2857
11.2857
11.2857
11.2857
11.2856
11.2856
11.2856
11.2859
11.2859
11.2859
11.2859
11.2859
11.2859
11.2859
11.2859
11.2859
11.2859
11.2859
11.2858
11.2858
11.2858
11.2858
11.2858
11.2858
11.2858
11.2858
11.2858
11.2858
11.2858
11.2858
11.2858
11.2858
11.2858
11.2858
11.2858
11.2858
11.2858
11.2858
11.2858
11.2858
11.2858
11.2858
11.2858
11.2858
11.2858
11.2858
11.2858
11.2858
11.2858
11.2858
11.2858
11.2858
11.2858
11.2858
11.2858
11.2858
11.2858
11.2858
11.2858
11.2858
11.2858
11.2858
11.2858
11.2858
11.2858
11.2858
11.2858
11.2858
11.2858
11.2858
11.2858
11.2858
11.2858
11.2858
11.2858
11.2858
11.2858
11.2858
11.2858
11.2858
11.2858
11.2858
11.2858
11.2858
11.2858
11.2858
11.2858
11.2858
11.2858
11.2858
11.2858
11.2858
11.2858
11.2858
11.2858
11.2858
11.2858
11.2858
11.2858
11.2857
11.2857
11.2857
11.2857
11.2857
11.2856
11.2856
11.2856
11.2855
11.2855
11.2855
11.2854
11.2854
11.2853
11.2853
11.2852
11.2852
11.2851
11.285
11.2849
11.2848
11.2847
11.2846
11.2845
11.2859
11.2859
11.2859
11.2859
11.2859
11.2859
11.2859
11.2859
11.2859
11.2858
11.2858
11.2858
11.2858
11.2858
11.2858
11.2858
11.2858
11.2858
11.2858
11.2858
11.2858
11.2858
11.2858
11.2858
11.2858
11.2857
11.2857
11.2857
11.2857
11.2857
11.2857
11.2857
11.2856
11.2856
11.2856
11.2856
11.2856
11.2856
11.2855
11.2855
11.2855
11.2855
11.2855
11.2855
11.2855
11.2855
11.2855
11.2855
11.2855
11.2854
11.2854
11.2855
11.2855
11.2855
11.2855
11.2855
11.2855
11.2855
11.2855
11.2855
11.2855
11.2855
11.2855
11.2855
11.2856
11.2856
11.2856
11.2856
11.2856
11.2856
11.2856
11.2856
11.2856
11.2857
11.2857
11.2857
11.2857
11.2857
11.2857
11.2857
11.2857
11.2857
11.2857
11.2857
11.2857
11.2857
11.2857
11.2857
11.2857
11.2857
11.2857
11.2856
11.2856
11.2856
11.2856
11.2855
11.2855
11.2854
11.2854
11.2853
11.2852
11.2851
11.285
11.2849
11.2848
11.2847
11.2845
11.2844
11.2842
11.284
11.2838
11.2836
11.2833
11.2831
11.2828
11.2825
11.2822
11.2818
11.2814
11.2809
11.2804
11.2798
11.2792
11.2859
11.2859
11.2858
11.2858
11.2858
11.2858
11.2858
11.2858
11.2858
11.2858
11.2858
11.2858
11.2858
11.2858
11.2857
11.2857
11.2857
11.2857
11.2856
11.2856
11.2856
11.2855
11.2855
11.2855
11.2854
11.2854
11.2853
11.2852
11.2852
11.2851
11.285
11.285
11.2849
11.2848
11.2848
11.2847
11.2846
11.2846
11.2845
11.2844
11.2844
11.2843
11.2843
11.2842
11.2842
11.2842
11.2842
11.2841
11.2841
11.2841
11.2841
11.2841
11.2842
11.2842
11.2842
11.2842
11.2843
11.2843
11.2843
11.2844
11.2844
11.2845
11.2845
11.2846
11.2846
11.2847
11.2847
11.2848
11.2848
11.2848
11.2849
11.2849
11.285
11.285
11.285
11.2851
11.2851
11.2851
11.2851
11.2852
11.2852
11.2852
11.2852
11.2852
11.2852
11.2852
11.2852
11.2851
11.2851
11.2851
11.285
11.2849
11.2848
11.2847
11.2846
11.2844
11.2842
11.284
11.2837
11.2834
11.283
11.2826
11.2821
11.2816
11.281
11.2803
11.2796
11.2789
11.2781
11.2772
11.2762
11.2752
11.2741
11.2728
11.2715
11.27
11.2684
11.2666
11.2646
11.2624
11.2599
11.2572
11.2541
11.2858
11.2858
11.2858
11.2858
11.2858
11.2858
11.2857
11.2857
11.2857
11.2857
11.2856
11.2856
11.2855
11.2854
11.2854
11.2853
11.2852
11.2851
11.2849
11.2848
11.2846
11.2845
11.2843
11.2841
11.2839
11.2836
11.2834
11.2831
11.2829
11.2826
11.2823
11.282
11.2817
11.2814
11.2811
11.2809
11.2806
11.2803
11.2801
11.2798
11.2796
11.2794
11.2792
11.2791
11.2789
11.2788
11.2788
11.2787
11.2787
11.2787
11.2787
11.2787
11.2788
11.2789
11.279
11.2791
11.2793
11.2794
11.2796
11.2798
11.28
11.2802
11.2804
11.2805
11.2807
11.2809
11.2811
11.2813
11.2815
11.2817
11.2819
11.282
11.2822
11.2823
11.2824
11.2826
11.2827
11.2828
11.2829
11.2829
11.283
11.283
11.283
11.283
11.283
11.283
11.2829
11.2828
11.2826
11.2824
11.2821
11.2818
11.2814
11.2808
11.2802
11.2794
11.2785
11.2774
11.2761
11.2746
11.2729
11.2709
11.2687
11.2663
11.2636
11.2607
11.2575
11.2539
11.2501
11.246
11.2416
11.2368
11.2315
11.2258
11.2196
11.2127
11.2052
11.1968
11.1876
11.1773
11.1659
11.1532
11.1392
11.2857
11.2857
11.2857
11.2856
11.2855
11.2855
11.2854
11.2852
11.2851
11.2849
11.2848
11.2845
11.2843
11.284
11.2836
11.2832
11.2828
11.2823
11.2818
11.2812
11.2805
11.2798
11.279
11.2781
11.2772
11.2762
11.2752
11.2742
11.273
11.2719
11.2707
11.2696
11.2684
11.2672
11.266
11.2649
11.2638
11.2627
11.2617
11.2608
11.2599
11.2592
11.2585
11.2579
11.2574
11.257
11.2568
11.2566
11.2565
11.2566
11.2567
11.2569
11.2573
11.2577
11.2581
11.2587
11.2593
11.2599
11.2606
11.2614
11.2621
11.2629
11.2637
11.2645
11.2652
11.266
11.2668
11.2675
11.2683
11.269
11.2697
11.2703
11.2709
11.2715
11.272
11.2725
11.2729
11.2733
11.2736
11.2739
11.274
11.2741
11.2741
11.2741
11.2739
11.2737
11.2733
11.2728
11.2721
11.2711
11.2699
11.2683
11.2664
11.264
11.2611
11.2576
11.2534
11.2484
11.2426
11.2359
11.2281
11.2194
11.2095
11.1987
11.1867
11.1735
11.1592
11.1437
11.127
11.109
11.0896
11.0688
11.0463
11.022
10.9956
10.9668
10.9354
10.901
10.8632
10.8216
10.776
10.7259
10.671
10.6109
10.5456
11.2853
11.2851
11.285
11.2847
11.2844
11.2841
11.2837
11.2831
11.2825
11.2818
11.281
11.28
11.2789
11.2776
11.2762
11.2745
11.2726
11.2705
11.2682
11.2656
11.2629
11.2598
11.2565
11.253
11.2493
11.2453
11.2411
11.2368
11.2324
11.2278
11.2232
11.2185
11.2138
11.2092
11.2046
11.2002
11.196
11.1919
11.1882
11.1847
11.1815
11.1786
11.1762
11.1741
11.1724
11.1711
11.1703
11.1698
11.1698
11.1701
11.1708
11.1718
11.1732
11.1749
11.1768
11.179
11.1814
11.184
11.1868
11.1897
11.1926
11.1956
11.1986
11.2017
11.2047
11.2078
11.2107
11.2136
11.2165
11.2192
11.2217
11.2242
11.2265
11.2286
11.2306
11.2323
11.2339
11.2353
11.2365
11.2374
11.238
11.2381
11.238
11.2377
11.2371
11.2359
11.2341
11.2317
11.2284
11.2241
11.2187
11.2118
11.2033
11.1929
11.1802
11.165
11.1469
11.1255
11.1007
11.0721
11.0398
11.0036
10.9637
10.92
10.8725
10.8213
10.7666
10.7081
10.6461
10.5804
10.5109
10.4376
10.3603
10.2786
10.1922
10.1007
10.0038
9.90117
9.79255
9.67775
9.55662
9.42911
9.29531
9.15547
9.01005
11.2834
11.2827
11.2819
11.2808
11.2796
11.2781
11.2762
11.2741
11.2715
11.2685
11.2649
11.2608
11.2561
11.2507
11.2446
11.2376
11.2299
11.2213
11.2119
11.2015
11.1902
11.1781
11.1651
11.1513
11.1366
11.1213
11.1053
11.0889
11.072
11.055
11.0378
11.0206
11.0037
10.987
10.9709
10.9554
10.9406
10.9267
10.9138
10.902
10.8915
10.8822
10.8742
10.8676
10.8625
10.8587
10.8564
10.8555
10.8558
10.8576
10.8604
10.8645
10.8698
10.876
10.8832
10.8912
10.8998
10.9091
10.9188
10.929
10.9394
10.95
10.9607
10.9715
10.9823
10.993
11.0035
11.0138
11.0237
11.0333
11.0425
11.0511
11.0592
11.0667
11.0736
11.0798
11.0853
11.0901
11.0941
11.097
11.0983
11.0982
11.0975
11.0959
11.0926
11.0873
11.0796
11.0692
11.0555
11.0379
11.0156
10.988
10.954
10.9131
10.8641
10.8063
10.7389
10.6612
10.5729
10.4743
10.3659
10.2487
10.124
9.99305
9.85725
9.71779
9.57568
9.43166
9.28624
9.13972
8.99231
8.84414
8.69521
8.5454
8.39462
8.24287
8.09038
7.93745
7.78439
7.63142
7.47871
7.3263
7.17425
7.02262
6.87162
11.2774
11.2751
11.2722
11.2686
11.2642
11.2589
11.2525
11.2449
11.2358
11.2251
11.2126
11.1981
11.1814
11.1624
11.1409
11.1168
11.0898
11.06
11.0273
10.9918
10.9535
10.9126
10.8692
10.8236
10.7759
10.7265
10.6757
10.6238
10.5715
10.5191
10.4671
10.4159
10.366
10.3177
10.2714
10.2273
10.1858
10.1471
10.1114
10.0788
10.0496
10.0239
10.0017
9.98309
9.96803
9.95668
9.94908
9.94505
9.94431
9.94648
9.95233
9.96093
9.9727
9.9872
10.0042
10.0234
10.0446
10.0676
10.0923
10.1184
10.1456
10.1737
10.2025
10.2318
10.2614
10.2911
10.3208
10.3502
10.3792
10.4074
10.4347
10.4609
10.4858
10.5092
10.5309
10.5508
10.5687
10.5847
10.5984
10.6093
10.6165
10.618
10.6168
10.6135
10.6059
10.5927
10.5729
10.5456
10.5095
10.463
10.4045
10.3323
10.2447
10.1408
10.0198
9.88127
9.72559
9.55365
9.36734
9.16944
8.96333
8.75259
8.54072
8.33091
8.12585
7.92759
7.73752
7.55631
7.38397
7.21996
7.06344
6.91351
6.76929
6.62992
6.49461
6.36281
6.23449
6.11011
5.99043
5.87632
5.76864
5.66817
5.57547
5.49086
5.41443
5.34604
11.25
11.2402
11.2281
11.2133
11.1953
11.1737
11.148
11.1176
11.0821
11.0408
10.9934
10.9394
10.8786
10.8109
10.7363
10.6549
10.567
10.4729
10.3731
10.2685
10.1601
10.0488
9.93577
9.82177
9.70765
9.59417
9.48209
9.37222
9.26538
9.16235
9.06382
8.97035
8.88238
8.8002
8.72397
8.6538
8.58972
8.53169
8.47961
8.43342
8.3931
8.35854
8.32956
8.30595
8.28753
8.27462
8.2672
8.26501
8.2662
8.27178
8.2833
8.29833
8.31761
8.34058
8.36699
8.39668
8.42945
8.46507
8.50334
8.54399
8.58677
8.63134
8.67741
8.72474
8.77313
8.82236
8.87215
8.92214
8.97195
9.02114
9.0693
9.11597
9.16075
9.20327
9.24305
9.27952
9.31232
9.34154
9.36653
9.38522
9.39411
9.39249
9.38808
9.37673
9.3551
9.32154
9.27452
9.21239
9.13334
9.03553
8.91734
8.77789
8.61757
8.43812
8.24221
8.03308
7.81436
7.59026
7.36536
7.14402
6.92966
6.72456
6.53026
6.34802
6.17893
6.02387
5.8834
5.75762
5.64612
5.54811
5.46248
5.38806
5.3237
5.26808
5.21978
5.17751
5.14037
5.1078
5.07927
5.05419
5.03205
5.01241
4.99487
4.97904
4.96455
4.95107
4.93831
4.92606
11.1387
11.0999
11.053
10.9966
10.9297
10.8512
10.7605
10.6569
10.5404
10.411
10.2691
10.1156
9.95207
9.78047
9.6029
9.4213
9.23737
9.05265
8.86875
8.68742
8.51045
8.33948
8.17577
8.02006
7.87269
7.73372
7.60306
7.48059
7.36628
7.26017
7.1623
7.07262
6.99101
6.91726
6.85111
6.79222
6.74023
6.69466
6.6551
6.62123
6.59283
6.56959
6.55116
6.53705
6.52696
6.52142
6.52117
6.52376
6.52886
6.53705
6.55195
6.56827
6.58748
6.60938
6.63396
6.66121
6.69099
6.72313
6.75749
6.79394
6.8323
6.87232
6.91383
6.95669
7.00079
7.04599
7.09206
7.13867
7.18545
7.23201
7.27792
7.32272
7.36598
7.40725
7.4459
7.48111
7.51237
7.54011
7.56341
7.5776
7.5782
7.57312
7.56339
7.54315
7.51075
7.465
7.40466
7.32857
7.23581
7.12574
6.99819
6.85419
6.69636
6.52837
6.35404
6.17705
6.00133
5.83152
5.6728
5.52997
5.40606
5.30158
5.21523
5.14495
5.08868
5.04457
5.01087
4.98571
4.96724
4.95374
4.94361
4.93566
4.92889
4.92241
4.91594
4.90928
4.90176
4.89304
4.88365
4.87403
4.86438
4.85478
4.84537
4.83641
4.82809
4.8205
4.81345
4.80677
10.7303
10.6004
10.4502
10.2797
10.0894
9.88104
9.65729
9.42172
9.17803
8.92957
8.67927
8.43011
8.18525
7.94785
7.72059
7.5052
7.3023
7.11172
6.93302
6.76594
6.61051
6.46693
6.33533
6.21551
6.10697
6.00896
5.92056
5.84076
5.76873
5.70393
5.6459
5.59426
5.54877
5.5092
5.47528
5.44672
5.42326
5.40449
5.38995
5.37928
5.37228
5.36864
5.36807
5.37
5.37362
5.37995
5.38884
5.39953
5.41121
5.42364
5.43908
5.45752
5.47243
5.48991
5.50911
5.52932
5.55026
5.57193
5.59436
5.61756
5.64145
5.66592
5.69092
5.71645
5.74254
5.76913
5.79609
5.82317
5.85013
5.87679
5.90292
5.92816
5.95229
5.97511
5.99614
6.01436
6.02931
6.04287
6.05386
6.05197
6.04413
6.03633
6.02154
5.99885
5.96741
5.92666
5.87625
5.816
5.74614
5.66751
5.58126
5.4896
5.39675
5.3073
5.22409
5.14803
5.07971
5.02028
4.97094
4.93179
4.90181
4.8797
4.86413
4.85345
4.84603
4.84044
4.83566
4.83124
4.82652
4.82214
4.8176
4.81297
4.80851
4.80456
4.801
4.7974
4.79367
4.78953
4.78513
4.78088
4.77642
4.77186
4.76724
4.76241
4.75728
4.75173
4.7456
4.7391
9.59061
9.30361
9.00391
8.69721
8.38856
8.08272
7.78448
7.49846
7.22813
6.97499
6.73897
6.5195
6.31622
6.12922
5.95875
5.80481
5.66677
5.54325
5.43251
5.33299
5.24363
5.16389
5.0936
5.03269
4.98113
4.93882
4.90544
4.88015
4.86195
4.84994
4.8432
4.84082
4.842
4.84618
4.85229
4.8603
4.87025
4.88139
4.89317
4.90557
4.91878
4.93243
4.94621
4.9603
4.97505
4.99019
5.00552
5.02099
5.03685
5.05304
5.0692
5.085
5.10037
5.11623
5.13237
5.14828
5.16403
5.17938
5.19446
5.20941
5.22418
5.23859
5.25263
5.26628
5.27959
5.29249
5.3049
5.3167
5.32776
5.33799
5.34728
5.35551
5.36273
5.3689
5.37364
5.37657
5.37825
5.37819
5.37498
5.36741
5.3572
5.34914
5.33589
5.31834
5.29755
5.27314
5.24479
5.21274
5.17825
5.14137
5.10113
5.06018
5.021
4.98435
4.95055
4.91993
4.89259
4.86869
4.84815
4.83112
4.81741
4.80388
4.79315
4.78381
4.77569
4.76887
4.763
4.75794
4.7537
4.75024
4.74742
4.74491
4.74239
4.73963
4.73639
4.73272
4.72877
4.72464
4.72036
4.71583
4.71088
4.70547
4.69955
4.69311
4.68618
4.67886
4.67137
4.6637
4.65579
7.36675
7.04764
6.75049
6.47572
6.22267
5.99087
5.78042
5.59163
5.42372
5.27464
5.14214
5.02457
4.92097
4.83106
4.75489
4.69252
4.64383
4.60778
4.58287
4.56734
4.55939
4.55731
4.55968
4.56469
4.57102
4.57949
4.58925
4.59944
4.61
4.62066
4.63192
4.64318
4.654
4.66698
4.6793
4.6913
4.70346
4.71762
4.73093
4.74567
4.76008
4.77447
4.78928
4.80445
4.81979
4.83514
4.85061
4.8663
4.88196
4.8974
4.91274
4.92791
4.94301
4.95814
4.9732
4.98805
5.0026
5.01684
5.03082
5.04456
5.05804
5.07124
5.08411
5.09658
5.10861
5.1201
5.13102
5.14129
5.15081
5.15948
5.1672
5.17391
5.1795
5.18388
5.18698
5.18815
5.18781
5.18565
5.18116
5.17491
5.16725
5.15729
5.14499
5.13043
5.11332
5.0933
5.07066
5.04697
5.02254
4.99515
4.96267
4.93597
4.91152
4.88755
4.86453
4.84357
4.82349
4.80425
4.78714
4.77244
4.7596
4.74801
4.73738
4.72757
4.71842
4.71022
4.7031
4.69694
4.69142
4.68628
4.68129
4.67631
4.67134
4.66645
4.6615
4.6563
4.6508
4.64489
4.63848
4.6315
4.62396
4.61586
4.60725
4.59819
4.58876
4.57896
4.5688
4.55828
5.67873
5.45774
5.26236
5.09003
4.93805
4.80472
4.68946
4.59322
4.51687
4.45839
4.41545
4.38632
4.36893
4.36077
4.35945
4.36268
4.36726
4.37292
4.37998
4.38755
4.39503
4.40237
4.41002
4.41905
4.42946
4.44063
4.45364
4.46819
4.48303
4.49595
4.51205
4.52783
4.54243
4.55861
4.5762
4.5917
4.6071
4.62536
4.64168
4.65691
4.67143
4.68778
4.70329
4.71844
4.73405
4.74931
4.76438
4.7795
4.79455
4.80947
4.82444
4.83914
4.85339
4.86754
4.88165
4.89554
4.90909
4.92227
4.93511
4.94766
4.9599
4.97179
4.98323
4.99415
5.00451
5.01429
5.02345
5.03196
5.03979
5.04685
5.05307
5.05839
5.06275
5.06615
5.06852
5.06952
5.0687
5.06688
5.0638
5.05929
5.05328
5.04562
5.0363
5.02524
5.01233
4.99748
4.98089
4.96324
4.94504
4.92526
4.9011
4.88229
4.86302
4.84315
4.823
4.80248
4.78274
4.76406
4.74677
4.73077
4.71579
4.70143
4.68756
4.67433
4.66206
4.65075
4.64033
4.63064
4.62152
4.61287
4.6046
4.59667
4.58896
4.58134
4.57365
4.56577
4.55761
4.54903
4.53998
4.53039
4.52025
4.50956
4.49833
4.48659
4.47437
4.46169
4.44858
4.43507
4.48431
4.39197
4.3224
4.27185
4.23747
4.21684
4.20687
4.2047
4.20753
4.21095
4.21468
4.21976
4.2257
4.23087
4.23742
4.24654
4.25701
4.26964
4.28257
4.29682
4.31196
4.3276
4.3439
4.36025
4.37549
4.39027
4.40593
4.42045
4.43489
4.45164
4.46703
4.48154
4.49757
4.51492
4.52919
4.5438
4.56104
4.57642
4.58999
4.60376
4.61855
4.63248
4.64627
4.66046
4.67477
4.68868
4.70262
4.71661
4.73048
4.74441
4.75823
4.77172
4.78518
4.79868
4.81202
4.82508
4.83786
4.85042
4.86278
4.87494
4.88683
4.89836
4.90945
4.92003
4.93008
4.93959
4.9485
4.95678
4.96433
4.97108
4.97694
4.98186
4.98583
4.98886
4.99073
4.99104
4.98987
4.98791
4.98484
4.98029
4.97419
4.96658
4.95734
4.94635
4.93357
4.91929
4.90389
4.88768
4.86835
4.84912
4.8321
4.8142
4.79493
4.77444
4.75355
4.73318
4.71378
4.69517
4.677
4.65905
4.64124
4.62372
4.60673
4.59045
4.57496
4.56025
4.54629
4.53302
4.5204
4.50836
4.4968
4.48556
4.47451
4.46352
4.45247
4.44124
4.4297
4.41774
4.4053
4.39232
4.37879
4.36471
4.35009
4.33497
4.31938
4.30337
4.28699
4.07852
4.07683
4.07949
4.08124
4.08381
4.08826
4.09261
4.09859
4.10714
4.11749
4.12925
4.14321
4.15866
4.174
4.18901
4.20304
4.21716
4.23186
4.24715
4.26247
4.27764
4.29268
4.3073
4.32173
4.33668
4.35146
4.36557
4.38017
4.3957
4.40925
4.42292
4.4387
4.45361
4.46653
4.48037
4.49635
4.51019
4.52287
4.53699
4.5499
4.56241
4.57503
4.58809
4.60113
4.61382
4.62651
4.63927
4.65204
4.66492
4.6776
4.68996
4.70234
4.71478
4.72709
4.73918
4.75105
4.76277
4.77438
4.78586
4.79716
4.80816
4.8188
4.82903
4.83884
4.8482
4.85709
4.86544
4.87317
4.88019
4.88637
4.89169
4.89614
4.89969
4.9022
4.90345
4.90325
4.90199
4.89992
4.89661
4.89187
4.88559
4.8777
4.86814
4.85691
4.84435
4.83081
4.81538
4.79594
4.78048
4.76432
4.74695
4.72774
4.70687
4.68522
4.66393
4.64324
4.62271
4.60196
4.58088
4.5596
4.53838
4.51746
4.49704
4.47726
4.45822
4.43997
4.42253
4.40586
4.38991
4.37456
4.35969
4.34516
4.33086
4.31664
4.30233
4.28781
4.27296
4.25767
4.2419
4.22561
4.2088
4.1915
4.17373
4.15555
4.13699
4.11809
4.09891
4.07947
3.97373
3.97759
3.98365
3.99191
4.00193
4.01485
4.0298
4.04441
4.0578
4.0709
4.08488
4.09965
4.11439
4.12872
4.14279
4.15722
4.17172
4.18626
4.2007
4.21493