/*--------------------------------*- C++ -*----------------------------------*\
| =========                 |                                                 |
| \\      /  F ield         | OpenFOAM: The Open Source CFD Toolbox           |
|  \\    /   O peration     | Version:  v1706                                 |
|   \\  /    A nd           | Web:      www.OpenFOAM.com                      |
|    \\/     M anipulation  |                                                 |
\*---------------------------------------------------------------------------*/
FoamFile
{
    version     2.0;
    format      ascii;
    class       volScalarField;
    location    "6e-06";
    object      p;
}
// * * * * * * * * * * * * * * * * * * * * * * * * * * * * * * * * * * * * * //

dimensions      [1 -1 -2 0 0 0 0];


internalField   nonuniform List<scalar> 
29871
(
21.9139
21.9139
21.9139
21.9139
21.9139
21.9139
21.9139
21.9139
21.9139
21.9139
21.9139
21.9139
21.9139
21.9139
21.9139
21.9139
21.9139
21.9139
21.9139
21.9139
21.9139
21.9139
21.9139
21.9139
21.9139
21.9139
21.9139
21.9139
21.9139
21.9139
21.9139
21.9139
21.9139
21.9139
21.9139
21.9139
21.9139
21.9139
21.9139
21.9139
21.9139
21.9139
21.9139
21.9139
21.9139
21.9139
21.9139
21.9139
21.9139
21.9139
21.9139
21.9139
21.9139
21.9139
21.9139
21.9139
21.9139
21.9139
21.9139
21.9139
21.9139
21.9139
21.9139
21.9139
21.9139
21.9139
21.9139
21.9139
21.9139
21.9139
21.9139
21.9139
21.9139
21.9139
21.9139
21.9139
21.9139
21.9139
21.9139
21.9139
21.9139
21.9139
21.9139
21.9139
21.9139
21.9139
21.9139
21.9139
21.9139
21.9139
21.9139
21.9139
21.9139
21.9139
21.9139
21.9139
21.9139
21.9139
21.9139
21.9139
21.9139
21.9139
21.9139
21.9139
21.9139
21.9139
21.9139
21.9139
21.9139
21.9139
21.9139
21.9139
21.9139
21.9139
21.9139
21.9139
21.9139
21.9139
21.9139
21.9139
21.9139
21.9139
21.9139
21.9139
21.9139
21.9139
21.9139
21.9139
21.9139
21.9139
21.9139
21.9139
21.9139
21.9139
21.9139
21.9139
21.9139
21.9139
21.9139
21.9139
21.9139
21.9139
21.9139
21.9139
21.9139
21.9139
21.9139
21.9139
21.9139
21.9139
21.9139
21.9139
21.9139
21.9139
21.9139
21.9139
21.9139
21.9139
21.9139
21.9139
21.9139
21.9139
21.9139
21.9139
21.9139
21.9139
21.9139
21.9139
21.9139
21.9139
21.9139
21.9139
21.9139
21.9139
21.9139
21.9139
21.9139
21.9139
21.9139
21.9139
21.9139
21.9139
21.9139
21.9139
21.9139
21.9139
21.9139
21.9139
21.9139
21.9139
21.9139
21.9139
21.9139
21.9139
21.9139
21.9139
21.9139
21.9139
21.9139
21.9139
21.9139
21.9139
21.9139
21.9139
21.9139
21.9139
21.9139
21.9139
21.9139
21.9139
21.9139
21.9139
21.9139
21.9139
21.9139
21.9139
21.9139
21.9139
21.9139
21.9139
21.9139
21.9139
21.9139
21.9139
21.9139
21.9139
21.9139
21.9139
21.9139
21.9139
21.9139
21.9139
21.9139
21.9139
21.9139
21.9139
21.9139
21.9139
21.9139
21.9139
21.9139
21.9139
21.9139
21.9139
21.9139
21.9139
21.9139
21.9139
21.9139
21.9139
21.9139
21.9139
21.9139
21.9139
21.9139
21.9139
21.9139
21.9139
21.9139
21.9139
21.9139
21.9139
21.9139
21.9139
21.9139
21.9139
21.9139
21.9139
21.9139
21.9139
21.9139
21.9139
21.9139
21.9139
21.9139
21.9139
21.9139
21.9139
21.9139
21.9139
21.9139
21.9139
21.9139
21.9139
21.9139
21.9139
21.9139
21.9139
21.9139
21.9139
21.9139
21.9139
21.9139
21.9139
21.9139
21.9139
21.9139
21.9139
21.9139
21.9139
21.9139
21.9139
21.9139
21.9139
21.9139
21.9139
21.9139
21.9139
21.9139
21.9139
21.9139
21.9139
21.9139
21.9139
21.9139
21.9139
21.9139
21.9139
21.9139
21.9139
21.9139
21.9139
21.9139
21.9139
21.9139
21.9139
21.9139
21.9139
21.9139
21.9139
21.9139
21.9139
21.9139
21.9139
21.9139
21.9139
21.9139
21.9139
21.9139
21.9139
21.9139
21.9139
21.9139
21.9139
21.9139
21.9139
21.9139
21.9139
21.9139
21.9139
21.9139
21.9139
21.9139
21.9139
21.9139
21.9139
21.9139
21.9139
21.9139
21.9139
21.9139
21.9139
21.9139
21.9139
21.9139
21.9139
21.9139
21.9139
21.9139
21.9139
21.9139
21.9139
21.9139
21.9139
21.9139
21.9139
21.9139
21.9139
21.9139
21.9139
21.9139
21.9139
21.9139
21.9139
21.9139
21.9139
21.9139
21.9139
21.9139
21.9139
21.9139
21.9139
21.9139
21.9139
21.9139
21.9139
21.9139
21.9139
21.9139
21.9139
21.9139
21.9139
21.9139
21.9139
21.9139
21.9139
21.9139
21.9139
21.9139
21.9139
21.9139
21.9139
21.9139
21.9139
21.9139
21.9139
21.9139
21.9139
21.9139
21.9139
21.9139
21.9139
21.9139
21.9139
21.9139
21.9139
21.9139
21.9139
21.9139
21.9139
21.9139
21.9139
21.9139
21.9139
21.9139
21.9139
21.9139
21.9139
21.9139
21.9139
21.9139
21.9139
21.9139
21.9139
21.9139
21.9139
21.9139
21.9139
21.9139
21.9139
21.9139
21.9139
21.9139
21.9139
21.9139
21.9139
21.9139
21.9139
21.9139
21.9139
21.9139
21.9139
21.9139
21.9139
21.9139
21.9139
21.9139
21.9139
21.9139
21.9139
21.9139
21.9139
21.9139
21.9139
21.9139
21.9139
21.9139
21.9139
21.9139
21.9139
21.9139
21.9139
21.9139
21.9139
21.9139
21.9139
21.9139
21.9139
21.9139
21.9139
21.9139
21.9139
21.9139
21.9139
21.9139
21.9139
21.9139
21.9139
21.9139
21.9139
21.9139
21.9139
21.9139
21.9139
21.9139
21.9139
21.9139
21.9139
21.9139
21.9139
21.9139
21.9139
21.9139
21.9139
21.9139
21.9139
21.9139
21.9139
21.9139
21.9139
21.9139
21.9139
21.9139
21.9139
21.9139
21.9139
21.9139
21.9139
21.9139
21.9139
21.9139
21.9139
21.9139
21.9139
21.9139
21.9139
21.9139
21.9139
21.9139
21.9139
21.9139
21.9139
21.9139
21.9139
21.9139
21.9139
21.9139
21.9139
21.9139
21.9139
21.9139
21.9139
21.9139
21.9139
21.9139
21.9139
21.9139
21.9139
21.9139
21.9139
21.9139
21.9139
21.9139
21.9139
21.9139
21.9139
21.9139
21.9139
21.9139
21.9139
21.9139
21.9139
21.9139
21.9139
21.9139
21.9139
21.9139
21.9139
21.9139
21.9139
21.9139
21.9139
21.9139
21.9139
21.9139
21.9139
21.9139
21.9139
21.9139
21.9139
21.9139
21.9139
21.9139
21.9139
21.9139
21.9139
21.9139
21.9139
21.9139
21.9139
21.9139
21.9139
21.9139
21.9139
21.9139
21.9139
21.9139
21.9139
21.9139
21.9139
21.9139
21.9139
21.9139
21.9139
21.9139
21.9139
21.9139
21.9139
21.9139
21.9139
21.9139
21.9139
21.9139
21.9139
21.9139
21.9139
21.9139
21.9139
21.9139
21.9139
21.9139
21.9139
21.9139
21.9139
21.9139
21.9139
21.9139
21.9139
21.9139
21.9139
21.9139
21.9139
21.9139
21.9139
21.9139
21.9139
21.9139
21.9139
21.9139
21.9139
21.9139
21.9139
21.9139
21.9139
21.9139
21.9139
21.9139
21.9139
21.9139
21.9139
21.9139
21.9139
21.9139
21.9139
21.9139
21.9139
21.9139
21.9139
21.9139
21.9139
21.9139
21.9139
21.9139
21.9139
21.9139
21.9139
21.9139
21.9139
21.9139
21.9139
21.9139
21.9139
21.9139
21.9139
21.9139
21.9139
21.9139
21.9139
21.9139
21.9139
21.9139
21.9139
21.9139
21.9139
21.9139
21.9139
21.9139
21.9139
21.9139
21.9139
21.9139
21.9139
21.9139
21.9139
21.9139
21.9139
21.9139
21.9139
21.9139
21.9139
21.9139
21.9139
21.9139
21.9139
21.9139
21.9139
21.9139
21.9139
21.9139
21.9139
21.9139
21.9139
21.9139
21.9139
21.9139
21.9139
21.9139
21.9139
21.9139
21.9139
21.9139
21.9139
21.9139
21.9139
21.9139
21.9139
21.9139
21.9139
21.9139
21.9139
21.9139
21.9139
21.9139
21.9139
21.9139
21.9139
21.9139
21.9139
21.9139
21.9139
21.9139
21.9139
21.9139
21.9139
21.9139
21.9139
21.9139
21.9139
21.9139
21.9139
21.9139
21.9139
21.9139
21.9139
21.9139
21.9139
21.9139
21.9139
21.9139
21.9139
21.9139
21.9139
21.9139
21.9139
21.9139
21.9139
21.9139
21.9139
21.9139
21.9139
21.9139
21.9139
21.9139
21.9139
21.9139
21.9139
21.9139
21.9139
21.9139
21.9139
21.9139
21.9139
21.9139
21.9139
21.9139
21.9139
21.9139
21.9139
21.9139
21.9139
21.9139
21.9139
21.9139
21.9139
21.9139
21.9139
21.9139
21.9139
21.9139
21.9139
21.9139
21.9139
21.9139
21.9139
21.9139
21.9139
21.9139
21.9139
21.9139
21.9139
21.9139
21.9139
21.9139
21.9139
21.9139
21.9139
21.9139
21.9139
21.9139
21.9139
21.9139
21.9139
21.9139
21.9139
21.9139
21.9139
21.9139
21.9139
21.9139
21.9139
21.9139
21.9139
21.9139
21.9139
21.9139
21.9139
21.9139
21.9139
21.9139
21.9139
21.9139
21.9139
21.9139
21.9139
21.9139
21.9139
21.9139
21.9139
21.9139
21.9139
21.9139
21.9139
21.9139
21.9139
21.9139
21.9139
21.9139
21.9139
21.9139
21.9139
21.9139
21.9139
21.9139
21.9139
21.9139
21.9139
21.9139
21.9139
21.9139
21.9139
21.9139
21.9139
21.9139
21.9139
21.9139
21.9139
21.9139
21.9139
21.9139
21.9139
21.9139
21.9139
21.9139
21.9139
21.9139
21.9139
21.9139
21.9139
21.9139
21.9139
21.9139
21.9139
21.9139
21.9139
21.9139
21.9139
21.9139
21.9139
21.9139
21.9139
21.9139
21.9139
21.9139
21.9139
21.9139
21.9139
21.9139
21.9139
21.9139
21.9139
21.9139
21.9139
21.9139
21.9139
21.9139
21.9139
21.9139
21.9139
21.9139
21.9139
21.9139
21.9139
21.9139
21.9139
21.9139
21.9139
21.9139
21.9139
21.9139
21.9139
21.9139
21.9139
21.9139
21.9139
21.9139
21.9139
21.9139
21.9139
21.9139
21.9139
21.9139
21.9139
21.9139
21.9139
21.9139
21.9139
21.9139
21.9139
21.9139
21.9139
21.9139
21.9139
21.9139
21.9139
21.9139
21.9139
21.9139
21.9139
21.9139
21.9139
21.9139
21.9139
21.9139
21.9139
21.9139
21.9139
21.9139
21.9139
21.9139
21.9139
21.9139
21.9139
21.9139
21.9139
21.9139
21.9139
21.9139
21.9139
21.9139
21.9139
21.9139
21.9139
21.9139
21.9139
21.9139
21.9139
21.9139
21.9139
21.9139
21.9139
21.9139
21.9139
21.9139
21.9139
21.9139
21.9139
21.9139
21.9139
21.9139
21.9139
21.9139
21.9139
21.9139
21.9139
21.9139
21.9139
21.9139
21.9139
21.9139
21.9139
21.9139
21.9139
21.9139
21.9139
21.9139
21.9139
21.9139
21.9139
21.9139
21.9139
21.9139
21.9139
21.9139
21.9139
21.9139
21.9139
21.9139
21.9139
21.9139
21.9139
21.9139
21.9139
21.9139
21.9139
21.9139
21.9139
21.9139
21.9139
21.9139
21.9139
21.9139
21.9139
21.9139
21.9139
21.9139
21.9139
21.9139
21.9139
21.9139
21.9139
21.9139
21.9139
21.9139
21.9139
21.9139
21.9139
21.9139
21.9139
21.9139
21.9139
21.9139
21.9139
21.9139
21.9139
21.9139
21.9139
21.9139
21.9139
21.9139
21.9139
21.9139
21.9139
21.9139
21.9139
21.9139
21.9139
21.9139
21.9139
21.9139
21.9139
21.9139
21.9139
21.9139
21.9139
21.9139
21.9139
21.9139
21.9139
21.9139
21.9139
21.9139
21.9139
21.9139
21.9139
21.9139
21.9139
21.9139
21.9139
21.9139
21.9139
21.9139
21.9139
21.9139
21.9139
21.9139
21.9139
21.9139
21.9139
21.9139
21.9139
21.9139
21.9139
21.9139
21.9139
21.9139
21.9139
21.9139
21.9139
21.9139
21.9139
21.9139
21.9139
21.9139
21.9139
21.9139
21.9139
21.9139
21.9139
21.9139
21.9139
21.9139
21.9139
21.9139
21.9139
21.9139
21.9139
21.9139
21.9139
21.9139
21.9139
21.9139
21.9139
21.9139
21.9139
21.9139
21.9139
21.9139
21.9139
21.9139
21.9139
21.9139
21.9139
21.9139
21.9139
21.9139
21.9139
21.9139
21.9139
21.9139
21.9139
21.9139
21.9139
21.9139
21.9139
21.9139
21.9139
21.9139
21.9139
21.9139
21.9139
21.9139
21.9139
21.9139
21.9139
21.9139
21.9139
21.9139
21.9139
21.9139
21.9139
21.9139
21.9139
21.9139
21.9139
21.9139
21.9139
21.9139
21.9139
21.9139
21.9139
21.9139
21.9139
21.9139
21.9139
21.9139
21.9139
21.9139
21.9139
21.9139
21.9139
21.9139
21.9139
21.9139
21.9139
21.9139
21.9139
21.9139
21.9139
21.9139
21.9139
21.9139
21.9139
21.9139
21.9139
21.9139
21.9139
21.9139
21.9139
21.9139
21.9139
21.9139
21.9139
21.9139
21.9139
21.9139
21.9139
21.9139
21.9139
21.9139
21.9139
21.9139
21.9139
21.9139
21.9139
21.9139
21.9139
21.9139
21.9139
21.9139
21.9139
21.9139
21.9139
21.9139
21.9139
21.9139
21.9139
21.9139
21.9139
21.9139
21.9139
21.9139
21.9139
21.9139
21.9139
21.9139
21.9139
21.9139
21.9139
21.9139
21.9139
21.9139
21.9139
21.9139
21.9139
21.9139
21.9139
21.9139
21.9139
21.9139
21.9139
21.9139
21.9139
21.9139
21.9139
21.9139
21.9139
21.9139
21.9139
21.9139
21.9139
21.9139
21.9139
21.9139
21.9139
21.9139
21.9139
21.9139
21.9139
21.9139
21.9139
21.9139
21.9139
21.9139
21.9139
21.9139
21.9139
21.9139
21.9139
21.9139
21.9139
21.9139
21.9139
21.9139
21.9139
21.9139
21.9139
21.9139
21.9139
21.9139
21.9139
21.9139
21.9139
21.9139
21.9139
21.9139
21.9139
21.9139
21.9139
21.9139
21.9139
21.9139
21.9139
21.9139
21.9139
21.9139
21.9139
21.9139
21.9139
21.9139
21.9139
21.9139
21.9139
21.9139
21.9139
21.9139
21.9139
21.9139
21.9139
21.9139
21.9139
21.9139
21.9139
21.9139
21.9139
21.9139
21.9139
21.9139
21.9139
21.9139
21.9139
21.9139
21.9139
21.9139
21.9139
21.9139
21.9139
21.9139
21.9139
21.9139
21.9139
21.9139
21.9139
21.9139
21.9139
21.9139
21.9139
21.9139
21.9139
21.9139
21.9139
21.9139
21.9139
21.9139
21.9139
21.9139
21.9139
21.9139
21.9139
21.9139
21.9139
21.9139
21.9139
21.9139
21.9139
21.9139
21.9139
21.9139
21.9139
21.9139
21.9139
21.9139
21.9139
21.9139
21.9139
21.9139
21.9139
21.9139
21.9139
21.9139
21.9139
21.9139
21.9139
21.9139
21.9139
21.9139
21.9139
21.9139
21.9139
21.9139
21.9139
21.9139
21.9139
21.9139
21.9139
21.9139
21.9139
21.9139
21.9139
21.9139
21.9139
21.9139
21.9139
21.9139
21.9139
21.9139
21.9139
21.9139
21.9139
21.9139
21.9139
21.9139
21.9139
21.9139
21.9139
21.9139
21.9139
21.9139
21.9139
21.9139
21.9139
21.9139
21.9139
21.9139
21.9139
21.9139
21.9139
21.9139
21.9139
21.9139
21.9139
21.9139
21.9139
21.9139
21.9139
21.9139
21.9139
21.9139
21.9139
21.9139
21.9139
21.9139
21.9139
21.9139
21.9139
21.9139
21.9139
21.9139
21.9139
21.9139
21.9139
21.9139
21.9139
21.9139
21.9139
21.9139
21.9139
21.9139
21.9139
21.9139
21.9139
21.9139
21.9139
21.9139
21.9139
21.9139
21.9139
21.9139
21.9139
21.9139
21.9139
21.9139
21.9139
21.9139
21.9139
21.9139
21.9139
21.9139
21.914
21.914
21.914
21.914
21.914
21.914
21.914
21.914
21.914
21.914
21.914
21.9141
21.9141
21.9141
21.9141
21.9141
21.9139
21.9139
21.9139
21.9139
21.9139
21.9139
21.9139
21.9139
21.9139
21.9139
21.9139
21.9139
21.9139
21.9139
21.9139
21.9139
21.9139
21.9139
21.9139
21.9139
21.9139
21.9139
21.9139
21.9139
21.9139
21.9139
21.9139
21.914
21.914
21.914
21.914
21.914
21.914
21.914
21.914
21.914
21.914
21.914
21.914
21.914
21.914
21.914
21.914
21.914
21.914
21.914
21.914
21.914
21.914
21.914
21.914
21.914
21.914
21.914
21.914
21.914
21.914
21.914
21.914
21.914
21.914
21.914
21.914
21.914
21.914
21.914
21.914
21.9139
21.9139
21.9139
21.9139
21.9139
21.9139
21.9139
21.9139
21.9139
21.9139
21.9139
21.9139
21.9139
21.9139
21.9139
21.9139
21.9139
21.9139
21.9139
21.914
21.914
21.914
21.914
21.914
21.914
21.914
21.914
21.914
21.9141
21.9141
21.9141
21.9141
21.9142
21.9142
21.9142
21.9143
21.9143
21.9143
21.9144
21.9144
21.9145
21.9145
21.9146
21.9147
21.9147
21.9148
21.9149
21.915
21.9139
21.9139
21.9139
21.9139
21.9139
21.9139
21.9139
21.9139
21.9139
21.9139
21.9139
21.9139
21.9139
21.914
21.914
21.914
21.914
21.914
21.914
21.914
21.914
21.914
21.9141
21.9141
21.9141
21.9141
21.9141
21.9141
21.9142
21.9142
21.9142
21.9142
21.9142
21.9142
21.9143
21.9143
21.9143
21.9143
21.9143
21.9143
21.9143
21.9143
21.9143
21.9143
21.9143
21.9143
21.9143
21.9143
21.9143
21.9143
21.9143
21.9143
21.9143
21.9143
21.9143
21.9142
21.9142
21.9142
21.9142
21.9142
21.9142
21.9142
21.9142
21.9141
21.9141
21.9141
21.9141
21.9141
21.9141
21.9141
21.9141
21.9141
21.9141
21.9141
21.9141
21.9141
21.9141
21.9141
21.9141
21.9141
21.9141
21.9141
21.9141
21.9141
21.9141
21.9141
21.9141
21.9142
21.9142
21.9142
21.9143
21.9143
21.9144
21.9145
21.9146
21.9147
21.9148
21.9149
21.915
21.9151
21.9153
21.9154
21.9156
21.9158
21.916
21.9162
21.9164
21.9167
21.917
21.9173
21.9176
21.918
21.9184
21.9189
21.9194
21.92
21.9139
21.9139
21.9139
21.9139
21.9139
21.9139
21.9139
21.9139
21.9139
21.9139
21.9139
21.914
21.914
21.914
21.914
21.914
21.914
21.9141
21.9141
21.9141
21.9142
21.9142
21.9142
21.9143
21.9143
21.9144
21.9144
21.9145
21.9146
21.9146
21.9147
21.9148
21.9148
21.9149
21.915
21.915
21.9151
21.9152
21.9153
21.9153
21.9154
21.9154
21.9155
21.9155
21.9156
21.9156
21.9156
21.9157
21.9157
21.9157
21.9157
21.9157
21.9157
21.9157
21.9156
21.9156
21.9156
21.9156
21.9155
21.9155
21.9154
21.9154
21.9153
21.9153
21.9152
21.9152
21.9151
21.9151
21.915
21.915
21.9149
21.9149
21.9149
21.9148
21.9148
21.9148
21.9147
21.9147
21.9147
21.9146
21.9146
21.9146
21.9146
21.9146
21.9146
21.9146
21.9146
21.9146
21.9147
21.9147
21.9148
21.9148
21.9149
21.915
21.9151
21.9153
21.9155
21.9157
21.916
21.9163
21.9166
21.917
21.9174
21.9179
21.9185
21.9191
21.9197
21.9204
21.9212
21.922
21.9229
21.9238
21.9249
21.926
21.9272
21.9286
21.93
21.9317
21.9335
21.9355
21.9377
21.9402
21.9429
21.9139
21.9139
21.9139
21.9139
21.914
21.914
21.914
21.914
21.914
21.9141
21.9141
21.9142
21.9142
21.9143
21.9144
21.9144
21.9145
21.9147
21.9148
21.9149
21.9151
21.9152
21.9154
21.9156
21.9158
21.916
21.9163
21.9165
21.9168
21.9171
21.9174
21.9177
21.918
21.9183
21.9186
21.9189
21.9192
21.9195
21.9198
21.92
21.9203
21.9205
21.9207
21.9209
21.9211
21.9212
21.9213
21.9214
21.9214
21.9215
21.9215
21.9214
21.9214
21.9213
21.9212
21.9211
21.921
21.9208
21.9206
21.9205
21.9203
21.9201
21.9199
21.9197
21.9195
21.9192
21.919
21.9188
21.9186
21.9184
21.9183
21.9181
21.9179
21.9177
21.9176
21.9175
21.9173
21.9172
21.9171
21.917
21.9169
21.9169
21.9169
21.9169
21.9169
21.9169
21.917
21.9171
21.9172
21.9174
21.9176
21.918
21.9184
21.9189
21.9195
21.9202
21.9211
21.9221
21.9233
21.9247
21.9263
21.9281
21.9302
21.9325
21.935
21.9377
21.9408
21.9441
21.9476
21.9515
21.9557
21.9602
21.9652
21.9706
21.9765
21.9829
21.9901
21.998
22.0068
22.0166
22.0275
22.0396
22.053
21.914
21.914
21.9141
21.9141
21.9142
21.9143
21.9144
21.9145
21.9146
21.9147
21.9149
21.9151
21.9154
21.9157
21.916
21.9164
21.9168
21.9173
21.9178
21.9184
21.9191
21.9198
21.9206
21.9214
21.9223
21.9233
21.9243
21.9254
21.9266
21.9278
21.929
21.9302
21.9315
21.9328
21.934
21.9353
21.9365
21.9377
21.9388
21.9399
21.9409
21.9418
21.9426
21.9433
21.9439
21.9444
21.9448
21.9451
21.9453
21.9453
21.9453
21.9451
21.9448
21.9445
21.944
21.9435
21.9429
21.9422
21.9415
21.9408
21.94
21.9392
21.9383
21.9375
21.9366
21.9358
21.935
21.9341
21.9333
21.9325
21.9318
21.9311
21.9304
21.9297
21.9291
21.9286
21.9281
21.9276
21.9273
21.9269
21.9267
21.9265
21.9265
21.9265
21.9266
21.9267
21.927
21.9275
21.9282
21.929
21.9302
21.9316
21.9335
21.9357
21.9385
21.9418
21.9457
21.9505
21.956
21.9624
21.9699
21.9783
21.9878
21.9985
22.0103
22.0233
22.0375
22.0529
22.0697
22.0878
22.1074
22.1285
22.1515
22.1765
22.2039
22.2339
22.2671
22.3038
22.3446
22.39
22.4406
22.4971
22.56
21.9144
21.9146
21.9147
21.9149
21.9152
21.9155
21.9159
21.9164
21.917
21.9177
21.9185
21.9194
21.9205
21.9217
21.9231
21.9248
21.9266
21.9287
21.931
21.9336
21.9364
21.9395
21.9428
21.9465
21.9503
21.9545
21.9588
21.9634
21.9682
21.9731
21.9781
21.9832
21.9884
21.9935
21.9987
22.0037
22.0086
22.0132
22.0177
22.0219
22.0257
22.0292
22.0323
22.0351
22.0373
22.0391
22.0405
22.0414
22.0419
22.0419
22.0415
22.0406
22.0394
22.0377
22.0358
22.0335
22.031
22.0282
22.0253
22.0222
22.0189
22.0156
22.0122
22.0088
22.0054
22.0019
21.9986
21.9952
21.992
21.9889
21.9859
21.9831
21.9804
21.9779
21.9756
21.9735
21.9715
21.9698
21.9684
21.9671
21.9662
21.9658
21.9658
21.966
21.9664
21.9673
21.9689
21.9711
21.9742
21.9782
21.9835
21.9901
21.9984
22.0087
22.0212
22.0364
22.0547
22.0763
22.1017
22.1312
22.1649
22.2031
22.2459
22.2935
22.3463
22.4042
22.4676
22.5367
22.6117
22.6932
22.7814
22.8772
22.9813
23.095
23.2195
23.3566
23.5082
23.6764
23.8634
24.0717
24.3039
24.5628
24.8512
25.1719
25.528
21.9162
21.9168
21.9176
21.9186
21.9198
21.9212
21.923
21.925
21.9275
21.9305
21.9339
21.938
21.9426
21.948
21.9542
21.9612
21.969
21.9778
21.9876
21.9984
22.0103
22.0232
22.0371
22.0522
22.0682
22.0852
22.1031
22.1218
22.1412
22.1611
22.1815
22.2021
22.2228
22.2434
22.2637
22.2836
22.3028
22.3211
22.3384
22.3545
22.3692
22.3825
22.3942
22.4042
22.4124
22.4188
22.4234
22.4262
22.4271
22.4264
22.424
22.42
22.4144
22.4074
22.3991
22.3897
22.3793
22.368
22.3561
22.3435
22.3306
22.3174
22.3039
22.2904
22.2769
22.2635
22.2503
22.2373
22.2248
22.2127
22.2011
22.1902
22.1799
22.1703
22.1614
22.1534
22.1461
22.1397
22.1343
22.13
22.1272
22.1264
22.1268
22.1279
22.1306
22.1354
22.1428
22.1533
22.1673
22.1856
22.2091
22.2387
22.2755
22.3206
22.3756
22.442
22.5214
22.6156
22.7262
22.8547
23.0021
23.1694
23.3575
23.5672
23.7991
24.0539
24.3323
24.635
24.963
25.3177
25.7006
26.114
26.5607
27.0446
27.5703
28.1431
28.7692
29.4552
30.2083
31.0369
31.9503
32.9585
34.0724
35.3032
36.6626
21.924
21.9268
21.9302
21.9344
21.9396
21.9459
21.9534
21.9624
21.9731
21.9857
22.0004
22.0176
22.0373
22.0599
22.0857
22.1148
22.1476
22.1842
22.2247
22.2692
22.3178
22.3706
22.4275
22.4884
22.5532
22.6215
22.6931
22.7673
22.8439
22.9221
23.0013
23.081
23.1606
23.2392
23.3162
23.3909
23.4626
23.5306
23.5944
23.6533
23.7067
23.7544
23.7958
23.8308
23.859
23.8801
23.8943
23.9017
23.903
23.8975
23.8856
23.8677
23.8443
23.8157
23.7827
23.7456
23.7049
23.6612
23.6151
23.5669
23.5174
23.4669
23.4158
23.3645
23.3133
23.2626
23.2127
23.164
23.1167
23.0713
23.0281
22.9872
22.949
22.9134
22.8809
22.8514
22.825
22.8021
22.783
22.7685
22.7608
22.7603
22.7628
22.7696
22.7835
22.8063
22.8397
22.8857
22.9467
23.0259
23.1268
23.2538
23.4114
23.6049
23.8401
24.1238
24.4629
24.8642
25.3337
25.8755
26.4917
27.1827
27.9478
28.786
29.6965
30.6794
31.7356
32.8674
34.0789
35.3756
36.7646
38.2545
39.8565
41.5852
43.4587
45.4973
47.7232
50.1617
52.8421
55.8
59.0775
62.7251
66.8013
71.3732
76.5145
21.9481
21.9577
21.9697
21.9844
22.0025
22.0245
22.051
22.0827
22.1205
22.1653
22.2178
22.2791
22.35
22.4315
22.5245
22.6298
22.7484
22.8808
23.0275
23.1889
23.365
23.5557
23.7609
23.9802
24.2131
24.459
24.7165
24.9842
25.2603
25.5425
25.8286
26.1163
26.4032
26.687
26.9652
27.2356
27.4958
27.7436
27.9771
28.1941
28.393
28.572
28.7299
28.8659
28.9793
29.0691
29.134
29.1746
29.1928
29.1912
29.1654
29.1173
29.0489
28.9621
28.8588
28.7404
28.6086
28.465
28.3112
28.1489
27.9799
27.806
27.6288
27.4497
27.27
27.0906
26.9127
26.7375
26.5664
26.4005
26.2412
26.0895
25.9463
25.8124
25.6884
25.5754
25.4737
25.3834
25.3055
25.2424
25.1999
25.1856
25.1898
25.2056
25.2433
25.3103
25.4127
25.5569
25.7508
26.0045
26.3304
26.7423
27.2551
27.8841
28.6448
29.5538
30.6289
31.8876
33.3453
35.014
36.9026
39.0181
41.3655
43.9483
46.7694
49.832
53.1408
56.7044
60.5382
64.6669
69.1258
73.9606
79.2266
84.9907
91.3329
98.3427
106.107
114.7
124.179
134.583
145.933
158.226
171.437
185.515
200.386
215.94
22.0601
22.1006
22.1506
22.2122
22.2872
22.3782
22.4876
22.6181
22.7727
22.9544
23.1663
23.4114
23.6922
24.0113
24.371
24.7736
25.2215
25.7165
26.2594
26.85
27.4869
28.1677
28.8898
29.6507
30.4473
31.2765
32.1339
33.0141
33.9106
34.8159
35.7222
36.6214
37.5062
38.3694
39.2046
40.0058
40.7675
41.4855
42.1551
42.7719
43.3316
43.8313
44.2693
44.6444
44.9544
45.1935
45.3589
45.4541
45.5005
45.4868
45.3951
45.2405
45.0311
44.7715
44.4651
44.1155
43.7266
43.303
42.8494
42.3704
41.8711
41.3566
40.8316
40.3
39.7649
39.2295
38.6973
38.1722
37.658
37.1589
36.6784
36.2204
35.7876
35.3828
35.0089
34.6695
34.3663
34.0995
33.8708
33.6933
33.5939
33.5813
33.6105
33.693
33.8555
34.1172
34.4967
35.0151
35.6979
36.5762
37.6885
39.0769
40.7843
42.8532
45.33
48.2682
51.7294
55.7806
60.492
65.9376
72.1918
79.3211
87.3698
96.3511
106.253
117.045
128.677
141.088
154.216
167.994
182.359
197.229
212.481
228.006
243.709
259.473
275.148
290.541
305.426
319.593
332.843
344.988
355.866
365.355
373.388
379.961
385.156
389.129
22.5225
22.688
22.8916
23.1402
23.4411
23.802
24.2303
24.7337
25.3202
25.9983
26.7768
27.6632
28.6629
29.7788
31.0124
32.3644
33.8357
35.4262
37.1339
38.9531
40.8743
42.8853
44.9737
47.1281
49.3393
51.5991
53.9002
56.2339
58.5889
60.9512
63.3056
65.6352
67.9231
70.1543
72.316
74.3936
76.373
78.2451
80.0037
81.6391
83.1375
84.4876
85.6823
86.7222
87.6169
88.341
88.8522
89.2019
89.4192
89.5127
89.357
88.965
88.4603
87.8501
87.1239
86.2779
85.3175
84.2539
83.0994
81.8673
80.5722
79.2294
77.8533
76.4548
75.0423
73.624
72.2093
70.8098
69.4373
68.1029
66.8177
65.5918
64.434
63.352
62.3548
61.4546
60.6654
59.9681
59.3692
58.9577
58.7956
58.824
58.9847
59.3328
59.9322
60.8364
62.1033
63.801
66.0158
68.8619
72.4758
77.0096
82.6316
89.5223
97.8682
107.86
119.681
133.444
149.089
166.305
184.618
203.596
222.952
242.491
262.025
281.277
299.875
317.399
333.415
347.543
359.591
369.526
377.477
383.577
388.054
391.39
393.991
395.986
397.483
398.704
399.757
400.702
401.596
402.469
403.348
404.265
405.335
406.498
24.3558
24.991
25.7572
26.6727
27.7567
29.0284
30.5043
32.1978
34.1199
36.2815
38.6928
41.3593
44.2784
47.4393
50.8283
54.4347
58.2563
62.2994
66.5741
71.0856
75.8282
80.7845
85.9297
91.2418
96.7066
102.319
108.079
113.993
120.061
126.256
132.54
138.876
145.211
151.479
157.612
163.561
169.273
174.692
179.77
184.484
188.796
192.669
196.088
199.069
201.676
203.755
205.247
206.211
206.807
207.176
207.181
206.544
205.501
204.127
202.422
200.43
198.182
195.701
193
190.098
187.023
183.81
180.486
177.076
173.594
170.064
166.513
162.982
159.51
156.122
152.844
149.715
146.763
143.997
141.443
139.201
137.316
135.599
134.126
133.41
133.427
133.807
134.622
136.061
138.3
141.474
145.707
151.193
158.162
166.773
177.236
189.811
204.463
220.836
238.54
257.334
276.978
296.939
316.425
334.795
351.798
367.101
380.059
390.189
397.345
401.764
404.053
405.001
405.28
405.253
405.226
405.373
405.718
406.187
406.782
407.634
408.717
409.743
410.578
411.256
411.835
412.315
412.762
413.236
413.788
414.457
415.068
415.55
30.8767
32.9726
35.4233
38.2573
41.5022
45.178
49.2881
53.8204
58.7626
64.1233
69.9363
76.2487
83.1061
90.5398
98.5599
107.161
116.341
126.122
136.563
147.728
159.656
172.331
185.674
199.555
213.79
228.152
242.398
256.293
269.607
282.138
293.748
304.266
313.592
321.752
328.864
334.79
339.486
343.291
346.438
348.837
350.35
351.315
351.976
352.3
352.219
351.878
351.338
350.588
349.583
348.367
347.243
346.308
345.197
343.825
342.303
340.716
339.086
337.381
335.587
333.709
331.751
329.71
327.562
325.282
322.854
320.288
317.615
314.864
312.046
309.172
306.271
303.39
300.544
297.743
295.101
292.774
290.647
288.869
287.803
287.305
287.188
287.813
289.297
291.731
295.126
299.586
305.336
312.474
320.526
329.392
339.863
351.491
363.042
373.945
384.107
393.321
401.116
407.104
411.367
414.137
415.732
415.939
415.545
415.208
415.029
415.088
415.388
415.648
415.679
415.518
415.313
415.25
415.382
415.664
416.004
416.31
416.61
416.926
417.221
417.485
417.719
417.944
418.177
418.411
418.62
418.764
418.832
418.877
418.922
55.5485
61.6979
68.4876
75.974
84.2542
93.4425
103.65
114.96
127.445
141.201
156.35
173.005
191.208
210.876
231.78
253.485
275.333
296.805
317.467
336.88
354.554
369.966
382.554
392.192
399.156
403.45
405.624
406.433
406.321
405.278
403.842
402.401
400.628
398.451
396.669
395.03
392.969
390.897
389.225
387.696
385.984
384.31
382.731
381.196
379.781
378.466
377.138
375.717
374.211
372.736
371.433
370.333
369.331
368.315
367.273
366.247
365.27
364.356
363.508
362.73
362.026
361.397
360.839
360.352
359.944
359.627
359.41
359.294
359.287
359.399
359.625
359.962
360.423
361.024
361.733
362.644
363.767
365.165
366.774
368.427
370.299
372.496
374.968
377.706
380.813
384.352
388.069
391.817
396.071
401.385
405.445
408.433
411.074
413.534
415.813
417.812
419.798
421.454
422.51
423.071
423.056
422.745
422.513
422.452
422.479
422.33
422.001
421.59
421.152
420.767
420.494
420.278
420.048
419.826
419.676
419.611
419.606
419.633
419.674
419.721
419.77
419.806
419.819
419.804
419.774
419.75
419.735
419.726
105.724
119.09
134.262
151.51
171.112
193.267
217.96
244.625
272.173
299.895
327.119
353.02
376.874
398.047
415.634
428.555
436.76
440.757
441.674
440.947
439.531
437.8
435.721
433.626
431.757
429.884
427.921
426.115
424.578
422.588
420.321
418.252
415.944
413.267
410.845
408.745
406.231
403.632
401.543
399.842
398.01
396.025
394.246
392.592
391.06
389.676
388.309
386.878
385.378
383.859
382.463
381.348
380.43
379.518
378.566
377.62
376.726
375.9
375.145
374.459
373.848
373.315
372.863
372.492
372.205
372.012
371.919
371.926
372.037
372.258
372.587
373.022
373.574
374.249
375.019
375.936
377.136
378.538
380.063
381.651
383.43
385.456
387.702
390.171
392.94
396.023
399.196
402.421
406.152
410.796
414.11
416.378
418.52
420.585
422.589
424.549
426.174
427.357
427.964
428.018
427.736
427.389
427.063
426.697
426.192
425.546
424.862
424.19
423.539
422.926
422.353
421.807
421.321
420.95
420.696
420.521
420.396
420.307
420.246
420.205
420.174
420.147
420.12
420.096
420.073
420.051
420.024
419.993
248.907
281.67
314.653
346.978
377.365
404.593
428.243
447.835
461.551
468.649
470.56
469.87
468.414
466.762
464.562
462.627
460.892
459.257
457.299
454.898
452.135
448.946
445.679
442.747
439.993
437.039
434.176
431.544
428.44
425.375
422.91
420.2
416.946
414.486
412.342
409.644
406.971
404.997
403.216
401.165
399.274
397.575
395.937
394.391
393.061
391.831
390.532
389.141
387.697
386.349
385.326
384.596
383.918
383.19
382.451
381.751
381.112
380.536
380.02
379.568
379.185
378.878
378.651
378.504
378.439
378.459
378.572
378.785
379.101
379.522
380.056
380.715
381.485
382.346
383.34
384.57
386.042
387.58
389.2
390.975
392.93
395.067
397.41
400.028
402.871
405.709
408.666
412.41
416.235
418.553
420.479
422.35
424.291
426.246
428.017
429.349
430.128
430.401
430.314
430.044
429.672
429.189
428.569
427.835
427.044
426.235
425.417
424.606
423.827
423.1
422.448
421.904
421.477
421.147
420.891
420.695
420.552
420.453
420.388
420.348
420.322
420.303
420.284
420.26
420.23
420.195
420.156
458.609
478.885
491.199
495.58
495.566
494.26
492.755
490.608
488.899
487.351
485.311
482.703
479.338
475.666
472.215
468.839
465.334
461.635
457.882
454.102
450.295
446.635
443.145
439.557
436.012
432.944
429.803
426.258
423.479
421.008
417.872
414.692
412.65
410.513
407.686
405.306
403.467
401.385
399.414
397.784
396.292
394.792
393.38
392.172
391.049
389.872
388.606
387.288
386.094
385.235
384.652
384.124
383.558
382.986
382.45
381.969
381.544
381.174
380.863
380.623
380.464
380.389
380.397
380.482
380.643
380.891
381.233
381.672
382.214
382.876
383.663
384.548
385.52
386.62
387.905
389.394
390.998
392.664
394.452
396.373
398.446
400.727
403.273
405.942
408.524
411.477
415.389
418.006
419.889
421.671
423.523
425.567
427.678
429.502
430.723
431.344
431.562
431.536
431.339
430.978
430.45
429.774
428.989
428.132
427.226
426.298
425.383
424.512
423.707
422.993
422.385
421.886
421.487
421.174
420.937
420.765
420.648
420.57
420.52
420.486
420.458
420.43
420.398
420.361
420.322
420.282
420.244
420.21
517.386
515.849
513.891
512.43
510.604
507.979
504.375
500.546
496.821
492.911
488.687
484.257
479.762
475.346
470.93
466.527
462.196
457.973
453.867
449.827
445.886
442.126
438.419
434.747
431.477
428.437
425.07
421.94
419.569
416.963
413.541
411.162