/*--------------------------------*- C++ -*----------------------------------*\
| =========                 |                                                 |
| \\      /  F ield         | OpenFOAM: The Open Source CFD Toolbox           |
|  \\    /   O peration     | Version:  v1706                                 |
|   \\  /    A nd           | Web:      www.OpenFOAM.com                      |
|    \\/     M anipulation  |                                                 |
\*---------------------------------------------------------------------------*/
FoamFile
{
    version     2.0;
    format      ascii;
    class       volScalarField;
    location    "6e-06";
    object      Tov;
}
// * * * * * * * * * * * * * * * * * * * * * * * * * * * * * * * * * * * * * //

dimensions      [0 0 0 1 0 0 0];


internalField   nonuniform List<scalar> 
29871
(
144.4
144.4
144.4
144.4
144.4
144.4
144.4
144.4
144.4
144.4
144.4
144.4
144.4
144.4
144.4
144.4
144.4
144.4
144.4
144.4
144.4
144.4
144.4
144.4
144.4
144.4
144.4
144.4
144.4
144.4
144.4
144.4
144.4
144.4
144.4
144.4
144.4
144.4
144.4
144.4
144.4
144.4
144.4
144.4
144.4
144.4
144.4
144.4
144.4
144.4
144.4
144.4
144.4
144.4
144.4
144.4
144.4
144.4
144.4
144.4
144.4
144.4
144.4
144.4
144.4
144.4
144.4
144.4
144.4
144.4
144.4
144.4
144.4
144.4
144.4
144.4
144.4
144.4
144.4
144.4
144.4
144.4
144.4
144.4
144.4
144.4
144.4
144.4
144.4
144.4
144.4
144.4
144.4
144.4
144.4
144.4
144.4
144.4
144.4
144.4
144.4
144.4
144.4
144.4
144.4
144.4
144.4
144.4
144.4
144.4
144.4
144.4
144.4
144.4
144.4
144.4
144.4
144.4
144.4
144.4
144.4
144.4
144.4
144.4
144.4
144.4
144.4
144.4
144.4
144.4
144.4
144.4
144.4
144.4
144.4
144.4
144.4
144.4
144.4
144.4
144.4
144.4
144.4
144.4
144.4
144.4
144.4
144.4
144.4
144.4
144.4
144.4
144.4
144.4
144.4
144.4
144.4
144.4
144.4
144.4
144.4
144.4
144.4
144.4
144.4
144.4
144.4
144.4
144.4
144.4
144.4
144.4
144.4
144.4
144.4
144.4
144.4
144.4
144.4
144.4
144.4
144.4
144.4
144.4
144.4
144.4
144.4
144.4
144.4
144.4
144.4
144.4
144.4
144.4
144.4
144.4
144.4
144.4
144.4
144.4
144.4
144.4
144.4
144.4
144.4
144.4
144.4
144.4
144.4
144.4
144.4
144.4
144.4
144.4
144.4
144.4
144.4
144.4
144.4
144.4
144.4
144.4
144.4
144.4
144.4
144.4
144.4
144.4
144.4
144.4
144.4
144.4
144.4
144.4
144.4
144.4
144.4
144.4
144.4
144.4
144.4
144.4
144.4
144.4
144.4
144.4
144.4
144.4
144.4
144.4
144.4
144.4
144.4
144.4
144.4
144.4
144.4
144.4
144.4
144.4
144.4
144.4
144.4
144.4
144.4
144.4
144.4
144.4
144.4
144.4
144.4
144.4
144.4
144.4
144.4
144.4
144.4
144.4
144.4
144.4
144.4
144.4
144.4
144.4
144.4
144.4
144.4
144.4
144.4
144.4
144.4
144.4
144.4
144.4
144.4
144.4
144.4
144.4
144.4
144.4
144.4
144.4
144.4
144.4
144.4
144.4
144.4
144.4
144.4
144.4
144.4
144.4
144.4
144.4
144.4
144.4
144.4
144.4
144.4
144.4
144.4
144.4
144.4
144.4
144.4
144.4
144.4
144.4
144.4
144.4
144.4
144.4
144.4
144.4
144.4
144.4
144.4
144.4
144.4
144.4
144.4
144.4
144.4
144.4
144.4
144.4
144.4
144.4
144.4
144.4
144.4
144.4
144.4
144.4
144.4
144.4
144.4
144.4
144.4
144.4
144.4
144.4
144.4
144.4
144.4
144.4
144.4
144.4
144.4
144.4
144.4
144.4
144.4
144.4
144.4
144.4
144.4
144.4
144.4
144.4
144.4
144.4
144.4
144.4
144.4
144.4
144.4
144.4
144.4
144.4
144.4
144.4
144.4
144.4
144.4
144.4
144.4
144.4
144.4
144.4
144.4
144.4
144.4
144.4
144.4
144.4
144.4
144.4
144.4
144.4
144.4
144.4
144.4
144.4
144.4
144.4
144.4
144.4
144.4
144.4
144.4
144.4
144.4
144.4
144.4
144.4
144.4
144.4
144.4
144.4
144.4
144.4
144.4
144.4
144.4
144.4
144.4
144.4
144.4
144.4
144.4
144.4
144.4
144.4
144.4
144.4
144.4
144.4
144.4
144.4
144.4
144.4
144.4
144.4
144.4
144.4
144.4
144.4
144.4
144.4
144.4
144.4
144.4
144.4
144.4
144.4
144.4
144.4
144.4
144.4
144.4
144.4
144.4
144.4
144.4
144.4
144.4
144.4
144.4
144.4
144.4
144.4
144.4
144.4
144.4
144.4
144.4
144.4
144.4
144.4
144.4
144.4
144.4
144.4
144.4
144.4
144.4
144.4
144.4
144.4
144.4
144.4
144.4
144.4
144.4
144.4
144.4
144.4
144.4
144.4
144.4
144.4
144.4
144.4
144.4
144.4
144.4
144.4
144.4
144.4
144.4
144.4
144.4
144.4
144.4
144.4
144.4
144.4
144.4
144.4
144.4
144.4
144.4
144.4
144.4
144.4
144.4
144.4
144.4
144.4
144.4
144.4
144.4
144.4
144.4
144.4
144.4
144.4
144.4
144.4
144.4
144.4
144.4
144.4
144.4
144.4
144.4
144.4
144.4
144.4
144.4
144.4
144.4
144.4
144.4
144.4
144.4
144.4
144.4
144.4
144.4
144.4
144.4
144.4
144.4
144.4
144.4
144.4
144.4
144.4
144.4
144.4
144.4
144.4
144.4
144.4
144.4
144.4
144.4
144.4
144.4
144.4
144.4
144.4
144.4
144.4
144.4
144.4
144.4
144.4
144.4
144.4
144.4
144.4
144.4
144.4
144.4
144.4
144.4
144.4
144.4
144.4
144.4
144.4
144.4
144.4
144.4
144.4
144.4
144.4
144.4
144.4
144.4
144.4
144.4
144.4
144.4
144.4
144.4
144.4
144.4
144.4
144.4
144.4
144.4
144.4
144.4
144.4
144.4
144.4
144.4
144.4
144.4
144.4
144.4
144.4
144.4
144.4
144.4
144.4
144.4
144.4
144.4
144.4
144.4
144.4
144.4
144.4
144.4
144.4
144.4
144.4
144.4
144.4
144.4
144.4
144.4
144.4
144.4
144.4
144.4
144.4
144.4
144.4
144.4
144.4
144.4
144.4
144.4
144.4
144.4
144.4
144.4
144.4
144.4
144.4
144.4
144.4
144.4
144.4
144.4
144.4
144.4
144.4
144.4
144.4
144.4
144.4
144.4
144.4
144.4
144.4
144.4
144.4
144.4
144.4
144.4
144.4
144.4
144.4
144.4
144.4
144.4
144.4
144.4
144.4
144.4
144.4
144.4
144.4
144.4
144.4
144.4
144.4
144.4
144.4
144.4
144.4
144.4
144.4
144.4
144.4
144.4
144.4
144.4
144.4
144.4
144.4
144.4
144.4
144.4
144.4
144.4
144.4
144.4
144.4
144.4
144.4
144.4
144.4
144.4
144.4
144.4
144.4
144.4
144.4
144.4
144.4
144.4
144.4
144.4
144.4
144.4
144.4
144.4
144.4
144.4
144.4
144.4
144.4
144.4
144.4
144.4
144.4
144.4
144.4
144.4
144.4
144.4
144.4
144.4
144.4
144.4
144.4
144.4
144.4
144.4
144.4
144.4
144.4
144.4
144.4
144.4
144.4
144.4
144.4
144.4
144.4
144.4
144.4
144.4
144.4
144.4
144.4
144.4
144.4
144.4
144.4
144.4
144.4
144.4
144.4
144.4
144.4
144.4
144.4
144.4
144.4
144.4
144.4
144.4
144.4
144.4
144.4
144.4
144.4
144.4
144.4
144.4
144.4
144.4
144.4
144.4
144.4
144.4
144.4
144.4
144.4
144.4
144.4
144.4
144.4
144.4
144.4
144.4
144.4
144.4
144.4
144.4
144.4
144.4
144.4
144.4
144.4
144.4
144.4
144.4
144.4
144.4
144.4
144.4
144.4
144.4
144.4
144.4
144.4
144.4
144.4
144.4
144.4
144.4
144.4
144.4
144.4
144.4
144.4
144.4
144.4
144.4
144.4
144.4
144.4
144.4
144.4
144.4
144.4
144.4
144.4
144.4
144.4
144.4
144.4
144.4
144.4
144.4
144.4
144.4
144.4
144.4
144.4
144.4
144.4
144.4
144.4
144.4
144.4
144.4
144.4
144.4
144.4
144.4
144.4
144.4
144.4
144.4
144.4
144.4
144.4
144.4
144.4
144.4
144.4
144.4
144.4
144.4
144.4
144.4
144.4
144.4
144.4
144.4
144.4
144.4
144.4
144.4
144.4
144.4
144.4
144.4
144.4
144.4
144.4
144.4
144.4
144.4
144.4
144.4
144.4
144.4
144.4
144.4
144.4
144.4
144.4
144.4
144.4
144.4
144.4
144.4
144.4
144.4
144.4
144.4
144.4
144.4
144.4
144.4
144.4
144.4
144.4
144.4
144.4
144.4
144.4
144.4
144.4
144.4
144.4
144.4
144.4
144.4
144.4
144.4
144.4
144.4
144.4
144.4
144.4
144.4
144.4
144.4
144.4
144.4
144.4
144.4
144.4
144.4
144.4
144.4
144.4
144.4
144.4
144.4
144.4
144.4
144.4
144.4
144.4
144.4
144.4
144.4
144.4
144.4
144.4
144.4
144.4
144.4
144.4
144.4
144.4
144.4
144.4
144.4
144.4
144.4
144.4
144.4
144.4
144.4
144.4
144.4
144.4
144.4
144.4
144.4
144.4
144.4
144.4
144.4
144.4
144.4
144.4
144.4
144.4
144.4
144.4
144.4
144.4
144.4
144.4
144.4
144.4
144.4
144.4
144.4
144.4
144.4
144.4
144.4
144.4
144.4
144.4
144.4
144.4
144.4
144.4
144.4
144.4
144.4
144.4
144.4
144.4
144.4
144.4
144.4
144.4
144.4
144.4
144.4
144.4
144.4
144.4
144.4
144.4
144.4
144.4
144.4
144.4
144.4
144.4
144.4
144.4
144.4
144.4
144.4
144.4
144.4
144.4
144.4
144.4
144.4
144.4
144.4
144.4
144.4
144.4
144.4
144.4
144.4
144.4
144.4
144.4
144.4
144.4
144.4
144.4
144.4
144.4
144.4
144.4
144.4
144.4
144.4
144.4
144.4
144.4
144.4
144.4
144.4
144.4
144.4
144.4
144.4
144.4
144.4
144.4
144.4
144.4
144.4
144.4
144.4
144.4
144.4
144.4
144.4
144.4
144.4
144.4
144.4
144.4
144.4
144.4
144.4
144.4
144.4
144.4
144.4
144.4
144.4
144.4
144.4
144.4
144.4
144.4
144.4
144.4
144.4
144.4
144.4
144.4
144.4
144.4
144.4
144.4
144.4
144.4
144.4
144.4
144.4
144.4
144.4
144.4
144.4
144.4
144.4
144.4
144.4
144.4
144.4
144.4
144.4
144.4
144.4
144.4
144.4
144.4
144.4
144.4
144.4
144.4
144.4
144.4
144.4
144.4
144.4
144.4
144.4
144.4
144.4
144.4
144.4
144.4
144.4
144.4
144.4
144.4
144.4
144.4
144.4
144.4
144.4
144.4
144.4
144.4
144.4
144.4
144.4
144.4
144.4
144.4
144.4
144.4
144.4
144.4
144.4
144.4
144.4
144.4
144.4
144.4
144.4
144.4
144.4
144.4
144.4
144.4
144.4
144.4
144.4
144.4
144.4
144.4
144.4
144.4
144.4
144.4
144.4
144.4
144.4
144.4
144.4
144.4
144.4
144.4
144.4
144.4
144.4
144.4
144.4
144.4
144.4
144.4
144.4
144.4
144.4
144.4
144.4
144.4
144.4
144.4
144.4
144.4
144.4
144.4
144.4
144.4
144.4
144.4
144.4
144.4
144.4
144.4
144.4
144.4
144.4
144.4
144.4
144.4
144.4
144.4
144.4
144.4
144.4
144.4
144.4
144.4
144.4
144.4
144.4
144.4
144.4
144.4
144.4
144.4
144.4
144.4
144.4
144.4
144.4
144.4
144.4
144.4
144.4
144.4
144.4
144.4
144.4
144.4
144.4
144.4
144.4
144.4
144.4
144.4
144.4
144.4
144.4
144.4
144.4
144.4
144.4
144.4
144.4
144.4
144.4
144.4
144.4
144.4
144.4
144.4
144.4
144.4
144.4
144.4
144.4
144.4
144.4
144.4
144.4
144.4
144.4
144.4
144.4
144.4
144.4
144.4
144.4
144.4
144.4
144.4
144.4
144.4
144.4
144.4
144.4
144.4
144.4
144.4
144.4
144.4
144.4
144.4
144.4
144.4
144.4
144.4
144.4
144.4
144.4
144.4
144.4
144.4
144.4
144.4
144.4
144.4
144.4
144.4
144.4
144.4
144.4
144.4
144.4
144.4
144.4
144.4
144.4
144.4
144.4
144.4
144.4
144.4
144.4
144.4
144.4
144.4
144.4
144.4
144.4
144.4
144.4
144.4
144.4
144.4
144.4
144.4
144.4
144.4
144.4
144.4
144.4
144.4
144.4
144.4
144.4
144.4
144.4
144.4
144.4
144.4
144.4
144.4
144.4
144.4
144.4
144.4
144.4
144.4
144.4
144.4
144.4
144.4
144.4
144.4
144.4
144.4
144.4
144.4
144.4
144.4
144.4
144.4
144.4
144.4
144.4
144.4
144.4
144.4
144.4
144.4
144.4
144.4
144.4
144.4
144.4
144.4
144.4
144.4
144.4
144.4
144.4
144.4
144.4
144.4
144.4
144.4
144.4
144.4
144.4
144.4
144.4
144.4
144.4
144.4
144.4
144.4
144.4
144.4
144.4
144.4
144.4
144.4
144.4
144.4
144.4
144.4
144.4
144.4
144.4
144.4
144.4
144.4
144.4
144.401
144.401
144.401
144.401
144.401
144.401
144.401
144.401
144.401
144.401
144.4
144.4
144.4
144.4
144.4
144.4
144.4
144.4
144.4
144.4
144.4
144.4
144.4
144.4
144.4
144.4
144.4
144.4
144.4
144.4
144.4
144.4
144.4
144.4
144.4
144.4
144.4
144.4
144.4
144.4
144.4
144.4
144.4
144.4
144.4
144.4
144.4
144.4
144.4
144.4
144.401
144.401
144.401
144.401
144.401
144.401
144.401
144.401
144.4
144.4
144.4
144.4
144.4
144.4
144.4
144.4
144.4
144.4
144.4
144.4
144.4
144.4
144.4
144.4
144.4
144.4
144.4
144.4
144.4
144.4
144.4
144.4
144.4
144.4
144.4
144.4
144.4
144.4
144.4
144.4
144.4
144.4
144.4
144.4
144.4
144.4
144.4
144.4
144.4
144.4
144.4
144.401
144.401
144.401
144.401
144.401
144.401
144.401
144.401
144.401
144.402
144.402
144.402
144.402
144.402
144.403
144.403
144.403
144.403
144.404
144.404
144.404
144.405
144.405
144.406
144.4
144.4
144.4
144.4
144.4
144.4
144.4
144.4
144.4
144.4
144.4
144.4
144.4
144.4
144.4
144.4
144.4
144.401
144.401
144.401
144.401
144.401
144.401
144.401
144.401
144.401
144.401
144.401
144.401
144.402
144.402
144.402
144.402
144.402
144.402
144.402
144.402
144.402
144.402
144.402
144.402
144.402
144.402
144.402
144.402
144.402
144.402
144.402
144.402
144.402
144.402
144.402
144.402
144.402
144.402
144.402
144.402
144.402
144.402
144.402
144.401
144.401
144.401
144.401
144.401
144.401
144.401
144.401
144.401
144.401
144.401
144.401
144.401
144.401
144.401
144.401
144.401
144.401
144.401
144.401
144.401
144.401
144.401
144.401
144.401
144.401
144.401
144.401
144.402
144.402
144.402
144.402
144.403
144.403
144.404
144.404
144.405
144.405
144.406
144.407
144.407
144.408
144.409
144.41
144.411
144.412
144.414
144.415
144.416
144.418
144.42
144.422
144.424
144.427
144.429
144.432
144.4
144.4
144.4
144.4
144.4
144.4
144.4
144.4
144.4
144.4
144.4
144.4
144.4
144.4
144.401
144.401
144.401
144.401
144.401
144.401
144.401
144.402
144.402
144.402
144.402
144.403
144.403
144.403
144.404
144.404
144.404
144.405
144.405
144.406
144.406
144.406
144.407
144.407
144.407
144.408
144.408
144.408
144.409
144.409
144.409
144.409
144.409
144.41
144.41
144.41
144.41
144.41
144.41
144.41
144.409
144.409
144.409
144.409
144.409
144.408
144.408
144.408
144.408
144.407
144.407
144.407
144.407
144.406
144.406
144.406
144.406
144.405
144.405
144.405
144.405
144.405
144.404
144.404
144.404
144.404
144.404
144.404
144.404
144.404
144.404
144.404
144.404
144.404
144.404
144.404
144.405
144.405
144.405
144.406
144.407
144.407
144.408
144.41
144.411
144.413
144.415
144.417
144.419
144.422
144.425
144.428
144.431
144.435
144.439
144.444
144.448
144.454
144.459
144.465
144.472
144.479
144.487
144.496
144.506
144.517
144.529
144.542
144.557
144.4
144.4
144.4
144.4
144.4
144.4
144.401
144.401
144.401
144.401
144.401
144.402
144.402
144.402
144.403
144.403
144.404
144.404
144.405
144.406
144.407
144.407
144.408
144.41
144.411
144.412
144.413
144.415
144.416
144.418
144.419
144.421
144.423
144.424
144.426
144.428
144.429
144.431
144.432
144.434
144.435
144.436
144.437
144.438
144.439
144.44
144.44
144.441
144.441
144.441
144.441
144.441
144.441
144.44
144.439
144.439
144.438
144.437
144.436
144.435
144.434
144.433
144.432
144.431
144.43
144.429
144.427
144.426
144.425
144.424
144.423
144.422
144.421
144.42
144.42
144.419
144.418
144.418
144.417
144.417
144.416
144.416
144.416
144.416
144.416
144.416
144.416
144.417
144.418
144.419
144.42
144.422
144.424
144.427
144.43
144.434
144.439
144.444
144.451
144.459
144.467
144.477
144.488
144.501
144.515
144.53
144.546
144.564
144.583
144.604
144.627
144.652
144.678
144.708
144.739
144.774
144.813
144.856
144.903
144.956
145.015
145.08
145.153
144.401
144.401
144.401
144.401
144.402
144.402
144.403
144.403
144.404
144.405
144.406
144.407
144.408
144.41
144.412
144.414
144.416
144.419
144.422
144.425
144.429
144.433
144.438
144.442
144.447
144.453
144.459
144.465
144.471
144.478
144.484
144.491
144.498
144.505
144.512
144.519
144.525
144.532
144.538
144.543
144.549
144.554
144.558
144.562
144.565
144.567
144.569
144.571
144.571
144.571
144.571
144.57
144.568
144.566
144.563
144.56
144.557
144.553
144.549
144.545
144.541
144.536
144.531
144.527
144.522
144.517
144.513
144.508
144.504
144.5
144.496
144.492
144.488
144.485
144.481
144.478
144.476
144.473
144.471
144.47
144.468
144.467
144.467
144.467
144.468
144.469
144.47
144.473
144.477
144.482
144.488
144.496
144.506
144.518
144.533
144.552
144.574
144.6
144.63
144.665
144.706
144.752
144.804
144.862
144.926
144.996
145.073
145.157
145.248
145.346
145.452
145.568
145.693
145.829
145.978
146.142
146.324
146.524
146.748
146.996
147.273
147.581
147.925
144.403
144.404
144.405
144.406
144.408
144.409
144.412
144.414
144.418
144.422
144.426
144.431
144.437
144.445
144.453
144.462
144.472
144.484
144.497
144.511
144.527
144.545
144.563
144.584
144.605
144.628
144.653
144.678
144.705
144.732
144.76
144.788
144.816
144.845
144.873
144.9
144.927
144.952
144.976
144.999
145.019
145.038
145.055
145.069
145.08
145.09
145.096
145.1
145.102
145.101
145.098
145.093
145.085
145.076
145.064
145.051
145.037
145.021
145.004
144.987
144.969
144.951
144.932
144.913
144.894
144.875
144.857
144.839
144.821
144.804
144.788
144.772
144.758
144.744
144.732
144.72
144.71
144.701
144.693
144.686
144.682
144.68
144.68
144.681
144.683
144.689
144.697
144.71
144.727
144.749
144.778
144.815
144.861
144.917
144.986
145.069
145.169
145.287
145.426
145.587
145.772
145.982
146.217
146.479
146.769
147.087
147.435
147.813
148.224
148.669
149.151
149.671
150.236
150.851
151.523
152.26
153.072
153.969
154.963
156.066
157.291
158.652
160.162
161.836
163.686
144.413
144.417
144.421
144.427
144.434
144.442
144.452
144.464
144.478
144.495
144.515
144.538
144.564
144.595
144.63
144.67
144.714
144.764
144.819
144.88
144.947
145.02
145.099
145.183
145.273
145.368
145.468
145.573
145.68
145.791
145.904
146.017
146.131
146.244
146.356
146.464
146.568
146.667
146.76
146.847
146.925
146.995
147.057
147.108
147.15
147.182
147.204
147.216
147.218
147.211
147.194
147.169
147.135
147.094
147.046
146.992
146.933
146.87
146.802
146.732
146.66
146.587
146.512
146.438
146.363
146.29
146.217
146.146
146.077
146.011
145.948
145.889
145.833
145.781
145.733
145.69
145.651
145.616
145.587
145.565
145.55
145.547
145.549
145.555
145.57
145.597
145.639
145.697
145.775
145.876
146.006
146.169
146.373
146.623
146.927
147.294
147.734
148.255
148.865
149.573
150.381
151.295
152.317
153.449
154.694
156.053
157.53
159.127
160.849
162.702
164.693
166.83
169.128
171.603
174.275
177.168
180.307
183.717
187.428
191.469
195.871
200.668
205.891
211.568
217.722
144.458
144.475
144.494
144.519
144.548
144.584
144.628
144.679
144.741
144.813
144.897
144.995
145.108
145.237
145.384
145.55
145.737
145.944
146.174
146.426
146.7
146.997
147.317
147.658
148.02
148.401
148.8
149.212
149.636
150.067
150.504
150.941
151.376
151.804
152.222
152.625
153.011
153.375
153.714
154.026
154.306
154.554
154.768
154.945
155.085
155.187
155.25
155.276
155.27
155.229
155.153
155.044
154.906
154.741
154.553
154.344
154.116
153.873
153.617
153.351
153.079
152.801
152.522
152.242
151.963
151.687
151.415
151.151
150.894
150.649
150.415
150.194
149.987
149.796
149.621
149.462
149.321
149.198
149.097
149.022
148.984
148.984
148.999
149.038
149.117
149.246
149.433
149.689
150.027
150.465
151.022
151.72
152.583
153.638
154.913
156.442
158.257
160.39
162.866
165.7
168.898
172.455
176.361
180.599
185.153
190.007
195.149
200.574
206.282
212.279
218.577
225.189
232.135
239.442
247.14
255.254
263.802
272.794
282.238
292.143
302.524
313.399
324.788
336.713
349.183
144.599
144.655
144.724
144.809
144.913
145.04
145.193
145.376
145.594
145.851
146.153
146.505
146.911
147.376
147.906
148.505
149.177
149.926
150.754
151.662
152.65
153.717
154.86
156.076
157.362
158.713
160.12
161.576
163.067
164.582
166.107
167.629
169.135
170.612
172.048
173.431
174.75
175.995
177.157
178.226
179.194
180.055
180.803
181.437
181.953
182.347
182.615
182.76
182.789
182.727
182.548
182.255
181.862
181.38
180.818
180.183
179.483
178.727
177.922
177.076
176.199
175.298
174.381
173.456
172.529
171.604
170.687
169.784
168.903
168.048
167.227
166.445
165.707
165.016
164.378
163.795
163.272
162.808
162.409
162.09
161.878
161.817
161.844
161.932
162.138
162.5
163.049
163.815
164.841
166.176
167.882
170.026
172.678
175.907
179.781
184.365
189.724
195.911
202.957
210.862
219.595
229.098
239.293
250.077
261.338
272.961
284.837
296.875
309.014
321.225
333.508
345.882
358.374
371.019
383.858
396.923
410.209
423.656
437.164
450.599
463.816
476.668
489.021
500.767
511.831
522.167
145.251
145.486
145.777
146.134
146.569
147.095
147.726
148.477
149.363
150.402
151.611
153.004
154.596
156.397
158.418
160.667
163.152
165.879
168.845
172.043
175.456
179.064
182.847
186.781
190.847
195.021
199.276
203.583
207.905
212.202
216.436
220.567
224.563
228.393
232.032
235.459
238.654
241.606
244.303
246.735
248.891
250.766
252.359
253.674
254.712
255.453
255.893
256.038
255.985
255.711
255.147
254.319
253.276
252.045
250.637
249.064
247.341
245.483
243.507
241.431
239.271
237.047
234.776
232.475
230.154
227.827
225.507
223.21
220.953
218.753
216.628
214.595
212.667
210.858
209.183
207.66
206.299
205.099
204.075
203.3
202.898
202.889
203.04
203.461
204.27
205.549
207.377
209.843
213.053
217.134
222.228
228.476
235.993
244.856
255.112
266.781
279.847
294.232
309.78
326.272
343.468
361.142
379.075
397.032
414.767
432.02
448.541
464.119
478.606
491.931
504.097
515.147
525.142
534.178
542.37
549.824
556.611
562.765
568.3
573.246
577.635
581.5
584.876
587.803
590.329
592.504
594.385
596.035
147.951
148.91
150.087
151.519
153.245
155.307
157.743
160.592
163.891
167.675
171.977
176.819
182.209
188.135
194.577
201.506
208.898
216.725
224.949
233.511
242.333
251.324
260.395
269.467
278.479
287.379
296.128
304.685
313.004
321.03
328.709
335.99
342.828
349.19
355.054
360.406
365.237
369.557
373.381
376.716
379.562
381.93
383.842
385.334
386.442
387.106
387.224
387.057
386.607
385.865
384.684
383.069
381.213
379.14
376.833
374.289
371.524
368.56
365.417
362.115
358.677
355.127
351.489
347.781
344.019
340.217
336.398
332.589
328.818
325.116
321.512
318.04
314.728
311.605
308.708
306.084
303.775
301.734
300.014
298.899
298.638
298.816
299.432
300.705
302.79
305.819
309.927
315.255
321.959
330.206
340.155
351.911
365.476
380.74
397.53
415.626
434.724
454.357
473.861
492.455
509.454
524.48
537.471
548.572
558.012
566.021
572.795
578.512
583.305
587.259
590.483
593.077
595.149
596.791
598.096
599.199
600.207
601.151
602.058
602.991
603.971
604.994
606.062
607.169
608.311
609.49
610.761
612.1
158.551
162.165
166.495
171.623
177.626
184.568
192.486
201.384
211.247
222.05
233.763
246.33
259.652
273.584
287.951
302.587
317.361
332.188
347.006
361.738
376.271
390.46
404.151
417.216
429.568
441.161
451.99
462.081
471.461
480.127
488.074
495.304
501.812
507.588
512.637
516.979
520.639
523.652
526.068
527.944
529.303
530.171
530.573
530.604
530.423
529.844
528.838
527.526
526.007
524.35
522.486
520.376
518.065
515.581
512.939
510.154
507.244
504.221
501.094
497.871
494.561
491.177
487.729
484.226
480.671
477.077
473.459
469.845
466.266
462.744
459.303
455.986
452.823
449.836
447.073
444.65
442.613
440.793
439.341
439.026
439.295
440.082
441.518
443.786
447.048
451.41
456.948
463.75
471.868
481.255
491.848
503.477
515.66
527.778
539.383
550.271
560.333
569.388
577.233
583.812
589.293
593.856
597.592
600.607
602.991
604.827
606.232
607.339
608.267
609.172
610.04
610.867
611.667
612.448
613.247
614.11
615.05
616.001
616.934
617.86
618.798
619.766
620.787
621.876
623.052
624.332
625.634
626.94
194.886
205.991
218.622
232.766
248.386
265.401
283.647
302.874
322.794
343.165
363.822
384.639
405.463
426.079
446.203
465.538
483.842
501
517.022
531.963
545.849
558.634
570.222
580.523
589.474
597.052
603.284
608.293
612.232
615.227
617.389
618.819
619.622
619.867
619.739
619.181
618.165
616.856
615.341
613.638
611.706
609.621
607.471
605.268
602.988
600.643
598.243
595.799
593.301
590.76
588.305
586.005
583.675
581.287
578.873
576.466
574.097
571.762
569.464
567.208
564.997
562.828
560.696
558.598
556.534
554.512
552.547
550.647
548.817
547.063
545.401
543.85
542.41
541.089
539.94
539.022
538.276
537.829
537.821
538.104
538.594
539.491
540.885
542.743
545.063
547.894
551.295
555.243
559.516
564.081
569.175
574.438
579.416
584.032
588.351
592.404
596.145
599.498
602.466
605.102
607.447
609.411
611.324
613.176
614.917
616.574
618.191
619.699
621.039
622.22
623.274
624.265
625.242
626.221
627.173
628.071
628.966
629.899
630.873
631.896
632.98
634.145
635.407
636.767
638.22
639.751
641.353
643.031
644.774
312.221
336.989
362.595
388.748
415.215
441.734
467.942
493.354
517.526
540.218
561.348
580.886
598.775
614.869
628.964
640.864
650.445
657.84
663.374
667.419
670.274
672.125
672.998
673.074
672.635
671.409
669.578
667.428
665.119
662.644
660.057
657.507
654.867
652.125
649.467
646.836
644.026
641.243
638.552
635.915
633.212
630.514
627.864
625.212
622.583
619.973
617.365
614.748
612.123
609.541
607.062
604.657
602.272
599.886
597.516
595.189
592.92
590.712
588.566
586.484
584.471
582.533
580.674
578.9
577.217
575.633
574.153
572.782
571.528
570.405
569.419
568.572
567.877
567.336
566.931
566.817
566.898
567.183
567.669
568.296
569.14
570.245
571.593
573.185
575.056
577.228
579.632
582.222
585.089
588.356
591.383
594.263
597.18
600.149
603.147
606.11
609.053
611.827
614.407
616.877
619.195
621.42
623.62
625.797
627.92
629.905
631.74
633.445
635.027
636.513
637.936
639.302
640.607
641.871
643.129
644.401
645.707
647.069
648.506
650.036
651.675
653.428
655.293
657.268
659.349
661.535
663.817
666.185
480.903
511.846
541.466
569.376
595.344
619.171
640.637
659.33
674.699
686.786
695.899
702.418
706.89
709.889
711.715
712.341
712.172
711.132
709.167
706.8
704.391
701.981
699.543
697.08
694.577
691.957
689.277
686.668
684.181
681.52
678.787
676.1
673.292
670.357
667.478
664.675
661.719
658.793
655.966
653.239
650.486
647.746
645.058
642.371
639.72
637.105
634.497
631.89
629.283
626.685
624.156
621.729
619.344
616.956
614.58
612.242
609.957
607.726
605.544
603.414
601.342
599.34
597.415
595.573
593.819
592.155
590.586
589.115
587.751
586.507
585.388
584.4
583.553
582.845
582.262
581.869
581.795
581.865
582.079
582.445
583.017
583.825
584.866
586.147
587.695
589.521
591.572
593.831
596.37
599.268
601.942
604.474
607.117
609.904
612.818
615.79
618.699
621.518
624.244
626.92
629.604
632.34
635.123
637.912
640.649
643.281
645.801
648.211
650.509
652.702
654.794
656.786
658.697
660.561
662.404
664.251
666.129
668.068
670.093
672.227
674.483
676.869
679.388
682.038
684.813
687.705
690.705
693.803
680.791
699.977
714.875
725.965
733.751
738.828
742.029
743.959
744.599
744.335
743.031
740.88
738.564
736.352
734.067
731.788
729.41
726.969
724.444
721.872
719.231
716.402
713.444
710.512
707.599
704.6
701.645
698.792
695.789
692.8
689.98
687.057
683.973
681.121
678.36
675.418
672.531
669.809
667.16
664.452
661.838
659.254
656.639
654.032
651.505
649.01
646.513
644.008
641.492
639.017
636.648
634.337
632.032
629.736
627.475
625.257
623.08
620.938
618.831
616.767
614.761
612.825
610.965
609.184
607.482
605.86
604.326
602.89
601.563
600.357
599.28
598.341
597.534
596.851
596.324
596.045
596.028
596.095
596.3
596.691
597.294
598.118
599.178
600.496
602.067
603.844
605.854
608.214
610.712
612.966
615.318
617.898
620.741
623.777
626.907
630.043
633.173
636.332
639.571
642.932
646.424
650.009
653.627
657.219
660.745
664.179
667.498
670.685
673.729
676.629
679.398
682.058
684.641
687.178
689.702
692.252
694.863
697.568
700.391
703.348
706.45
709.697
713.087
716.612
720.261
724.023
727.888
770.327
772.112
772.503
771.974
770.359
768.209
766.117
763.949
761.881
759.715
757.303
754.812
752.158
749.341
746.448
743.439
740.4
737.374
734.385
731.384
728.329
725.28
722.285
719.302
716.377
713.593
710.777
707.829
705.078
702.392
699.511
696.629
694.063
691.46
688.652
685.991
683.488
680.915
678.419
676.002
673.586
671.117
668.659
666.288
663.954
661.619
659.267
656.892
654.551
652.297
650.086
647.881
645.69
643.531
641.409
639.316
637.242
635.186
633.159
631.181
629.264
627.417
625.64
623.93
622.288
620.722
619.243
617.865
616.6
615.462
614.455
613.575
612.819
612.205
611.779
611.608
611.615
611.71
611.967
612.422
613.1
614.021
615.203
616.63
618.261
620.171
622.492
624.656
626.845
629.256
631.989
635.068
638.407
641.858
645.355
648.951
652.719
656.7
660.897
665.279
669.791
674.368
678.953
683.493
687.94
692.249
696.389
700.345
704.116
707.716
711.172
714.516
717.788
721.033
724.297
727.622
731.043
734.588
738.274
742.11
746.098
750.231
754.501
758.893
763.397
767.998
772.688
777.457
793.821
791.836
789.825
787.935
785.8
783.425
780.819
778.107
775.26
772.267
769.218
766.178
763.136
760.093
757.039
754.034
751.079
748.152
745.24
742.322
739.418
736.569
733.761
730.988
728.326
725.72
723.023
720.369
717.912
715.394
712.66
710.194
707.902
705.46
702.878
700.537
698.231
695.855
693.62
691.42
689.229
687.019
684.771
682.581
680.442
678.314
676.166
673.996
671.853
669.77
667.72
665.678
663.652
661.657
659.69
657.741
655.796
653.856
651.932
650.045
648.212
646.442
644.732
643.078
641.48
639.946
638.489
637.125
635.869
634.733
633.722
632.832
632.063
631.425
630.939
630.675
630.647
630.701
630.891
631.272
631.877
632.734
633.857
635.213
636.787
638.72
640.969
643.06
645.323
647.914
650.905
654.305
657.997
661.821
665.767
669.934
674.41
679.216
684.318
689.657
695.162
700.762
706.388
711.967
717.431
722.722
727.803
732.655
737.276
741.685
745.911
749.996
753.988
757.94
761.904
765.925
770.042
774.283
778.664
783.193
787.87
792.686
797.63
802.689
807.847
813.091
818.411
823.798
808.056
805.537
802.911
800.1
797.136
794.103
791.067
788.062
785.076
782.106
779.138
776.176
773.232
770.315
767.441
764.632
761.871
759.139
756.422
753.726
751.081
748.494
745.943
743.457
741.052
738.642
736.198
733.914
731.712
729.384
726.997
724.943
722.892
720.647
718.41
716.41
714.351
712.236
710.288
708.356
706.504
704.53
702.49
700.576
698.687
696.808
694.925
693.033
691.147
689.297
687.481
685.683
683.899
682.137
680.397
678.666
676.93
675.19
673.454
671.745
670.084
668.477
666.922
665.412
663.946
662.531
661.183
659.922
658.765
657.723
656.796
655.981
655.28
654.699
654.249
654.005
653.988
654.051
654.252
654.641
655.255
656.123
657.252
658.609
660.212
662.246
664.436
666.587
669.024
671.875
675.186
678.948
683.019
687.27
691.738
696.551
701.79
707.453
713.48
719.786
726.285
732.89
739.513
746.066
752.468
758.654
764.582
770.233
775.61
780.733
785.643
790.387
795.023
799.608
804.199
808.843
813.578
818.429
823.414
828.536
833.793
839.175
844.669
850.258
855.929
861.668
867.465
873.311
815.198
812.257
809.347
806.42
803.471
800.532
797.63
794.779
791.973
789.189
786.424
783.688
780.998
778.365
775.789
773.261
770.768
768.309
765.896
763.545
761.246
758.995
756.817
754.683
752.541
750.462
748.512
746.569
744.514
742.614
740.889
739.099
737.135
735.345
733.68
731.927
730.123
728.496
726.927
725.367
723.638
721.941
720.367
718.793
717.209
715.632
714.079
712.517
710.959
709.448
707.976
706.51
705.049
703.601
702.157
700.704
699.244
697.783
696.339
694.934
693.578
692.267
690.989
689.742
688.534
687.384
686.318
685.353
684.497
683.745
683.094
682.546
682.105
681.787
681.675
681.707
681.844
682.136
682.617
683.318
684.269
685.473
686.907
688.618
690.787
692.974
695.287
697.982
701.15
704.833
708.992
713.471
718.193
723.238
728.74
734.761
741.271
748.184
755.399
762.81
770.315
777.808
785.19
792.372
799.29
805.899
812.186
818.159
823.849
829.301
834.573
839.726
844.824
849.92
855.064
860.289
865.621
871.071
876.641
882.326
888.115
893.992
899.942
905.95
912.005
918.096
924.217
824.201
821.349
818.546
815.769
813.002
810.256
807.551
804.898
802.294
799.729
797.201
794.718
792.292
789.926
787.62
785.367
783.161
781.007
778.916
776.887
774.912
772.999
771.151
769.334
767.545
765.856
764.236
762.597
760.954
759.492
758.081
756.594
755.057
753.709
752.387
750.99
749.561
748.305
747.122
745.866
744.499
743.231
742.042
740.799
739.56
738.352
737.186
736.022
734.808
733.64