/*--------------------------------*- C++ -*----------------------------------*\
| =========                 |                                                 |
| \\      /  F ield         | OpenFOAM: The Open Source CFD Toolbox           |
|  \\    /   O peration     | Version:  v1706                                 |
|   \\  /    A nd           | Web:      www.OpenFOAM.com                      |
|    \\/     M anipulation  |                                                 |
\*---------------------------------------------------------------------------*/
FoamFile
{
    version     2.0;
    format      ascii;
    class       volScalarField;
    location    "6e-06";
    object      Tv;
}
// * * * * * * * * * * * * * * * * * * * * * * * * * * * * * * * * * * * * * //

dimensions      [0 0 0 1 0 0 0];


internalField   nonuniform List<scalar> 
29871
(
144.4
144.4
144.4
144.4
144.4
144.4
144.4
144.4
144.4
144.4
144.4
144.4
144.4
144.4
144.4
144.4
144.4
144.4
144.4
144.4
144.4
144.4
144.4
144.4
144.4
144.4
144.4
144.4
144.4
144.4
144.4
144.4
144.4
144.4
144.4
144.4
144.4
144.4
144.4
144.4
144.4
144.4
144.4
144.4
144.4
144.4
144.4
144.4
144.4
144.4
144.4
144.4
144.4
144.4
144.4
144.4
144.4
144.4
144.4
144.4
144.4
144.4
144.4
144.4
144.4
144.4
144.4
144.4
144.4
144.4
144.4
144.4
144.4
144.4
144.4
144.4
144.4
144.4
144.4
144.4
144.4
144.4
144.4
144.4
144.4
144.4
144.4
144.4
144.4
144.4
144.4
144.4
144.4
144.4
144.4
144.4
144.4
144.4
144.4
144.4
144.4
144.4
144.4
144.4
144.4
144.4
144.4
144.4
144.4
144.4
144.4
144.4
144.4
144.4
144.4
144.4
144.4
144.4
144.4
144.4
144.4
144.4
144.4
144.4
144.4
144.4
144.4
144.4
144.4
144.4
144.4
144.4
144.4
144.4
144.4
144.4
144.4
144.4
144.4
144.4
144.4
144.4
144.4
144.4
144.4
144.4
144.4
144.4
144.4
144.4
144.4
144.4
144.4
144.4
144.4
144.4
144.4
144.4
144.4
144.4
144.4
144.4
144.4
144.4
144.4
144.4
144.4
144.4
144.4
144.4
144.4
144.4
144.4
144.4
144.4
144.4
144.4
144.4
144.4
144.4
144.4
144.4
144.4
144.4
144.4
144.4
144.4
144.4
144.4
144.4
144.4
144.4
144.4
144.4
144.4
144.4
144.4
144.4
144.4
144.4
144.4
144.4
144.4
144.4
144.4
144.4
144.4
144.4
144.4
144.4
144.4
144.4
144.4
144.4
144.4
144.4
144.4
144.4
144.4
144.4
144.4
144.4
144.4
144.4
144.4
144.4
144.4
144.4
144.4
144.4
144.4
144.4
144.4
144.4
144.4
144.4
144.4
144.4
144.4
144.4
144.4
144.4
144.4
144.4
144.4
144.4
144.4
144.4
144.4
144.4
144.4
144.4
144.4
144.4
144.4
144.4
144.4
144.4
144.4
144.4
144.4
144.4
144.4
144.4
144.4
144.4
144.4
144.4
144.4
144.4
144.4
144.4
144.4
144.4
144.4
144.4
144.4
144.4
144.4
144.4
144.4
144.4
144.4
144.4
144.4
144.4
144.4
144.4
144.4
144.4
144.4
144.4
144.4
144.4
144.4
144.4
144.4
144.4
144.4
144.4
144.4
144.4
144.4
144.4
144.4
144.4
144.4
144.4
144.4
144.4
144.4
144.4
144.4
144.4
144.4
144.4
144.4
144.4
144.4
144.4
144.4
144.4
144.4
144.4
144.4
144.4
144.4
144.4
144.4
144.4
144.4
144.4
144.4
144.4
144.4
144.4
144.4
144.4
144.4
144.4
144.4
144.4
144.4
144.4
144.4
144.4
144.4
144.4
144.4
144.4
144.4
144.4
144.4
144.4
144.4
144.4
144.4
144.4
144.4
144.4
144.4
144.4
144.4
144.4
144.4
144.4
144.4
144.4
144.4
144.4
144.4
144.4
144.4
144.4
144.4
144.4
144.4
144.4
144.4
144.4
144.4
144.4
144.4
144.4
144.4
144.4
144.4
144.4
144.4
144.4
144.4
144.4
144.4
144.4
144.4
144.4
144.4
144.4
144.4
144.4
144.4
144.4
144.4
144.4
144.4
144.4
144.4
144.4
144.4
144.4
144.4
144.4
144.4
144.4
144.4
144.4
144.4
144.4
144.4
144.4
144.4
144.4
144.4
144.4
144.4
144.4
144.4
144.4
144.4
144.4
144.4
144.4
144.4
144.4
144.4
144.4
144.4
144.4
144.4
144.4
144.4
144.4
144.4
144.4
144.4
144.4
144.4
144.4
144.4
144.4
144.4
144.4
144.4
144.4
144.4
144.4
144.4
144.4
144.4
144.4
144.4
144.4
144.4
144.4
144.4
144.4
144.4
144.4
144.4
144.4
144.4
144.4
144.4
144.4
144.4
144.4
144.4
144.4
144.4
144.4
144.4
144.4
144.4
144.4
144.4
144.4
144.4
144.4
144.4
144.4
144.4
144.4
144.4
144.4
144.4
144.4
144.4
144.4
144.4
144.4
144.4
144.4
144.4
144.4
144.4
144.4
144.4
144.4
144.4
144.4
144.4
144.4
144.4
144.4
144.4
144.4
144.4
144.4
144.4
144.4
144.4
144.4
144.4
144.4
144.4
144.4
144.4
144.4
144.4
144.4
144.4
144.4
144.4
144.4
144.4
144.4
144.4
144.4
144.4
144.4
144.4
144.4
144.4
144.4
144.4
144.4
144.4
144.4
144.4
144.4
144.4
144.4
144.4
144.4
144.4
144.4
144.4
144.4
144.4
144.4
144.4
144.4
144.4
144.4
144.4
144.4
144.4
144.4
144.4
144.4
144.4
144.4
144.4
144.4
144.4
144.4
144.4
144.4
144.4
144.4
144.4
144.4
144.4
144.4
144.4
144.4
144.4
144.4
144.4
144.4
144.4
144.4
144.4
144.4
144.4
144.4
144.4
144.4
144.4
144.4
144.4
144.4
144.4
144.4
144.4
144.4
144.4
144.4
144.4
144.4
144.4
144.4
144.4
144.4
144.4
144.4
144.4
144.4
144.4
144.4
144.4
144.4
144.4
144.4
144.4
144.4
144.4
144.4
144.4
144.4
144.4
144.4
144.4
144.4
144.4
144.4
144.4
144.4
144.4
144.4
144.4
144.4
144.4
144.4
144.4
144.4
144.4
144.4
144.4
144.4
144.4
144.4
144.4
144.4
144.4
144.4
144.4
144.4
144.4
144.4
144.4
144.4
144.4
144.4
144.4
144.4
144.4
144.4
144.4
144.4
144.4
144.4
144.4
144.4
144.4
144.4
144.4
144.4
144.4
144.4
144.4
144.4
144.4
144.4
144.4
144.4
144.4
144.4
144.4
144.4
144.4
144.4
144.4
144.4
144.4
144.4
144.4
144.4
144.4
144.4
144.4
144.4
144.4
144.4
144.4
144.4
144.4
144.4
144.4
144.4
144.4
144.4
144.4
144.4
144.4
144.4
144.4
144.4
144.4
144.4
144.4
144.4
144.4
144.4
144.4
144.4
144.4
144.4
144.4
144.4
144.4
144.4
144.4
144.4
144.4
144.4
144.4
144.4
144.4
144.4
144.4
144.4
144.4
144.4
144.4
144.4
144.4
144.4
144.4
144.4
144.4
144.4
144.4
144.4
144.4
144.4
144.4
144.4
144.4
144.4
144.4
144.4
144.4
144.4
144.4
144.4
144.4
144.4
144.4
144.4
144.4
144.4
144.4
144.4
144.4
144.4
144.4
144.4
144.4
144.4
144.4
144.4
144.4
144.4
144.4
144.4
144.4
144.4
144.4
144.4
144.4
144.4
144.4
144.4
144.4
144.4
144.4
144.4
144.4
144.4
144.4
144.4
144.4
144.4
144.4
144.4
144.4
144.4
144.4
144.4
144.4
144.4
144.4
144.4
144.4
144.4
144.4
144.4
144.4
144.4
144.4
144.4
144.4
144.4
144.4
144.4
144.4
144.4
144.4
144.4
144.4
144.4
144.4
144.4
144.4
144.4
144.4
144.4
144.4
144.4
144.4
144.4
144.4
144.4
144.4
144.4
144.4
144.4
144.4
144.4
144.4
144.4
144.4
144.4
144.4
144.4
144.4
144.4
144.4
144.4
144.4
144.4
144.4
144.4
144.4
144.4
144.4
144.4
144.4
144.4
144.4
144.4
144.4
144.4
144.4
144.4
144.4
144.4
144.4
144.4
144.4
144.4
144.4
144.4
144.4
144.4
144.4
144.4
144.4
144.4
144.4
144.4
144.4
144.4
144.4
144.4
144.4
144.4
144.4
144.4
144.4
144.4
144.4
144.4
144.4
144.4
144.4
144.4
144.4
144.4
144.4
144.4
144.4
144.4
144.4
144.4
144.4
144.4
144.4
144.4
144.4
144.4
144.4
144.4
144.4
144.4
144.4
144.4
144.4
144.4
144.4
144.4
144.4
144.4
144.4
144.4
144.4
144.4
144.4
144.4
144.4
144.4
144.4
144.4
144.4
144.4
144.4
144.4
144.4
144.4
144.4
144.4
144.4
144.4
144.4
144.4
144.4
144.4
144.4
144.4
144.4
144.4
144.4
144.4
144.4
144.4
144.4
144.4
144.4
144.4
144.4
144.4
144.4
144.4
144.4
144.4
144.4
144.4
144.4
144.4
144.4
144.4
144.4
144.4
144.4
144.4
144.4
144.4
144.4
144.4
144.4
144.4
144.4
144.4
144.4
144.4
144.4
144.4
144.4
144.4
144.4
144.4
144.4
144.4
144.4
144.4
144.4
144.4
144.4
144.4
144.4
144.4
144.4
144.4
144.4
144.4
144.4
144.4
144.4
144.4
144.4
144.4
144.4
144.4
144.4
144.4
144.4
144.4
144.4
144.4
144.4
144.4
144.4
144.4
144.4
144.4
144.4
144.4
144.4
144.4
144.4
144.4
144.4
144.4
144.4
144.4
144.4
144.4
144.4
144.4
144.4
144.4
144.4
144.4
144.4
144.4
144.4
144.4
144.4
144.4
144.4
144.4
144.4
144.4
144.4
144.4
144.4
144.4
144.4
144.4
144.4
144.4
144.4
144.4
144.4
144.4
144.4
144.4
144.4
144.4
144.4
144.4
144.4
144.4
144.4
144.4
144.4
144.4
144.4
144.4
144.4
144.4
144.4
144.4
144.4
144.4
144.4
144.4
144.4
144.4
144.4
144.4
144.4
144.4
144.4
144.4
144.4
144.4
144.4
144.4
144.4
144.4
144.4
144.4
144.4
144.4
144.4
144.4
144.4
144.4
144.4
144.4
144.4
144.4
144.4
144.4
144.4
144.4
144.4
144.4
144.4
144.4
144.4
144.4
144.4
144.4
144.4
144.4
144.4
144.4
144.4
144.4
144.4
144.4
144.4
144.4
144.4
144.4
144.4
144.4
144.4
144.4
144.4
144.4
144.4
144.4
144.4
144.4
144.4
144.4
144.4
144.4
144.4
144.4
144.4
144.4
144.4
144.4
144.4
144.4
144.4
144.4
144.4
144.4
144.4
144.4
144.4
144.4
144.4
144.4
144.4
144.4
144.4
144.4
144.4
144.4
144.4
144.4
144.4
144.4
144.4
144.4
144.4
144.4
144.4
144.4
144.4
144.4
144.4
144.4
144.4
144.4
144.4
144.4
144.4
144.4
144.4
144.4
144.4
144.4
144.4
144.4
144.4
144.4
144.4
144.4
144.4
144.4
144.4
144.4
144.4
144.4
144.4
144.4
144.4
144.4
144.4
144.4
144.4
144.4
144.4
144.4
144.4
144.4
144.4
144.4
144.4
144.4
144.4
144.4
144.4
144.4
144.4
144.4
144.4
144.4
144.4
144.4
144.4
144.4
144.4
144.4
144.4
144.4
144.4
144.4
144.4
144.4
144.4
144.4
144.4
144.4
144.4
144.4
144.4
144.4
144.4
144.4
144.4
144.4
144.4
144.4
144.4
144.4
144.4
144.4
144.4
144.4
144.4
144.4
144.4
144.4
144.4
144.4
144.4
144.4
144.4
144.4
144.4
144.4
144.4
144.4
144.4
144.4
144.4
144.4
144.4
144.4
144.4
144.4
144.4
144.4
144.4
144.4
144.4
144.4
144.4
144.4
144.4
144.4
144.4
144.4
144.4
144.4
144.4
144.4
144.4
144.4
144.4
144.4
144.4
144.4
144.4
144.4
144.4
144.4
144.4
144.4
144.4
144.4
144.4
144.4
144.4
144.4
144.4
144.4
144.4
144.4
144.4
144.4
144.4
144.4
144.4
144.4
144.4
144.4
144.4
144.4
144.4
144.4
144.4
144.4
144.4
144.4
144.4
144.4
144.4
144.4
144.4
144.4
144.4
144.4
144.4
144.4
144.4
144.4
144.4
144.4
144.4
144.4
144.4
144.4
144.4
144.4
144.4
144.4
144.4
144.4
144.4
144.4
144.4
144.4
144.4
144.4
144.4
144.4
144.4
144.4
144.4
144.4
144.4
144.4
144.4
144.4
144.4
144.4
144.4
144.4
144.4
144.4
144.4
144.4
144.4
144.4
144.4
144.4
144.4
144.4
144.4
144.4
144.4
144.4
144.4
144.4
144.4
144.4
144.4
144.4
144.4
144.4
144.4
144.4
144.4
144.4
144.4
144.4
144.4
144.4
144.4
144.4
144.4
144.4
144.4
144.4
144.4
144.4
144.4
144.4
144.4
144.4
144.4
144.4
144.4
144.4
144.4
144.4
144.4
144.4
144.4
144.4
144.4
144.4
144.4
144.4
144.4
144.4
144.4
144.4
144.4
144.4
144.4
144.4
144.4
144.4
144.4
144.4
144.4
144.4
144.4
144.4
144.4
144.4
144.4
144.4
144.4
144.4
144.4
144.4
144.4
144.4
144.4
144.4
144.4
144.4
144.4
144.4
144.4
144.4
144.4
144.4
144.4
144.4
144.4
144.4
144.4
144.4
144.4
144.4
144.4
144.4
144.4
144.4
144.4
144.4
144.4
144.4
144.4
144.4
144.4
144.4
144.4
144.4
144.4
144.4
144.4
144.4
144.4
144.4
144.4
144.4
144.4
144.4
144.4
144.4
144.4
144.4
144.4
144.4
144.4
144.4
144.4
144.4
144.4
144.4
144.4
144.4
144.4
144.4
144.4
144.4
144.4
144.4
144.4
144.4
144.4
144.4
144.4
144.4
144.4
144.4
144.4
144.4
144.4
144.4
144.4
144.4
144.4
144.4
144.4
144.4
144.4
144.4
144.4
144.4
144.4
144.4
144.4
144.4
144.4
144.4
144.4
144.4
144.4
144.4
144.4
144.4
144.4
144.4
144.4
144.4
144.4
144.4
144.4
144.4
144.4
144.4
144.4
144.4
144.4
144.4
144.4
144.4
144.4
144.4
144.4
144.4
144.4
144.4
144.4
144.4
144.4
144.4
144.4
144.4
144.4
144.4
144.4
144.4
144.4
144.4
144.4
144.4
144.4
144.4
144.4
144.4
144.4
144.4
144.4
144.4
144.4
144.4
144.4
144.4
144.4
144.4
144.4
144.4
144.4
144.4
144.4
144.4
144.4
144.4
144.4
144.4
144.4
144.4
144.4
144.4
144.4
144.4
144.4
144.4
144.4
144.4
144.4
144.4
144.4
144.4
144.4
144.4
144.4
144.4
144.4
144.4
144.4
144.4
144.4
144.4
144.4
144.4
144.4
144.4
144.4
144.4
144.4
144.4
144.4
144.4
144.4
144.4
144.4
144.4
144.4
144.4
144.4
144.4
144.4
144.4
144.4
144.4
144.4
144.4
144.4
144.4
144.4
144.4
144.4
144.4
144.4
144.4
144.4
144.4
144.4
144.4
144.4
144.4
144.4
144.4
144.4
144.4
144.4
144.4
144.4
144.4
144.4
144.4
144.4
144.4
144.4
144.4
144.4
144.4
144.4
144.4
144.4
144.4
144.4
144.4
144.4
144.4
144.4
144.4
144.4
144.4
144.4
144.4
144.4
144.4
144.4
144.4
144.4
144.4
144.4
144.4
144.4
144.4
144.4
144.4
144.4
144.4
144.4
144.4
144.4
144.4
144.4
144.4
144.4
144.4
144.4
144.4
144.4
144.4
144.4
144.4
144.4
144.4
144.4
144.4
144.4
144.4
144.4
144.4
144.4
144.4
144.4
144.4
144.4
144.4
144.4
144.4
144.4
144.4
144.4
144.4
144.4
144.4
144.4
144.4
144.4
144.4
144.4
144.4
144.4
144.4
144.4
144.4
144.4
144.4
144.4
144.4
144.4
144.4
144.4
144.4
144.4
144.4
144.4
144.4
144.4
144.4
144.4
144.4
144.4
144.4
144.4
144.4
144.4
144.4
144.4
144.4
144.4
144.4
144.4
144.4
144.4
144.4
144.4
144.4
144.4
144.4
144.4
144.4
144.4
144.4
144.4
144.4
144.4
144.4
144.4
144.4
144.4
144.4
144.4
144.4
144.4
144.4
144.4
144.4
144.4
144.4
144.4
144.4
144.4
144.4
144.4
144.4
144.4
144.4
144.4
144.4
144.4
144.4
144.4
144.4
144.4
144.4
144.4
144.4
144.4
144.4
144.4
144.4
144.4
144.4
144.4
144.4
144.4
144.4
144.4
144.4
144.4
144.4
144.4
144.4
144.4
144.4
144.4
144.4
144.4
144.4
144.4
144.4
144.4
144.4
144.4
144.4
144.4
144.4
144.4
144.4
144.4
144.4
144.4
144.4
144.4
144.4
144.4
144.4
144.4
144.4
144.4
144.4
144.4
144.4
144.4
144.4
144.4
144.4
144.4
144.4
144.4
144.4
144.4
144.4
144.4
144.4
144.4
144.4
144.4
144.4
144.4
144.4
144.4
144.4
144.4
144.4
144.4
144.4
144.4
144.4
144.4
144.4
144.4
144.4
144.4
144.4
144.4
144.4
144.4
144.4
144.4
144.4
144.4
144.4
144.4
144.4
144.4
144.4
144.4
144.4
144.4
144.4
144.4
144.4
144.4
144.4
144.4
144.4
144.4
144.4
144.4
144.4
144.4
144.4
144.4
144.4
144.4
144.4
144.4
144.4
144.4
144.4
144.4
144.4
144.4
144.4
144.4
144.4
144.4
144.4
144.4
144.4
144.4
144.4
144.4
144.4
144.4
144.4
144.4
144.4
144.4
144.4
144.4
144.4
144.401
144.401
144.401
144.401
144.4
144.4
144.4
144.4
144.4
144.4
144.4
144.4
144.4
144.4
144.4
144.4
144.4
144.4
144.4
144.4
144.4
144.4
144.4
144.4
144.4
144.4
144.4
144.4
144.4
144.4
144.4
144.4
144.4
144.4
144.4
144.4
144.4
144.4
144.4
144.4
144.4
144.4
144.4
144.4
144.4
144.4
144.4
144.4
144.4
144.4
144.4
144.4
144.4
144.4
144.4
144.4
144.4
144.4
144.4
144.4
144.4
144.4
144.4
144.4
144.4
144.4
144.4
144.4
144.4
144.4
144.4
144.4
144.4
144.4
144.4
144.4
144.4
144.4
144.4
144.4
144.4
144.4
144.4
144.4
144.4
144.4
144.4
144.4
144.4
144.4
144.4
144.4
144.4
144.4
144.4
144.4
144.4
144.4
144.4
144.4
144.4
144.4
144.4
144.4
144.4
144.4
144.4
144.4
144.4
144.4
144.401
144.401
144.401
144.401
144.401
144.401
144.401
144.402
144.402
144.402
144.402
144.403
144.403
144.404
144.404
144.405
144.406
144.4
144.4
144.4
144.4
144.4
144.4
144.4
144.4
144.4
144.4
144.4
144.4
144.4
144.4
144.4
144.4
144.4
144.4
144.4
144.4
144.4
144.4
144.4
144.4
144.4
144.4
144.4
144.4
144.4
144.4
144.4
144.4
144.401
144.401
144.401
144.401
144.401
144.401
144.401
144.401
144.401
144.401
144.401
144.401
144.401
144.401
144.401
144.401
144.401
144.401
144.401
144.401
144.401
144.401
144.401
144.401
144.401
144.401
144.401
144.401
144.401
144.401
144.4
144.4
144.4
144.4
144.4
144.4
144.4
144.4
144.4
144.4
144.4
144.4
144.4
144.4
144.4
144.4
144.4
144.4
144.4
144.4
144.4
144.4
144.4
144.4
144.4
144.4
144.4
144.4
144.4
144.4
144.4
144.4
144.4
144.4
144.401
144.401
144.401
144.401
144.401
144.401
144.402
144.402
144.403
144.403
144.404
144.404
144.405
144.406
144.407
144.408
144.41
144.411
144.413
144.415
144.417
144.419
144.422
144.425
144.429
144.433
144.438
144.443
144.45
144.4
144.4
144.4
144.4
144.4
144.4
144.4
144.4
144.4
144.4
144.4
144.4
144.4
144.4
144.4
144.4
144.4
144.401
144.401
144.401
144.401
144.401
144.401
144.401
144.401
144.402
144.402
144.402
144.402
144.403
144.403
144.403
144.403
144.403
144.404
144.404
144.404
144.404
144.404
144.405
144.405
144.405
144.405
144.405
144.405
144.405
144.405
144.405
144.405
144.405
144.405
144.405
144.405
144.404
144.404
144.404
144.404
144.404
144.404
144.403
144.403
144.403
144.403
144.403
144.403
144.402
144.402
144.402
144.402
144.402
144.402
144.402
144.402
144.401
144.401
144.401
144.401
144.401
144.401
144.401
144.401
144.401
144.401
144.401
144.401
144.401
144.401
144.401
144.401
144.401
144.401
144.402
144.402
144.402
144.402
144.403
144.403
144.404
144.405
144.406
144.407
144.409
144.411
144.414
144.417
144.42
144.424
144.429
144.434
144.44
144.447
144.454
144.463
144.472
144.482
144.493
144.506
144.52
144.535
144.553
144.574
144.596
144.622
144.651
144.684
144.4
144.4
144.4
144.4
144.4
144.4
144.4
144.4
144.401
144.401
144.401
144.401
144.401
144.402
144.402
144.402
144.403
144.403
144.404
144.405
144.406
144.406
144.407
144.408
144.409
144.411
144.412
144.413
144.414
144.416
144.417
144.418
144.42
144.421
144.422
144.423
144.425
144.426
144.427
144.427
144.428
144.429
144.429
144.429
144.429
144.429
144.429
144.429
144.429
144.428
144.428
144.427
144.426
144.425
144.424
144.423
144.423
144.422
144.421
144.42
144.419
144.418
144.417
144.416
144.415
144.414
144.413
144.412
144.412
144.411
144.41
144.41
144.409
144.409
144.408
144.408
144.407
144.407
144.407
144.406
144.406
144.406
144.406
144.406
144.406
144.406
144.406
144.407
144.407
144.408
144.408
144.409
144.411
144.412
144.414
144.417
144.421
144.425
144.43
144.437
144.446
144.456
144.468
144.483
144.5
144.519
144.541
144.567
144.594
144.625
144.659
144.695
144.735
144.777
144.824
144.874
144.928
144.987
145.052
145.123
145.201
145.287
145.381
145.483
145.595
144.4
144.4
144.401
144.401
144.401
144.401
144.402
144.402
144.403
144.404
144.405
144.406
144.407
144.409
144.411
144.413
144.415
144.418
144.421
144.425
144.429
144.434
144.439
144.444
144.45
144.456
144.463
144.469
144.476
144.483
144.49
144.497
144.504
144.511
144.518
144.524
144.53
144.535
144.54
144.544
144.548
144.551
144.553
144.555
144.556
144.556
144.556
144.555
144.553
144.551
144.548
144.545
144.541
144.537
144.533
144.528
144.524
144.519
144.514
144.509
144.503
144.498
144.493
144.489
144.484
144.479
144.475
144.471
144.467
144.463
144.459
144.456
144.453
144.45
144.447
144.445
144.443
144.441
144.439
144.438
144.436
144.435
144.435
144.435
144.435
144.435
144.436
144.437
144.439
144.441
144.444
144.449
144.455
144.462
144.471
144.483
144.497
144.515
144.538
144.565
144.599
144.639
144.686
144.741
144.804
144.875
144.955
145.042
145.137
145.239
145.347
145.461
145.58
145.704
145.834
145.969
146.11
146.259
146.416
146.583
146.76
146.949
147.151
147.365
147.593
147.833
144.402
144.403
144.404
144.405
144.407
144.409
144.411
144.414
144.418
144.423
144.429
144.435
144.444
144.453
144.464
144.477
144.491
144.507
144.525
144.545
144.567
144.59
144.615
144.641
144.669
144.697
144.726
144.756
144.786
144.816
144.845
144.873
144.901
144.927
144.951
144.974
144.995
145.013
145.03
145.044
145.055
145.064
145.07
145.074
145.075
145.074
145.07
145.065
145.057
145.048
145.036
145.023
145.009
144.993
144.976
144.958
144.939
144.919
144.9
144.88
144.86
144.84
144.82
144.8
144.781
144.763
144.745
144.727
144.71
144.694
144.679
144.665
144.652
144.64
144.628
144.618
144.609
144.601
144.593
144.587
144.582
144.578
144.575
144.575
144.576
144.578
144.581
144.587
144.595
144.607
144.622
144.642
144.666
144.698
144.736
144.783
144.84
144.908
144.99
145.086
145.199
145.328
145.475
145.639
145.821
146.019
146.23
146.454
146.688
146.93
147.177
147.429
147.683
147.939
148.196
148.454
148.715
148.979
149.248
149.521
149.802
150.089
150.384
150.687
150.999
151.318
151.645
151.98
144.413
144.418
144.424
144.431
144.441
144.453
144.468
144.486
144.509
144.535
144.566
144.602
144.644
144.691
144.744
144.803
144.867
144.936
145.01
145.088
145.171
145.256
145.343
145.431
145.52
145.609
145.697
145.783
145.867
145.947
146.024
146.097
146.164
146.227
146.284
146.335
146.381
146.421
146.454
146.481
146.502
146.517
146.526
146.528
146.525
146.518
146.504
146.485
146.462
146.435
146.403
146.367
146.328
146.286
146.241
146.193
146.143
146.092
146.039
145.986
145.932
145.878
145.823
145.77
145.716
145.664
145.613
145.562
145.514
145.467
145.422
145.379
145.339
145.301
145.266
145.234
145.205
145.179
145.156
145.136
145.12
145.106
145.098
145.098
145.1
145.107
145.118
145.137
145.164
145.199
145.246
145.304
145.377
145.465
145.57
145.695
145.843
146.015
146.215
146.442
146.697
146.979
147.288
147.621
147.976
148.348
148.731
149.119
149.507
149.89
150.264
150.627
150.978
151.318
151.649
151.973
152.293
152.613
152.936
153.263
153.596
153.937
154.285
154.641
155.005
155.375
155.751
156.132
144.481
144.508
144.541
144.583
144.634
144.696
144.769
144.855
144.954
145.065
145.19
145.327
145.476
145.636
145.805
145.981
146.162
146.347
146.536
146.725
146.915
147.102
147.286
147.465
147.638
147.806
147.965
148.117
148.26
148.394
148.518
148.632
148.736
148.83
148.914
148.988
149.051
149.105
149.15
149.184
149.208
149.223
149.227
149.224
149.213
149.194
149.165
149.127
149.083
149.033
148.976
148.912
148.842
148.766
148.686
148.6
148.511
148.418
148.323
148.226
148.127
148.026
147.925
147.823
147.722
147.622
147.522
147.423
147.326
147.232
147.14
147.052
146.969
146.889
146.815
146.746
146.684
146.627
146.575
146.531
146.495
146.463
146.442
146.441
146.446
146.459
146.483
146.522
146.578
146.652
146.746
146.865
147.008
147.178
147.377
147.606
147.869
148.168
148.503
148.873
149.275
149.706
150.16
150.633
151.118
151.609
152.102
152.592
153.073
153.542
153.995
154.429
154.843
155.239
155.619
155.986
156.344
156.699
157.053
157.411
157.773
158.142
158.518
158.901
159.291
159.687
160.088
160.493
144.836
144.958
145.103
145.271
145.463
145.679
145.917
146.175
146.45
146.738
147.037
147.344
147.657
147.973
148.289
148.601
148.908
149.208
149.499
149.783
150.056
150.319
150.571
150.811
151.038
151.255
151.459
151.65
151.829
151.993
152.142
152.277
152.396
152.5
152.59
152.664
152.725
152.773
152.809
152.833
152.84
152.838
152.828
152.809
152.78
152.741
152.692
152.633
152.567
152.495
152.416
152.33
152.237
152.136
152.03
151.918
151.801
151.68
151.556
151.429
151.299
151.167
151.033
150.897
150.761
150.624
150.488
150.351
150.215
150.081
149.95
149.823
149.7
149.582
149.47
149.365
149.269
149.18
149.099
149.028
148.968
148.914
148.875
148.87
148.875
148.891
148.924
148.978
149.056
149.158
149.29
149.454
149.649
149.877
150.14
150.44
150.78
151.16
151.582
152.041
152.537
153.065
153.618
154.189
154.768
155.349
155.924
156.487
157.033
157.557
158.057
158.531
158.979
159.405
159.81
160.199
160.576
160.948
161.317
161.688
162.064
162.445
162.833
163.227
163.628
164.035
164.446
164.861
165.277
146.499
146.879
147.281
147.701
148.136
148.581
149.032
149.482
149.926
150.363
150.791
151.211
151.622
152.021
152.408
152.78
153.137
153.478
153.803
154.112
154.402
154.672
154.919
155.145
155.352
155.539
155.709
155.864
156.005
156.132
156.244
156.344
156.431
156.503
156.563
156.61
156.645
156.668
156.675
156.672
156.659
156.637
156.606
156.566
156.515
156.454
156.382
156.303
156.218
156.127
156.028
155.922
155.808
155.686
155.558
155.426
155.289
155.149
155.005
154.857
154.707
154.554
154.399
154.243
154.086
153.928
153.77
153.613
153.457
153.304
153.154
153.01
152.871
152.739
152.615
152.501
152.394
152.297
152.212
152.137
152.07
152.02
152.011
152.016
152.032
152.066
152.126
152.213
152.328
152.478
152.664
152.886
153.145
153.446
153.792
154.184
154.621
155.104
155.627
156.189
156.783
157.403
158.037
158.678
159.315
159.941
160.549
161.132
161.687
162.212
162.705
163.17
163.608
164.023
164.42
164.805
165.181
165.556
165.931
166.31
166.695
167.086
167.484
167.888
168.296
168.709
169.123
169.539
149.643
150.228
150.808
151.379
151.942
152.495
153.039
153.572
154.085
154.577
155.048
155.5
155.933
156.345
156.733
157.094
157.427
157.735
158.024
158.296
158.554
158.795
159.019
159.225
159.412
159.582
159.735
159.873
159.997
160.108
160.205
160.289
160.361
160.419
160.465
160.501
160.523
160.53
160.528
160.516
160.494
160.464
160.426
160.378
160.32
160.251
160.173
160.087
159.996
159.899
159.795
159.683
159.563
159.435
159.301
159.162
159.019
158.873
158.722
158.568
158.411
158.251
158.089
157.925
157.761
157.595
157.429
157.263
157.098
156.936
156.778
156.625
156.477
156.336
156.204
156.082
155.968
155.864
155.772
155.69
155.617
155.564
155.554
155.559
155.574
155.611
155.674
155.767
155.891
156.051
156.247
156.481
156.758
157.08
157.452
157.873
158.344
158.861
159.422
160.023
160.657
161.316
161.988
162.663
163.333
163.986
164.617
165.217
165.786
166.319
166.82
167.288
167.729
168.145
168.542
168.925
169.301
169.675
170.049
170.427
170.81
171.199
171.594
171.994
172.399
172.806
173.215
173.625
154.512
155.158
155.779
156.374
156.946
157.495
158.02
158.518
158.982
159.413
159.817
160.201
160.569
160.919
161.248
161.552
161.833
162.095
162.341
162.572
162.788
162.988
163.171
163.338
163.489
163.625
163.747
163.856
163.953
164.036
164.107
164.166
164.212
164.246
164.272
164.28
164.278
164.269
164.25
164.222
164.186
164.142
164.09
164.026
163.954
163.872
163.784
163.691
163.592
163.487
163.374
163.252
163.123
162.988
162.849
162.707
162.561
162.411
162.257
162.1
161.941
161.78
161.617
161.453
161.288
161.123
160.958
160.794
160.632
160.475
160.323
160.176
160.036
159.905
159.784
159.672
159.569
159.478
159.397
159.325
159.278
159.271
159.276
159.293
159.333
159.401
159.5
159.631
159.796
159.998
160.238
160.523
160.857
161.242
161.679
162.166
162.702
163.283
163.905
164.559
165.237
165.927
166.619
167.301
167.964
168.599
169.203
169.771
170.302
170.799
171.262
171.697
172.107
172.499
172.878
173.249
173.618
173.987
174.36
174.737
175.12
175.508
175.901
176.297
176.695
177.094
177.493
159.666
160.254
160.804
161.318
161.805
162.271
162.719
163.141
163.535
163.903
164.251
164.582
164.898
165.194
165.468
165.724
165.963
166.186
166.394
166.587
166.765
166.927
167.074
167.208
167.328
167.436
167.532
167.614
167.684
167.743
167.791
167.826
167.851
167.865
167.865
167.858
167.842
167.817
167.784
167.744
167.695
167.638
167.572
167.497
167.414
167.326
167.232
167.133
167.028
166.915
166.794
166.667
166.535
166.4
166.261
166.118
165.973
165.823
165.671
165.517
165.361
165.204
165.045
164.887
164.728
164.57
164.413
164.259
164.109
163.964
163.825
163.693
163.57
163.456
163.352
163.258
163.174
163.1
163.037
163.004
163.002
163.01
163.032
163.079
163.155
163.261
163.399
163.57
163.778
164.025
164.316
164.657
165.05
165.495
165.99
166.534
167.124
167.752
168.413
169.095
169.788
170.479
171.158
171.814
172.442
173.035
173.592
174.111
174.595
175.046
175.47
175.869
176.252
176.622
176.986
177.347
177.708
178.073
178.442
178.815
179.193
179.574
179.958
180.343
180.729
181.114
181.498
181.881
163.901
164.429
164.929
165.397
165.839
166.261
166.664
167.046
167.405
167.742
168.061
168.363
168.648
168.914
169.163
169.395
169.612
169.814
170.001
170.174
170.332
170.476
170.607
170.725
170.83
170.924
171.006
171.075
171.133
171.182
171.219
171.244
171.26
171.263
171.258
171.245
171.223
171.192
171.154
171.108
171.055
170.994
170.925
170.849
170.766
170.677
170.584
170.484
170.379
170.267
170.149
170.026
169.898
169.767
169.634
169.497
169.358
169.215
169.07
168.924
168.776
168.627
168.478
168.33
168.181
168.034
167.888
167.745
167.607
167.474
167.347
167.228
167.118
167.017
166.926
166.844
166.773
166.711
166.665
166.651
166.654
166.667
166.7
166.759
166.845
166.961
167.108
167.288
167.504
167.759
168.059
168.407
168.805
169.253
169.751
170.297
170.886
171.512
172.167
172.841
173.522
174.199
174.861
175.499
176.106
176.678
177.214
177.713
178.178
178.611
179.018
179.404
179.774
180.133
180.487
180.838
181.189
181.544
181.901
182.263
182.627
182.995
183.364
183.734
184.103
184.472
184.839
185.205
167.841
168.319
168.773
169.202
169.608
169.994
170.362
170.709
171.037
171.347
171.639
171.914
172.173
172.415
172.641
172.852
173.048
173.23
173.398
173.551
173.692
173.819
173.934
174.037
174.128
174.208
174.276
174.332
174.379
174.417
174.443
174.458
174.462
174.459
174.447
174.427
174.399
174.362
174.318
174.266
174.208
174.143
174.072
173.994
173.91
173.821
173.727
173.627
173.522
173.412
173.297
173.178
173.055
172.93
172.803
172.673
172.541
172.406
172.27
172.133
171.995
171.857
171.72
171.583
171.448
171.313
171.182
171.053
170.93
170.812
170.701
170.598
170.504
170.42
170.345
170.28
170.225
170.181
170.159
170.159
170.169
170.196
170.244
170.318
170.418
170.546
170.704
170.896
171.123
171.389
171.699
172.053
172.455
172.905
173.402
173.943
174.525
175.14
175.78
176.435
177.094
177.744
178.378
178.987
179.564
180.107
180.615
181.087
181.528
181.94
182.328
182.697
183.052
183.398
183.739
184.079
184.418
184.76
185.105
185.452
185.802
186.153
186.506
186.858
187.21
187.56
187.909
188.256
171.95
172.366
172.761
173.135
173.491
173.829
174.148
174.449
174.733
175
175.251
175.487
175.706
175.911
176.102
176.278
176.44
176.589
176.725
176.848
176.959
177.058
177.145
177.221
177.287
177.341
177.385
177.42
177.446
177.459
177.461
177.459
177.448
177.427
177.399
177.364
177.32
177.269
177.212
177.149
177.08
177.005
176.925
176.839
176.748
176.653
176.553
176.449
176.341
176.229
176.114
175.997
175.878
175.757
175.635
175.511
175.385
175.259
175.132
175.005
174.88
174.756
174.633
174.512
174.393
174.276
174.164
174.058
173.958
173.865
173.78
173.705
173.64
173.584
173.539
173.503
173.484
173.484
173.494
173.52
173.564
173.631
173.723
173.839
173.981
174.153
174.358
174.599
174.878
175.197
175.558
175.963
176.411
176.903
177.436
178.004
178.601
179.218
179.845
180.472
181.088
181.685
182.257
182.798
183.306
183.781
184.223
184.637
185.025
185.392
185.742
186.081
186.413
186.74
187.066
187.392
187.72
188.05
188.382
188.715
189.049
189.383
189.717
190.049
190.38
190.71
191.037
175.35
175.735
176.1
176.446
176.775
177.085
177.378
177.655
177.914
178.158
178.386
178.599
178.797
178.981
179.151
179.307
179.45
179.58
179.698
179.803
179.897
179.979
180.051
180.112
180.162
180.202
180.232
180.255
180.265
180.265
180.26
180.247
180.226
180.196
180.159
180.116
180.065
180.006
179.943
179.874
179.801
179.723
179.639
179.551
179.457
179.361
179.261
179.158
179.052
178.944
178.834
178.722
178.609
178.495
178.381
178.265
178.15
178.034
177.918
177.804
177.692
177.582
177.474
177.369
177.266
177.166
177.072
176.984
176.903
176.829
176.765
176.71
176.666
176.631
176.607
176.597
176.599
176.613
176.642
176.688
176.754
176.841
176.951
177.084
177.242
177.43
177.651
177.906
178.196
178.524
178.89
179.296
179.742
180.225
180.745
181.294
181.867
182.454
183.046
183.635
184.211
184.766
185.296
185.797
186.267
186.707
187.117
187.502
187.865
188.21
188.542
188.863
189.179
189.491
189.802
190.114
190.426
190.74
191.055
191.37
191.686
192.001
192.315
192.628
192.939
193.248
193.554
193.859
194.161
178.544
178.9
179.238
179.558
179.86
180.145
180.413
180.665
180.901
181.122
181.327
181.517
181.694
181.856
182.005
182.141
182.264
182.375
182.473
182.56
182.636
182.701
182.756
182.801
182.835
182.86
182.876
182.882
182.879
182.869
182.852
182.828
182.795
182.755
182.709
182.656
182.597
182.531
182.461
182.387
182.309
182.226
182.139
182.048
181.953
181.855
181.756
181.654
181.551
181.447
181.341
181.236