/*--------------------------------*- C++ -*----------------------------------*\
| =========                 |                                                 |
| \\      /  F ield         | OpenFOAM: The Open Source CFD Toolbox           |
|  \\    /   O peration     | Version:  v1706                                 |
|   \\  /    A nd           | Web:      www.OpenFOAM.com                      |
|    \\/     M anipulation  |                                                 |
\*---------------------------------------------------------------------------*/
FoamFile
{
    version     2.0;
    format      ascii;
    class       volVectorField;
    location    "6e-06";
    object      U;
}
// * * * * * * * * * * * * * * * * * * * * * * * * * * * * * * * * * * * * * //

dimensions      [0 1 -1 0 0 0 0];


internalField   nonuniform List<vector> 
29871
(
(2764.5 -3.93897e-11 6.33469e-15)
(2764.5 -3.57225e-11 4.64283e-15)
(2764.5 -2.86587e-11 5.00825e-15)
(2764.5 -1.8001e-11 3.59274e-15)
(2764.5 -1.3129e-11 1.24956e-15)
(2764.5 -1.13854e-11 1.67392e-15)
(2764.5 -1.09892e-11 2.56036e-15)
(2764.5 -1.41552e-11 2.64858e-15)
(2764.5 -1.93893e-11 3.19146e-15)
(2764.5 -2.90843e-11 3.62271e-15)
(2764.5 -4.39757e-11 3.10491e-15)
(2764.5 -5.81447e-11 6.70849e-15)
(2764.5 -7.45001e-11 4.72879e-15)
(2764.5 -8.70544e-11 5.19906e-15)
(2764.5 -9.43512e-11 4.75309e-15)
(2764.5 -9.53062e-11 2.31895e-15)
(2764.5 -9.55672e-11 2.73712e-15)
(2764.5 -9.31443e-11 3.67858e-15)
(2764.5 -8.809e-11 5.14106e-15)
(2764.5 -7.63676e-11 5.19328e-15)
(2764.5 -6.37798e-11 3.05374e-15)
(2764.5 -5.61622e-11 4.15282e-15)
(2764.5 -3.8973e-11 2.053e-15)
(2764.5 -2.34726e-11 3.07405e-15)
(2764.5 -1.37992e-11 5.16064e-15)
(2764.5 -3.24425e-13 3.28423e-15)
(2764.5 1.88625e-11 7.12149e-15)
(2764.5 3.46428e-11 4.30997e-15)
(2764.5 4.18031e-11 3.26342e-16)
(2764.5 4.70416e-11 4.14814e-15)
(2764.5 5.2118e-11 4.14433e-15)
(2764.5 5.36573e-11 2.08685e-15)
(2764.5 5.23298e-11 3.3636e-15)
(2764.5 5.21749e-11 5.79606e-15)
(2764.5 5.06317e-11 3.75503e-15)
(2764.5 4.47872e-11 2.94309e-16)
(2764.5 4.0019e-11 -4.32077e-16)
(2764.5 3.65371e-11 2.09257e-15)
(2764.5 3.46593e-11 2.72557e-15)
(2764.5 2.99847e-11 3.24486e-15)
(2764.5 2.7109e-11 4.49826e-15)
(2764.5 2.41562e-11 5.06655e-15)
(2764.5 2.0919e-11 5.4352e-15)
(2764.5 1.67084e-11 3.03021e-15)
(2764.5 9.88062e-12 2.6331e-15)
(2764.5 5.20948e-12 3.1811e-15)
(2764.5 1.8542e-12 1.59196e-15)
(2764.5 -2.12341e-12 -5.21307e-16)
(2764.5 -1.58646e-12 2.5666e-16)
(2764.5 1.8126e-13 3.33667e-15)
(2764.5 1.92726e-12 3.14652e-15)
(2764.5 2.22037e-12 8.54462e-16)
(2764.5 5.12436e-13 9.10519e-16)
(2764.5 -2.10053e-12 3.07775e-15)
(2764.5 -3.04719e-12 3.12581e-15)
(2764.5 -2.85906e-12 3.07085e-15)
(2764.5 3.58163e-13 3.74653e-15)
(2764.5 2.77041e-12 4.72411e-15)
(2764.5 2.53923e-12 4.35366e-15)
(2764.5 4.08454e-12 2.94421e-15)
(2764.5 5.95358e-12 1.20001e-15)
(2764.5 7.37785e-12 8.21508e-16)
(2764.5 9.84484e-12 1.77633e-15)
(2764.5 1.14157e-11 -1.51072e-15)
(2764.5 1.5047e-11 2.44315e-15)
(2764.5 1.88438e-11 4.40817e-15)
(2764.5 2.17875e-11 2.7123e-15)
(2764.5 2.35832e-11 2.20878e-15)
(2764.5 2.97271e-11 8.93365e-16)
(2764.5 3.18099e-11 1.18477e-15)
(2764.5 3.29752e-11 2.57864e-15)
(2764.5 3.26511e-11 3.04688e-15)
(2764.5 3.47137e-11 1.43906e-15)
(2764.5 3.96282e-11 2.01091e-15)
(2764.5 4.29161e-11 2.13934e-15)
(2764.5 4.29766e-11 3.60355e-15)
(2764.5 4.25434e-11 1.36734e-15)
(2764.5 4.24217e-11 1.68934e-15)
(2764.5 4.21314e-11 2.02603e-15)
(2764.5 4.21315e-11 3.69634e-15)
(2764.5 4.32344e-11 3.78753e-15)
(2764.5 4.70637e-11 3.4667e-15)
(2764.5 5.32718e-11 3.67012e-15)
(2764.5 5.57994e-11 3.07314e-15)
(2764.5 5.3776e-11 4.20836e-15)
(2764.5 5.00481e-11 3.20228e-15)
(2764.5 4.61155e-11 2.32022e-15)
(2764.5 3.58331e-11 3.41514e-15)
(2764.5 2.18516e-11 4.23558e-15)
(2764.5 8.56138e-12 2.88671e-15)
(2764.5 -2.24031e-12 3.13185e-15)
(2764.5 -2.41138e-11 1.44922e-15)
(2764.5 -4.72242e-11 1.76923e-15)
(2764.5 -6.40161e-11 2.80344e-15)
(2764.5 -8.18322e-11 1.73663e-15)
(2764.5 -1.03983e-10 1.01246e-15)
(2764.5 -1.23483e-10 1.07649e-15)
(2764.5 -1.41635e-10 1.4376e-15)
(2764.5 -1.61195e-10 2.12691e-15)
(2764.5 -1.76059e-10 1.5731e-15)
(2764.5 -1.86846e-10 3.99783e-15)
(2764.5 -1.94643e-10 3.74297e-15)
(2764.5 -2.01951e-10 2.9124e-16)
(2764.5 -2.09143e-10 2.12533e-15)
(2764.5 -2.19387e-10 3.84431e-16)
(2764.5 -9.63283e-11 1.11636e-14)
(2764.5 -1.06782e-10 1.05872e-14)
(2764.5 -1.25302e-10 1.16945e-14)
(2764.5 -1.501e-10 1.23129e-14)
(2764.5 -1.68754e-10 1.01806e-14)
(2764.5 -1.87317e-10 1.35444e-14)
(2764.5 -1.994e-10 1.38569e-14)
(2764.5 -1.98617e-10 1.20321e-14)
(2764.5 -1.91288e-10 1.27895e-14)
(2764.5 -1.79713e-10 1.26628e-14)
(2764.5 -1.55522e-10 1.25019e-14)
(2764.5 -1.22217e-10 1.07039e-14)
(2764.5 -8.28977e-11 1.39873e-14)
(2764.5 -4.11357e-11 1.06846e-14)
(2764.5 -1.1591e-11 6.11158e-15)
(2764.5 1.32682e-11 8.40024e-15)
(2764.5 3.20841e-11 1.17422e-14)
(2764.5 4.64893e-11 1.15907e-14)
(2764.5 6.00644e-11 9.85471e-15)
(2764.5 5.69464e-11 7.13514e-15)
(2764.5 4.59564e-11 6.98155e-15)
(2764.5 2.20193e-11 9.7103e-15)
(2764.5 -1.14171e-11 1.0877e-14)
(2764.5 -4.56865e-11 1.2163e-14)
(2764.5 -7.08848e-11 9.523e-15)
(2764.5 -1.139e-10 9.0113e-15)
(2764.5 -1.64039e-10 1.05848e-14)
(2764.5 -2.07032e-10 9.04727e-15)
(2764.5 -2.3071e-10 9.90475e-15)
(2764.5 -2.6012e-10 8.6807e-15)
(2764.5 -2.88025e-10 1.27637e-14)
(2764.5 -3.11071e-10 6.13601e-15)
(2764.5 -3.23768e-10 6.9283e-15)
(2764.5 -3.4117e-10 1.34658e-14)
(2764.5 -3.53169e-10 1.17777e-14)
(2764.5 -3.62272e-10 1.29574e-14)
(2764.5 -3.71528e-10 8.01758e-15)
(2764.5 -3.80667e-10 1.20525e-14)
(2764.5 -3.83752e-10 1.096e-14)
(2764.5 -3.81179e-10 1.15544e-14)
(2764.5 -3.76971e-10 1.27162e-14)
(2764.5 -3.74397e-10 1.02752e-14)
(2764.5 -3.77763e-10 1.08841e-14)
(2764.5 -3.72411e-10 1.06205e-14)
(2764.5 -3.68201e-10 1.03716e-14)
(2764.5 -3.63035e-10 1.0038e-14)
(2764.5 -3.57585e-10 1.22089e-14)
(2764.5 -3.52844e-10 6.06835e-15)
(2764.5 -3.54556e-10 1.15863e-14)
(2764.5 -3.52176e-10 1.03029e-14)
(2764.5 -3.52811e-10 7.81598e-15)
(2764.5 -3.50103e-10 1.09028e-14)
(2764.5 -3.47678e-10 1.17199e-14)
(2764.5 -3.47545e-10 1.01021e-14)
(2764.5 -3.46928e-10 9.50912e-15)
(2764.5 -3.4639e-10 9.66432e-15)
(2764.5 -3.46045e-10 1.14824e-14)
(2764.5 -3.46643e-10 1.17954e-14)
(2764.5 -3.44848e-10 8.72612e-15)
(2764.5 -3.45931e-10 5.56245e-15)
(2764.5 -3.47158e-10 9.131e-15)
(2764.5 -3.50503e-10 5.39948e-15)
(2764.5 -3.46437e-10 7.34744e-15)
(2764.5 -3.48574e-10 6.26126e-15)
(2764.5 -3.50396e-10 7.2201e-15)
(2764.5 -3.48941e-10 8.6276e-15)
(2764.5 -3.49914e-10 6.22267e-15)
(2764.5 -3.42694e-10 6.5222e-15)
(2764.5 -3.44124e-10 1.20282e-14)
(2764.5 -3.37824e-10 5.17398e-15)
(2764.5 -3.28671e-10 1.08624e-14)
(2764.5 -3.22041e-10 7.992e-15)
(2764.5 -3.23316e-10 3.29545e-15)
(2764.5 -3.23089e-10 9.01657e-15)
(2764.5 -3.18566e-10 7.30786e-15)
(2764.5 -3.14212e-10 6.7261e-15)
(2764.5 -3.14329e-10 5.88514e-15)
(2764.5 -3.15628e-10 6.83575e-15)
(2764.5 -3.18319e-10 6.42946e-15)
(2764.5 -3.23351e-10 9.37897e-15)
(2764.5 -3.27343e-10 9.1176e-15)
(2764.5 -3.41719e-10 7.83897e-15)
(2764.5 -3.57563e-10 7.51505e-15)
(2764.5 -3.71762e-10 8.21678e-15)
(2764.5 -3.75943e-10 9.61596e-15)
(2764.5 -3.83506e-10 1.01803e-14)
(2764.5 -3.87901e-10 1.11426e-14)
(2764.5 -3.82187e-10 9.59708e-15)
(2764.5 -3.7974e-10 1.07071e-14)
(2764.5 -3.78107e-10 1.10742e-14)
(2764.5 -3.65963e-10 1.08179e-14)
(2764.5 -3.35902e-10 7.05894e-15)
(2764.5 -3.17658e-10 1.1944e-14)
(2764.5 -2.92997e-10 1.2071e-14)
(2764.5 -2.5574e-10 1.01982e-14)
(2764.5 -2.27212e-10 9.93454e-15)
(2764.5 -1.83335e-10 9.88048e-15)
(2764.5 -1.37432e-10 1.13483e-14)
(2764.5 -9.18877e-11 1.19716e-14)
(2764.5 -4.54176e-11 6.85018e-15)
(2764.5 -1.68257e-12 7.93367e-15)
(2764.5 4.14807e-11 1.21709e-14)
(2764.5 9.34856e-11 9.07486e-15)
(2764.5 1.32425e-10 1.05626e-14)
(2764.5 1.87164e-10 8.07399e-15)
(2764.5 -2.67854e-10 2.36519e-14)
(2764.5 -2.65458e-10 2.37199e-14)
(2764.5 -2.57016e-10 1.68506e-14)
(2764.5 -2.37054e-10 2.0144e-14)
(2764.5 -2.17715e-10 2.34849e-14)
(2764.5 -1.86361e-10 1.94646e-14)
(2764.5 -1.46341e-10 2.05404e-14)
(2764.5 -1.04202e-10 1.86345e-14)
(2764.5 -8.41016e-11 2.2418e-14)
(2764.5 -6.2463e-11 2.03688e-14)
(2764.5 -5.75125e-11 1.83796e-14)
(2764.5 -6.06878e-11 1.60176e-14)
(2764.5 -7.21958e-11 1.34706e-14)
(2764.5 -9.58224e-11 1.60146e-14)
(2764.5 -1.27549e-10 1.73447e-14)
(2764.5 -1.78056e-10 1.79597e-14)
(2764.5 -2.43324e-10 1.63435e-14)
(2764.5 -2.85096e-10 1.76778e-14)
(2764.5 -3.34014e-10 1.58572e-14)
(2764.5 -3.888e-10 1.61143e-14)
(2764.5 -4.274e-10 1.72228e-14)
(2764.5 -4.50629e-10 1.3584e-14)
(2764.5 -4.63294e-10 1.48906e-14)
(2764.5 -4.70238e-10 2.04755e-14)
(2764.5 -4.74098e-10 1.48059e-14)
(2764.5 -4.69741e-10 1.66474e-14)
(2764.5 -4.52401e-10 2.01424e-14)
(2764.5 -4.2717e-10 1.88045e-14)
(2764.5 -4.05804e-10 1.79575e-14)
(2764.5 -3.78411e-10 1.89282e-14)
(2764.5 -3.43151e-10 1.80615e-14)
(2764.5 -3.11389e-10 1.95044e-14)
(2764.5 -2.71956e-10 1.87092e-14)
(2764.5 -2.29715e-10 1.89287e-14)
(2764.5 -1.89225e-10 2.01721e-14)
(2764.5 -1.5356e-10 1.97269e-14)
(2764.5 -1.13178e-10 2.076e-14)
(2764.5 -7.77462e-11 2.03477e-14)
(2764.5 -4.32483e-11 1.99937e-14)
(2764.5 -1.77298e-11 2.16501e-14)
(2764.5 1.34081e-11 2.12102e-14)
(2764.5 2.34449e-11 2.00175e-14)
(2764.5 4.86241e-11 1.96407e-14)
(2764.5 7.12897e-11 1.89147e-14)
(2764.5 8.94654e-11 1.99235e-14)
(2764.5 1.06087e-10 1.84767e-14)
(2764.5 1.13472e-10 2.08568e-14)
(2764.5 1.16851e-10 2.11509e-14)
(2764.5 1.25181e-10 1.80468e-14)
(2764.5 1.25427e-10 1.79339e-14)
(2764.5 1.27826e-10 1.5175e-14)
(2764.5 1.31055e-10 1.91404e-14)
(2764.5 1.30611e-10 1.76456e-14)
(2764.5 1.32045e-10 1.59287e-14)
(2764.5 1.31007e-10 1.61977e-14)
(2764.5 1.22438e-10 1.97208e-14)
(2764.5 1.06373e-10 1.69802e-14)
(2764.5 9.03008e-11 2.01863e-14)
(2764.5 8.4607e-11 2.40993e-14)
(2764.5 7.2567e-11 1.84451e-14)
(2764.5 5.38793e-11 1.7581e-14)
(2764.5 3.83122e-11 1.61685e-14)
(2764.5 2.30343e-11 1.69192e-14)
(2764.5 2.81767e-13 2.28922e-14)
(2764.5 -2.10472e-11 1.6603e-14)
(2764.5 -4.65928e-11 1.70397e-14)
(2764.5 -7.20982e-11 1.73557e-14)
(2764.5 -9.80153e-11 1.79559e-14)
(2764.5 -1.24704e-10 1.68175e-14)
(2764.5 -1.52138e-10 1.81756e-14)
(2764.5 -1.71556e-10 1.63665e-14)
(2764.5 -1.91191e-10 1.96403e-14)
(2764.5 -2.03583e-10 1.6648e-14)
(2764.5 -2.21931e-10 1.72131e-14)
(2764.5 -2.32916e-10 1.77565e-14)
(2764.5 -2.44386e-10 1.56592e-14)
(2764.5 -2.53516e-10 1.77833e-14)
(2764.5 -2.51896e-10 1.88064e-14)
(2764.5 -2.49883e-10 1.63174e-14)
(2764.5 -2.44352e-10 1.53496e-14)
(2764.5 -2.32458e-10 1.83114e-14)
(2764.5 -2.16272e-10 1.7647e-14)
(2764.5 -2.04838e-10 1.80269e-14)
(2764.5 -1.8278e-10 1.63854e-14)
(2764.5 -1.55132e-10 1.83957e-14)
(2764.5 -1.18575e-10 2.10248e-14)
(2764.5 -7.47346e-11 1.81203e-14)
(2764.5 -1.85588e-11 1.71565e-14)
(2764.5 3.84504e-11 1.96434e-14)
(2764.5 1.08308e-10 1.81179e-14)
(2764.5 1.77974e-10 1.88364e-14)
(2764.5 2.31076e-10 1.88501e-14)
(2764.5 2.95132e-10 1.58297e-14)
(2764.5 3.57624e-10 1.80086e-14)
(2764.5 3.97318e-10 1.83287e-14)
(2764.5 4.21792e-10 1.80005e-14)
(2764.5 4.37202e-10 1.39353e-14)
(2764.5 4.35531e-10 1.75912e-14)
(2764.5 4.40844e-10 1.65938e-14)
(2764.5 4.39913e-10 1.49813e-14)
(2764.5 4.13957e-10 1.43187e-14)
(2764.5 3.76707e-10 1.31958e-14)
(2764.5 3.49662e-10 1.30327e-14)
(2764.5 2.99165e-10 1.35861e-14)
(2764.5 2.38384e-10 1.36574e-14)
(2764.5 1.66583e-10 1.1954e-14)
(2764.5 -1.90045e-10 3.06513e-14)
(2764.5 -1.7915e-10 3.10121e-14)
(2764.5 -1.79979e-10 2.60375e-14)
(2764.5 -1.97635e-10 2.67548e-14)
(2764.5 -2.27897e-10 2.71947e-14)
(2764.5 -2.60022e-10 2.52907e-14)
(2764.5 -2.89426e-10 2.73839e-14)
(2764.5 -3.58251e-10 3.17985e-14)
(2764.5 -4.17965e-10 2.55943e-14)
(2764.5 -4.49812e-10 2.32295e-14)
(2764.5 -4.72847e-10 2.63714e-14)
(2764.5 -4.7936e-10 2.57326e-14)
(2764.5 -4.79471e-10 2.59813e-14)
(2764.5 -4.72886e-10 2.5832e-14)
(2764.5 -4.47817e-10 2.61665e-14)
(2764.5 -3.96273e-10 2.35747e-14)
(2764.5 -3.55139e-10 2.2617e-14)
(2764.5 -2.82287e-10 2.37162e-14)
(2764.5 -1.99641e-10 2.38187e-14)
(2764.5 -1.3099e-10 2.47989e-14)
(2764.5 -6.63511e-11 2.2134e-14)
(2764.5 -1.18249e-11 2.66844e-14)
(2764.5 4.30681e-11 2.76819e-14)
(2764.5 8.41379e-11 2.61354e-14)
(2764.5 1.05586e-10 2.50238e-14)
(2764.5 1.35454e-10 2.52622e-14)
(2764.5 1.6582e-10 2.89068e-14)
(2764.5 1.87999e-10 2.57614e-14)
(2764.5 2.00777e-10 2.35798e-14)
(2764.5 2.02577e-10 2.61842e-14)
(2764.5 2.01009e-10 2.60559e-14)
(2764.5 2.00434e-10 2.63329e-14)
(2764.5 1.94763e-10 2.57467e-14)
(2764.5 1.78969e-10 2.75172e-14)
(2764.5 1.71543e-10 2.76224e-14)
(2764.5 1.50918e-10 2.61099e-14)
(2764.5 1.31062e-10 2.76458e-14)
(2764.5 1.07124e-10 2.4451e-14)
(2764.5 8.61613e-11 2.52086e-14)
(2764.5 6.46416e-11 2.25536e-14)
(2764.5 4.44801e-11 2.31499e-14)
(2764.5 1.96037e-11 2.76783e-14)
(2764.5 -4.63432e-14 2.34695e-14)
(2764.5 -1.84641e-11 2.4541e-14)
(2764.5 -3.10924e-11 2.56842e-14)
(2764.5 -3.86595e-11 2.36816e-14)
(2764.5 -4.87892e-11 2.1737e-14)
(2764.5 -5.37029e-11 2.21343e-14)
(2764.5 -5.48674e-11 2.68738e-14)
(2764.5 -5.67748e-11 2.28272e-14)
(2764.5 -5.6834e-11 2.03454e-14)
(2764.5 -5.17525e-11 2.13206e-14)
(2764.5 -4.26648e-11 2.16227e-14)
(2764.5 -2.03017e-11 2.39059e-14)
(2764.5 1.36772e-12 1.94383e-14)
(2764.5 1.55949e-11 1.92598e-14)
(2764.5 3.75279e-11 2.27154e-14)
(2764.5 5.96444e-11 2.273e-14)
(2764.5 7.69224e-11 2.10609e-14)
(2764.5 1.04675e-10 2.04032e-14)
(2764.5 1.39958e-10 2.32902e-14)
(2764.5 1.63566e-10 2.13303e-14)
(2764.5 1.80491e-10 2.01674e-14)
(2764.5 2.07582e-10 2.01728e-14)
(2764.5 2.38458e-10 2.01069e-14)
(2764.5 2.59391e-10 2.1025e-14)
(2764.5 2.72794e-10 2.09624e-14)
(2764.5 2.81852e-10 2.15641e-14)
(2764.5 2.86582e-10 2.09145e-14)
(2764.5 2.92233e-10 2.11925e-14)
(2764.5 2.91469e-10 2.32397e-14)
(2764.5 2.9634e-10 2.42089e-14)
(2764.5 2.95123e-10 2.34269e-14)
(2764.5 2.97433e-10 2.35647e-14)
(2764.5 3.013e-10 2.09725e-14)
(2764.5 3.00682e-10 2.00992e-14)
(2764.5 2.99489e-10 2.25571e-14)
(2764.5 2.99749e-10 2.26347e-14)
(2764.5 3.02406e-10 2.39044e-14)
(2764.5 3.01526e-10 2.54063e-14)
(2764.5 3.0063e-10 2.43066e-14)
(2764.5 2.97951e-10 2.20228e-14)
(2764.5 2.9571e-10 2.07789e-14)
(2764.5 2.82138e-10 2.03972e-14)
(2764.5 2.62847e-10 2.24446e-14)
(2764.5 2.33775e-10 1.73882e-14)
(2764.5 1.96962e-10 1.92794e-14)
(2764.5 1.48576e-10 2.30718e-14)
(2764.5 7.81915e-11 2.21142e-14)
(2764.5 3.6711e-13 1.90387e-14)
(2764.5 -8.66189e-11 1.90306e-14)
(2764.5 -1.92885e-10 1.85335e-14)
(2764.5 -3.03806e-10 1.88841e-14)
(2764.5 -4.07097e-10 2.14061e-14)
(2764.5 -5.04385e-10 1.69038e-14)
(2764.5 -5.92975e-10 1.45442e-14)
(2764.5 -6.76709e-10 2.10328e-14)
(2764.5 -7.53731e-10 2.11643e-14)
(2764.5 -8.1533e-10 1.64432e-14)
(2764.5 -8.9174e-10 1.91878e-14)
(2764.5 -9.61637e-10 1.8894e-14)
(2764.5 -1.02148e-09 1.66626e-14)
(2764.5 -1.07112e-09 1.76791e-14)
(2764.5 -1.121e-09 1.65198e-14)
(2764.5 -1.13485e-09 1.48836e-14)
(2764.5 -1.15377e-09 1.54503e-14)
(2764.5 -4.32144e-10 3.41401e-14)
(2764.5 -4.98373e-10 3.74878e-14)
(2764.5 -5.38564e-10 3.47563e-14)
(2764.5 -5.58636e-10 3.41607e-14)
(2764.5 -5.67876e-10 3.73874e-14)
(2764.5 -5.63222e-10 3.53509e-14)
(2764.5 -5.2291e-10 3.4601e-14)
(2764.5 -4.62309e-10 3.73667e-14)
(2764.5 -3.49575e-10 3.93971e-14)
(2764.5 -2.5812e-10 3.90809e-14)
(2764.5 -1.73394e-10 3.61722e-14)
(2764.5 -5.61907e-11 3.46008e-14)
(2764.5 3.56508e-11 3.68316e-14)
(2764.5 8.31118e-11 3.39527e-14)
(2764.5 1.10652e-10 3.29337e-14)
(2764.5 1.16133e-10 3.64612e-14)
(2764.5 9.29118e-11 3.46675e-14)
(2764.5 7.30872e-11 3.60481e-14)
(2764.5 2.96993e-12 3.59594e-14)
(2764.5 -1.23466e-10 3.30964e-14)
(2764.5 -2.24613e-10 3.32098e-14)
(2764.5 -3.33625e-10 3.06194e-14)
(2764.5 -4.68855e-10 3.31667e-14)
(2764.5 -5.90541e-10 3.71838e-14)
(2764.5 -6.68055e-10 3.38492e-14)
(2764.5 -7.15381e-10 3.17756e-14)
(2764.5 -7.84051e-10 3.2912e-14)
(2764.5 -8.3625e-10 2.75525e-14)
(2764.5 -8.8551e-10 2.66082e-14)
(2764.5 -9.1451e-10 2.96277e-14)
(2764.5 -9.55532e-10 2.95095e-14)
(2764.5 -9.86012e-10 2.92726e-14)
(2764.5 -1.01131e-09 2.8907e-14)
(2764.5 -1.02335e-09 2.8952e-14)
(2764.5 -1.05034e-09 2.90797e-14)
(2764.5 -1.06542e-09 2.91421e-14)
(2764.5 -1.07977e-09 2.93821e-14)
(2764.5 -1.08713e-09 3.42639e-14)
(2764.5 -1.08772e-09 2.69436e-14)
(2764.5 -1.09122e-09 2.71832e-14)
(2764.5 -1.09962e-09 2.99002e-14)
(2764.5 -1.10264e-09 3.12016e-14)
(2764.5 -1.10033e-09 2.84684e-14)
(2764.5 -1.10478e-09 2.81433e-14)
(2764.5 -1.10485e-09 3.04416e-14)
(2764.5 -1.09992e-09 3.05367e-14)
(2764.5 -1.09693e-09 3.05167e-14)
(2764.5 -1.09775e-09 2.93474e-14)
(2764.5 -1.10099e-09 2.75899e-14)
(2764.5 -1.1037e-09 2.80794e-14)
(2764.5 -1.10836e-09 2.63094e-14)
(2764.5 -1.11431e-09 2.49489e-14)
(2764.5 -1.11852e-09 2.44084e-14)
(2764.5 -1.13051e-09 2.86946e-14)
(2764.5 -1.13213e-09 2.87537e-14)
(2764.5 -1.13839e-09 2.69185e-14)
(2764.5 -1.13986e-09 2.61842e-14)
(2764.5 -1.13336e-09 2.7175e-14)
(2764.5 -1.13048e-09 2.69827e-14)
(2764.5 -1.13253e-09 2.50958e-14)
(2764.5 -1.12807e-09 2.45213e-14)
(2764.5 -1.12219e-09 2.62999e-14)
(2764.5 -1.11807e-09 2.46115e-14)
(2764.5 -1.11105e-09 2.40096e-14)
(2764.5 -1.09273e-09 2.55719e-14)
(2764.5 -1.06958e-09 2.47959e-14)
(2764.5 -1.0511e-09 2.09771e-14)
(2764.5 -1.03872e-09 2.09049e-14)
(2764.5 -1.01548e-09 2.06977e-14)
(2764.5 -9.96809e-10 2.2114e-14)
(2764.5 -9.83279e-10 2.24486e-14)
(2764.5 -9.6655e-10 2.19242e-14)
(2764.5 -9.45181e-10 2.62482e-14)
(2764.5 -9.28025e-10 2.37059e-14)
(2764.5 -9.16958e-10 2.16209e-14)
(2764.5 -9.12288e-10 2.38498e-14)
(2764.5 -9.03922e-10 2.35185e-14)
(2764.5 -8.94704e-10 2.36442e-14)
(2764.5 -8.90168e-10 2.43956e-14)
(2764.5 -8.92918e-10 2.46994e-14)
(2764.5 -8.98426e-10 2.62567e-14)
(2764.5 -9.17947e-10 2.68539e-14)
(2764.5 -9.34526e-10 2.33928e-14)
(2764.5 -9.57889e-10 2.18541e-14)
(2764.5 -9.91995e-10 2.38798e-14)
(2764.5 -1.03247e-09 2.48591e-14)
(2764.5 -1.06877e-09 2.43667e-14)
(2764.5 -1.08858e-09 2.46753e-14)
(2764.5 -1.10072e-09 2.54347e-14)
(2764.5 -1.11088e-09 2.38542e-14)
(2764.5 -1.10662e-09 2.37678e-14)
(2764.5 -1.07287e-09 2.75165e-14)
(2764.5 -9.9444e-10 2.59009e-14)
(2764.5 -8.96641e-10 2.49393e-14)
(2764.5 -7.71909e-10 2.66854e-14)
(2764.5 -6.12635e-10 2.49214e-14)
(2764.5 -4.3968e-10 2.61455e-14)
(2764.5 -2.61557e-10 2.9337e-14)
(2764.5 -7.48922e-11 2.67081e-14)
(2764.5 6.83395e-11 2.7719e-14)
(2764.5 1.41652e-10 3.02508e-14)
(2764.5 1.89959e-10 2.66127e-14)
(2764.5 2.49703e-10 2.81489e-14)
(2764.5 3.30314e-10 3.08537e-14)
(2764.5 4.14207e-10 2.92653e-14)
(2764.5 4.91827e-10 2.80399e-14)
(2764.5 5.86484e-10 3.02228e-14)
(2764.5 -4.66964e-10 4.60477e-14)
(2764.5 -3.30672e-10 4.50457e-14)
(2764.5 -2.05425e-10 4.58529e-14)
(2764.5 -1.01421e-10 4.32896e-14)
(2764.5 -4.74523e-11 4.39456e-14)
(2764.5 -2.71344e-11 4.57522e-14)
(2764.5 -2.58416e-11 4.70486e-14)
(2764.5 -3.17333e-11 4.53413e-14)
(2764.5 -8.09838e-11 4.6139e-14)
(2764.5 -2.46868e-10 4.72505e-14)
(2764.5 -4.43399e-10 4.22755e-14)
(2764.5 -6.30388e-10 4.43362e-14)
(2764.5 -7.80982e-10 4.47878e-14)
(2764.5 -9.0147e-10 4.10247e-14)
(2764.5 -1.00465e-09 4.52418e-14)
(2764.5 -1.10205e-09 4.2298e-14)
(2764.5 -1.18805e-09 3.85743e-14)
(2764.5 -1.21623e-09 3.95266e-14)
(2764.5 -1.23387e-09 3.96623e-14)
(2764.5 -1.21312e-09 4.01463e-14)
(2764.5 -1.15671e-09 4.05239e-14)
(2764.5 -1.03668e-09 4.15062e-14)
(2764.5 -8.90186e-10 4.44814e-14)
(2764.5 -6.92452e-10 4.37969e-14)
(2764.5 -4.18577e-10 3.82449e-14)
(2764.5 -1.48732e-10 4.043e-14)
(2764.5 4.54392e-11 4.20911e-14)
(2764.5 1.56123e-10 4.06359e-14)
(2764.5 2.29754e-10 4.41314e-14)
(2764.5 2.97593e-10 4.35225e-14)
(2764.5 3.7589e-10 4.45437e-14)
(2764.5 4.45568e-10 4.40169e-14)
(2764.5 5.02275e-10 4.53449e-14)
(2764.5 5.59782e-10 4.28403e-14)
(2764.5 6.33442e-10 4.5326e-14)
(2764.5 6.96888e-10 4.54354e-14)
(2764.5 7.52771e-10 4.25501e-14)
(2764.5 8.00232e-10 4.15177e-14)
(2764.5 8.37976e-10 4.0822e-14)
(2764.5 8.70115e-10 4.38176e-14)
(2764.5 9.02256e-10 4.31042e-14)
(2764.5 9.3442e-10 4.21753e-14)
(2764.5 9.51483e-10 4.33802e-14)
(2764.5 9.65287e-10 4.01978e-14)
(2764.5 9.70866e-10 4.46402e-14)
(2764.5 9.74525e-10 4.42309e-14)
(2764.5 9.75111e-10 4.30459e-14)
(2764.5 9.69955e-10 4.24537e-14)
(2764.5 9.50275e-10 4.17163e-14)
(2764.5 9.36468e-10 4.35426e-14)
(2764.5 9.11512e-10 4.19299e-14)
(2764.5 8.87864e-10 3.86433e-14)
(2764.5 8.59968e-10 4.0439e-14)
(2764.5 8.1635e-10 4.29665e-14)
(2764.5 7.74254e-10 4.54182e-14)
(2764.5 7.40813e-10 4.48102e-14)
(2764.5 7.00348e-10 4.3841e-14)
(2764.5 6.44277e-10 3.82047e-14)
(2764.5 6.02123e-10 3.73815e-14)
(2764.5 5.56466e-10 3.95956e-14)
(2764.5 5.13682e-10 3.97694e-14)
(2764.5 4.66341e-10 3.84406e-14)
(2764.5 4.1433e-10 3.72066e-14)
(2764.5 3.7796e-10 4.13339e-14)
(2764.5 3.27593e-10 3.62501e-14)
(2764.5 2.69448e-10 3.46034e-14)
(2764.5 2.34963e-10 4.30151e-14)
(2764.5 2.10191e-10 4.03189e-14)
(2764.5 1.86685e-10 3.39487e-14)
(2764.5 1.27156e-10 3.83036e-14)
(2764.5 5.43352e-11 3.71099e-14)
(2764.5 -2.73488e-11 3.36337e-14)
(2764.5 -1.08336e-10 3.37254e-14)
(2764.5 -1.61682e-10 3.51346e-14)
(2764.5 -2.06683e-10 3.54635e-14)
(2764.5 -2.10002e-10 3.54721e-14)
(2764.5 -2.06107e-10 3.57531e-14)
(2764.5 -1.9061e-10 3.67987e-14)
(2764.5 -1.64475e-10 3.66772e-14)
(2764.5 -1.25447e-10 3.43832e-14)
(2764.5 -6.7149e-11 3.21844e-14)
(2764.5 1.02136e-11 3.51125e-14)
(2764.5 8.59188e-11 3.72255e-14)
(2764.5 1.36781e-10 3.67351e-14)
(2764.5 2.09368e-10 3.68667e-14)
(2764.5 2.91446e-10 3.56469e-14)
(2764.5 3.86041e-10 3.51321e-14)
(2764.5 4.87812e-10 3.66326e-14)
(2764.5 6.1111e-10 3.74355e-14)
(2764.5 7.52918e-10 3.55212e-14)
(2764.5 9.04629e-10 3.68909e-14)
(2764.5 1.04974e-09 3.50044e-14)
(2764.5 1.19026e-09 3.48715e-14)
(2764.5 1.32202e-09 3.76485e-14)
(2764.5 1.45925e-09 3.79403e-14)
(2764.5 1.5661e-09 3.53724e-14)
(2764.5 1.61934e-09 3.36573e-14)
(2764.5 1.63034e-09 3.67255e-14)
(2764.5 1.64543e-09 3.37778e-14)
(2764.5 1.73973e-09 3.29883e-14)
(2764.5 1.89401e-09 3.63444e-14)
(2764.5 2.04432e-09 3.50725e-14)
(2764.5 2.21106e-09 3.65868e-14)
(2764.5 2.39234e-09 3.53639e-14)
(2764.5 2.57853e-09 3.38731e-14)
(2764.5 2.75085e-09 3.28921e-14)
(2764.5 2.92979e-09 3.60457e-14)
(2764.5 -1.69423e-10 5.31759e-14)
(2764.5 -1.567e-10 5.35322e-14)
(2764.5 -1.84409e-10 5.42216e-14)
(2764.5 -2.94033e-10 4.92627e-14)
(2764.5 -4.46373e-10 4.91215e-14)
(2764.5 -6.71117e-10 4.83571e-14)
(2764.5 -8.81582e-10 4.8173e-14)
(2764.5 -1.01511e-09 5.28634e-14)
(2764.5 -1.15469e-09 5.15153e-14)
(2764.5 -1.25011e-09 4.91361e-14)
(2764.5 -1.26375e-09 4.75041e-14)
(2764.5 -1.23516e-09 4.85017e-14)
(2764.5 -1.11695e-09 5.32232e-14)
(2764.5 -1.00197e-09 5.09589e-14)
(2764.5 -7.00181e-10 5.07642e-14)
(2764.5 -1.32494e-10 5.30149e-14)
(2764.5 1.10611e-10 5.34496e-14)
(2764.5 2.54512e-10 5.47575e-14)
(2764.5 4.35729e-10 5.45075e-14)
(2764.5 6.29499e-10 5.47786e-14)
(2764.5 8.18107e-10 5.32607e-14)
(2764.5 1.00325e-09 5.37334e-14)
(2764.5 1.21738e-09 5.36307e-14)
(2764.5 1.43903e-09 5.25049e-14)
(2764.5 1.64722e-09 5.25314e-14)
(2764.5 1.82099e-09 5.49989e-14)
(2764.5 1.95152e-09 5.50308e-14)
(2764.5 2.00617e-09 5.37214e-14)
(2764.5 1.98358e-09 5.31454e-14)
(2764.5 1.99226e-09 5.17486e-14)
(2764.5 2.12045e-09 4.97199e-14)
(2764.5 2.27944e-09 4.9585e-14)
(2764.5 2.44181e-09 5.20875e-14)
(2764.5 2.60619e-09 5.42071e-14)
(2764.5 2.75638e-09 5.21649e-14)
(2764.5 2.89097e-09 5.09371e-14)
(2764.5 3.02142e-09 4.76845e-14)
(2764.5 3.15901e-09 4.94762e-14)
(2764.5 3.27663e-09 4.98824e-14)
(2764.5 3.37692e-09 4.95847e-14)
(2764.5 3.46156e-09 4.97812e-14)
(2764.5 3.52316e-09 5.00268e-14)
(2764.5 3.57624e-09 4.84523e-14)
(2764.5 3.61842e-09 4.83354e-14)
(2764.5 3.64818e-09 4.9674e-14)
(2764.5 3.66627e-09 5.04856e-14)
(2764.5 3.67932e-09 4.84105e-14)
(2764.5 3.67298e-09 4.95188e-14)
(2764.5 3.65019e-09 5.14602e-14)
(2764.5 3.6233e-09 5.10931e-14)
(2764.5 3.59246e-09 4.85271e-14)
(2764.5 3.55301e-09 4.77419e-14)
(2764.5 3.49351e-09 4.90803e-14)
(2764.5 3.42055e-09 4.80045e-14)
(2764.5 3.35367e-09 5.05506e-14)
(2764.5 3.27732e-09 4.66228e-14)
(2764.5 3.18827e-09 4.39359e-14)
(2764.5 3.09452e-09 4.9635e-14)
(2764.5 3.0051e-09 4.95525e-14)
(2764.5 2.90197e-09 4.65975e-14)
(2764.5 2.79224e-09 4.61112e-14)
(2764.5 2.69575e-09 4.86142e-14)
(2764.5 2.59488e-09 4.47363e-14)
(2764.5 2.50021e-09 4.46535e-14)
(2764.5 2.39829e-09 4.64969e-14)
(2764.5 2.29758e-09 4.23199e-14)
(2764.5 2.21233e-09 4.95623e-14)
(2764.5 2.11181e-09 4.63673e-14)
(2764.5 2.00012e-09 4.41904e-14)
(2764.5 1.91113e-09 4.6757e-14)
(2764.5 1.84958e-09 4.5379e-14)
(2764.5 1.78211e-09 4.46065e-14)
(2764.5 1.70226e-09 4.29881e-14)
(2764.5 1.66772e-09 4.30378e-14)
(2764.5 1.68081e-09 4.52299e-14)
(2764.5 1.70045e-09 4.36477e-14)
(2764.5 1.65792e-09 4.43449e-14)
(2764.5 1.6082e-09 4.39249e-14)
(2764.5 1.59407e-09 4.29682e-14)
(2764.5 1.58575e-09 4.32406e-14)
(2764.5 1.58546e-09 4.24317e-14)
(2764.5 1.59355e-09 4.25359e-14)
(2764.5 1.606e-09 4.13536e-14)
(2764.5 1.62815e-09 4.02154e-14)
(2764.5 1.66541e-09 4.25775e-14)
(2764.5 1.7382e-09 4.2148e-14)
(2764.5 1.87337e-09 4.27846e-14)
(2764.5 2.05219e-09 4.25722e-14)
(2764.5 2.26448e-09 4.06925e-14)
(2764.5 2.50349e-09 3.99237e-14)
(2764.5 2.76793e-09 4.06231e-14)
(2764.5 3.06644e-09 4.18725e-14)
(2764.5 3.38261e-09 4.23569e-14)
(2764.5 3.70388e-09 3.95146e-14)
(2764.5 4.01893e-09 3.99412e-14)
(2764.5 4.33997e-09 4.3269e-14)
(2764.5 4.68086e-09 4.09724e-14)
(2764.5 5.05809e-09 4.33589e-14)
(2764.5 5.4569e-09 4.16857e-14)
(2764.5 5.86661e-09 3.91051e-14)
(2764.5 6.31947e-09 4.01272e-14)
(2764.5 6.83724e-09 3.93555e-14)
(2764.5 7.39359e-09 4.14508e-14)
(2764.5 7.98147e-09 3.97761e-14)
(2764.5 8.6172e-09 4.21912e-14)
(2764.5 9.32368e-09 4.1705e-14)
(2764.5 1.01135e-08 4.03859e-14)
(2764.5 1.09943e-08 4.09257e-14)
(2764.5 1.19809e-08 3.77644e-14)
(2764.5 1.30976e-08 4.03084e-14)
(2764.5 -1.16311e-09 5.58193e-14)
(2764.5 -1.2838e-09 5.75124e-14)
(2764.5 -1.29068e-09 5.84232e-14)
(2764.5 -1.19785e-09 5.68244e-14)
(2764.5 -1.00068e-09 6.00984e-14)
(2764.5 -6.88119e-10 6.14634e-14)
(2764.5 -3.33009e-11 6.32124e-14)
(2764.5 2.03493e-10 6.19127e-14)
(2764.5 4.84203e-10 6.39238e-14)
(2764.5 7.97505e-10 6.51581e-14)
(2764.5 1.12568e-09 6.18219e-14)
(2764.5 1.46795e-09 6.56487e-14)
(2764.5 1.80321e-09 6.60638e-14)
(2764.5 2.0892e-09 6.24217e-14)
(2764.5 2.25868e-09 6.00326e-14)
(2764.5 2.24194e-09 6.02243e-14)
(2764.5 2.38796e-09 6.39521e-14)
(2764.5 2.74685e-09 6.36394e-14)
(2764.5 3.18636e-09 6.30596e-14)
(2764.5 3.66438e-09 5.94963e-14)
(2764.5 4.14484e-09 6.06756e-14)
(2764.5 4.61645e-09 6.07639e-14)
(2764.5 5.08747e-09 6.24617e-14)
(2764.5 5.54346e-09 6.40771e-14)
(2764.5 5.98687e-09 6.08133e-14)
(2764.5 6.45775e-09 5.96737e-14)
(2764.5 6.98498e-09 6.20875e-14)
(2764.5 7.57475e-09 6.24976e-14)
(2764.5 8.21955e-09 6.02638e-14)
(2764.5 8.87998e-09 5.60099e-14)
(2764.5 9.53576e-09 5.35458e-14)
(2764.5 1.01906e-08 5.89822e-14)
(2764.5 1.08345e-08 5.98217e-14)
(2764.5 1.14547e-08 5.53817e-14)
(2764.5 1.20446e-08 5.50021e-14)
(2764.5 1.26027e-08 5.79012e-14)
(2764.5 1.31436e-08 5.634e-14)
(2764.5 1.36542e-08 5.68317e-14)
(2764.5 1.41134e-08 5.56392e-14)
(2764.5 1.45314e-08 5.8134e-14)
(2764.5 1.48948e-08 5.76513e-14)
(2764.5 1.52021e-08 5.64063e-14)
(2764.5 1.54601e-08 5.51298e-14)
(2764.5 1.56653e-08 5.66485e-14)
(2764.5 1.58127e-08 5.57026e-14)
(2764.5 1.59101e-08 5.55794e-14)
(2764.5 1.59549e-08 5.68491e-14)
(2764.5 1.59359e-08 5.73101e-14)
(2764.5 1.58547e-08 5.47875e-14)
(2764.5 1.57232e-08 5.5534e-14)
(2764.5 1.55485e-08 5.4544e-14)
(2764.5 1.53261e-08 5.61381e-14)
(2764.5 1.50517e-08 5.31332e-14)
(2764.5 1.47377e-08 5.49828e-14)
(2764.5 1.43977e-08 5.62877e-14)
(2764.5 1.40373e-08 5.24436e-14)
(2764.5 1.36442e-08 5.49146e-14)
(2764.5 1.32287e-08 5.27152e-14)
(2764.5 1.27902e-08 5.43208e-14)
(2764.5 1.23333e-08 5.65092e-14)
(2764.5 1.18727e-08 5.38911e-14)
(2764.5 1.14175e-08 5.50706e-14)
(2764.5 1.09698e-08 5.3401e-14)
(2764.5 1.05356e-08 5.21322e-14)
(2764.5 1.01032e-08 5.0104e-14)
(2764.5 9.67761e-09 5.15753e-14)
(2764.5 9.26553e-09 5.57064e-14)
(2764.5 8.85201e-09 4.95078e-14)
(2764.5 8.46573e-09 5.15354e-14)
(2764.5 8.12737e-09 5.47121e-14)
(2764.5 7.80922e-09 5.10256e-14)
(2764.5 7.50322e-09 5.09072e-14)
(2764.5 7.22215e-09 4.95699e-14)
(2764.5 6.97961e-09 5.32757e-14)
(2764.5 6.77784e-09 5.0813e-14)
(2764.5 6.59718e-09 4.81025e-14)
(2764.5 6.42942e-09 5.11661e-14)
(2764.5 6.33243e-09 4.85115e-14)
(2764.5 6.32963e-09 4.82158e-14)
(2764.5 6.34829e-09 4.79891e-14)
(2764.5 6.40524e-09 4.71479e-14)
(2764.5 6.51892e-09 4.70248e-14)
(2764.5 6.69448e-09 4.85083e-14)
(2764.5 6.94951e-09 4.77611e-14)
(2764.5 7.29865e-09 4.81946e-14)
(2764.5 7.74031e-09 4.94578e-14)
(2764.5 8.28147e-09 4.85254e-14)
(2764.5 8.93127e-09 4.51273e-14)
(2764.5 9.68414e-09 4.6303e-14)
(2764.5 1.05385e-08 4.60473e-14)
(2764.5 1.15207e-08 4.83206e-14)
(2764.5 1.26511e-08 4.61168e-14)
(2764.5 1.3951e-08 4.89043e-14)
(2764.5 1.5442e-08 4.65471e-14)
(2764.5 1.71554e-08 4.67285e-14)
(2764.5 1.9139e-08 4.66701e-14)
(2764.5 2.14152e-08 4.65906e-14)
(2764.5 2.39788e-08 4.77871e-14)
(2764.5 2.68029e-08 4.46123e-14)
(2764.5 2.98791e-08 4.65896e-14)
(2764.5 3.32202e-08 4.80967e-14)
(2764.5 3.68397e-08 4.68704e-14)
(2764.5 4.07285e-08 4.63667e-14)
(2764.5 4.48779e-08 4.45368e-14)
(2764.5 4.92808e-08 4.67018e-14)
(2764.5 5.39321e-08 4.52789e-14)
(2764.5 5.88401e-08 4.56743e-14)
(2764.5 6.39881e-08 4.56246e-14)
(2764.5 6.93729e-08 4.59017e-14)
(2764.5 7.49888e-08 4.38071e-14)
(2764.5 4.54981e-10 7.52498e-14)
(2764.5 8.51822e-10 7.38574e-14)
(2764.5 1.32445e-09 7.22064e-14)
(2764.5 1.82822e-09 7.38593e-14)
(2764.5 2.22953e-09 7.5643e-14)
(2764.5 2.43487e-09 7.25443e-14)
(2764.5 2.48674e-09 7.05009e-14)
(2764.5 2.90902e-09 7.17472e-14)
(2764.5 3.57358e-09 7.41645e-14)
(2764.5 4.38455e-09 7.33627e-14)
(2764.5 5.27857e-09 7.24284e-14)
(2764.5 6.16053e-09 7.06833e-14)
(2764.5 6.99485e-09 7.1869e-14)
(2764.5 7.83982e-09 6.97711e-14)
(2764.5 8.84376e-09 6.95688e-14)
(2764.5 1.01786e-08 7.03215e-14)
(2764.5 1.17645e-08 7.05831e-14)
(2764.5 1.34609e-08 7.10738e-14)
(2764.5 1.52758e-08 6.9924e-14)
(2764.5 1.71872e-08 6.91141e-14)