/*--------------------------------*- C++ -*----------------------------------*\
| =========                 |                                                 |
| \\      /  F ield         | OpenFOAM: The Open Source CFD Toolbox           |
|  \\    /   O peration     | Version:  v1706                                 |
|   \\  /    A nd           | Web:      www.OpenFOAM.com                      |
|    \\/     M anipulation  |                                                 |
\*---------------------------------------------------------------------------*/
FoamFile
{
    version     2.0;
    format      ascii;
    class       volScalarField;
    location    "6e-06";
    object      wallHeatFlux;
}
// * * * * * * * * * * * * * * * * * * * * * * * * * * * * * * * * * * * * * //

dimensions      [1 0 -3 0 0 0 0];


internalField   uniform 0;

boundaryField
{
    cone
    {
        type            calculated;
        value           nonuniform List<scalar> 
181
(
381315
381924
382687
383615
384716
386002
387477
389147
391020
393109
395423
397969
400758
403799
407100
410669
414516
418648
423073
427797
432827
438167
443823
449799
456096
462715
469658
476920
484500
492392
500589
509081
517857
526903
536205
545746
555505
565464
575601
585896
596331
606883
617538
628283
639108
650011
660995
672069
683251
694566
706047
717734
729676
741927
754545
767595
781144
795260
810015
825477
841712
858776
876715
895545
915243
935717
956768
978037
998930
1.01853e+06
1.03551e+06
1.04807e+06
1.05396e+06
1.05063e+06
1.03561e+06
1.00699e+06
964009
907471
839734
764239
684840
605165
528194
456054
390058
330849
278556
232955
193608
159958
131404
107342
87195.4
70425.5
56543.2
45110.2
35739.5
28093.7
21881.2
16853
12797.9
9538.29
6926.03
4838.24
3173.75
1849.82
799.338
-32.0562
-688.262
-1204.66
-1609.69
-1926.22
-2172.53
-2363.52
-2510.99
-2624.34
-2711.05
-2777.05
-2827.04
-2864.71
-2892.94
-2913.99
-2929.59
-2941.09
-2949.5
-2955.61
-2960.02
-2963.16
-2965.38
-2966.92
-2967.96
-2968.65
-2969.07
-2969.31
-2969.41
-2969.42
-2969.37
-2969.26
-2969.12
-2968.96
-2968.78
-2968.58
-2968.39
-2968.18
-2967.97
-2967.76
-2967.55
-2967.34
-2967.13
-2966.91
-2966.7
-2966.49
-2966.27
-2966.06
-2965.85
-2965.64
-2965.43
-2965.22
-2965.02
-2964.81
-2964.61
-2964.41
-2964.21
-2964.01
-2963.81
-2963.61
-2963.42
-2963.22
-2963.03
-2962.84
-2962.65
-2962.47
-2962.29
-2962.12
-2961.96
-2961.79
-2961.62
-2961.45
-2961.26
-2961.07
-2960.86
)
;
    }
    inlet
    {
        type            calculated;
        value           uniform 0;
    }
    rWedge
    {
        type            wedge;
    }
    lWedge
    {
        type            wedge;
    }
    outlet
    {
        type            calculated;
        value           nonuniform 0();
    }
    procBoundary1to0
    {
        type            processor;
        value           uniform 0;
    }
    procBoundary1to2
    {
        type            processor;
        value           uniform 0;
    }
}


// ************************************************************************* //
