/*--------------------------------*- C++ -*----------------------------------*\
| =========                 |                                                 |
| \\      /  F ield         | OpenFOAM: The Open Source CFD Toolbox           |
|  \\    /   O peration     | Version:  v1706                                 |
|   \\  /    A nd           | Web:      www.OpenFOAM.com                      |
|    \\/     M anipulation  |                                                 |
\*---------------------------------------------------------------------------*/
FoamFile
{
    version     2.0;
    format      ascii;
    class       volVectorField;
    location    "5e-06";
    object      U;
}
// * * * * * * * * * * * * * * * * * * * * * * * * * * * * * * * * * * * * * //

dimensions      [0 1 -1 0 0 0 0];


internalField   nonuniform List<vector> 
29987
(
(2764.5 -2.08817e-08 4.07808e-11)
(2764.5 -6.55964e-09 1.19708e-11)
(2764.5 -3.16276e-09 5.80004e-12)
(2764.5 -1.95724e-09 3.48138e-12)
(2764.5 -1.33489e-09 2.32917e-12)
(2764.5 -9.67077e-10 1.67218e-12)
(2764.5 -7.29923e-10 1.27686e-12)
(2764.5 -5.70634e-10 1.01521e-12)
(2764.5 -4.62981e-10 8.09142e-13)
(2764.5 -3.81835e-10 6.80827e-13)
(2764.5 -3.19969e-10 5.13066e-13)
(2764.5 -2.72443e-10 4.48683e-13)
(2764.5 -2.34925e-10 4.17482e-13)
(2764.5 -2.05343e-10 3.4939e-13)
(2764.5 -1.82327e-10 3.11927e-13)
(2764.5 -1.6929e-10 2.62647e-13)
(2764.5 -1.4368e-10 2.18347e-13)
(2764.5 -1.33545e-10 1.94215e-13)
(2764.5 -1.20932e-10 1.85018e-13)
(2764.5 -1.10902e-10 1.73375e-13)
(2764.5 -1.00169e-10 1.69567e-13)
(2764.5 -9.39627e-11 1.40538e-13)
(2764.5 -8.99883e-11 1.32682e-13)
(2764.5 -8.06012e-11 1.12648e-13)
(2764.5 -7.49287e-11 1.15261e-13)
(2764.5 -7.41795e-11 1.14066e-13)
(2764.5 -6.55219e-11 9.02775e-14)
(2764.5 -6.60798e-11 7.98551e-14)
(2764.5 -5.92197e-11 8.95749e-14)
(2764.5 -5.80166e-11 8.06251e-14)
(2764.5 -5.32311e-11 8.70788e-14)
(2764.5 -5.25588e-11 7.31566e-14)
(2764.5 -4.99107e-11 6.73092e-14)
(2764.5 -5.01166e-11 6.08206e-14)
(2764.5 -4.68738e-11 6.30195e-14)
(2764.5 -4.73889e-11 5.57262e-14)
(2764.5 -4.34359e-11 5.30003e-14)
(2764.5 -3.92641e-11 4.44869e-14)
(2764.5 -4.02683e-11 4.18874e-14)
(2764.5 -4.13553e-11 4.83425e-14)
(2764.5 -3.66736e-11 3.64725e-14)
(2764.5 -3.67648e-11 3.82217e-14)
(2764.5 -3.75115e-11 4.5852e-14)
(2764.5 -3.35926e-11 3.79872e-14)
(2764.5 -3.60073e-11 3.66306e-14)
(2764.5 -3.24254e-11 3.12997e-14)
(2764.5 -3.43725e-11 4.33451e-14)
(2764.5 -3.44789e-11 3.40234e-14)
(2764.5 -3.22559e-11 2.92154e-14)
(2764.5 -3.0793e-11 3.30071e-14)
(2764.5 -2.92972e-11 3.15718e-14)
(2764.5 -2.99892e-11 3.19181e-14)
(2764.5 -2.72005e-11 2.87402e-14)
(2764.5 -2.99461e-11 2.84152e-14)
(2764.5 -2.8004e-11 2.91727e-14)
(2764.5 -2.51121e-11 2.25927e-14)
(2764.5 -2.7078e-11 1.97513e-14)
(2764.5 -2.95556e-11 1.93262e-14)
(2764.5 -3.14467e-11 2.05522e-14)
(2764.5 -2.94019e-11 2.48584e-14)
(2764.5 -2.83662e-11 2.51521e-14)
(2764.5 -2.65748e-11 1.47541e-14)
(2764.5 -2.72306e-11 1.75627e-14)
(2764.5 -2.60314e-11 2.05603e-14)
(2764.5 -2.48665e-11 1.62109e-14)
(2764.5 -2.52031e-11 1.38319e-14)
(2764.5 -2.57688e-11 1.46909e-14)
(2764.5 -2.62464e-11 1.93565e-14)
(2764.5 -2.41955e-11 1.80332e-14)
(2764.5 -2.38981e-11 1.60423e-14)
(2764.5 -2.57648e-11 1.35197e-14)
(2764.5 -2.52486e-11 1.58747e-14)
(2764.5 -2.68341e-11 1.35244e-14)
(2764.5 -2.46588e-11 1.3911e-14)
(2764.5 -2.29957e-11 1.75715e-14)
(2764.5 -2.48063e-11 1.55087e-14)
(2764.5 -2.43594e-11 1.42737e-14)
(2764.5 -2.46186e-11 1.6271e-14)
(2764.5 -2.50887e-11 1.16322e-14)
(2764.5 -2.4274e-11 7.31907e-15)
(2764.5 -2.50133e-11 1.12775e-14)
(2764.5 -2.59515e-11 1.18373e-14)
(2764.5 -2.54936e-11 7.86463e-15)
(2764.5 -2.35326e-11 1.02935e-14)
(2764.5 -2.41321e-11 1.1262e-14)
(2764.5 -2.39288e-11 9.82255e-15)
(2764.5 -2.42679e-11 8.53187e-15)
(2764.5 -2.54138e-11 9.11146e-15)
(2764.5 -2.38683e-11 1.31152e-14)
(2764.5 -2.4853e-11 8.47477e-15)
(2764.5 -2.5024e-11 6.01517e-15)
(2764.5 -2.1693e-11 6.98703e-15)
(2764.5 -1.99473e-11 9.97401e-15)
(2764.5 -2.20445e-11 1.17894e-14)
(2764.5 -2.35788e-11 1.21891e-14)
(2764.5 -2.28678e-11 1.16527e-14)
(2764.5 -2.36436e-11 8.79578e-15)
(2764.5 -2.29393e-11 1.128e-14)
(2764.5 -2.39429e-11 1.18321e-14)
(2764.5 -2.40027e-11 8.92087e-15)
(2764.5 -2.54624e-11 7.63436e-15)
(2764.5 -2.54409e-11 1.28565e-14)
(2764.5 -2.56831e-11 1.30364e-14)
(2764.5 -2.49459e-11 9.80159e-15)
(2764.5 -2.49479e-11 9.99402e-15)
(2764.5 -2.56867e-11 9.46858e-15)
(2764.5 -2.62657e-11 6.76995e-15)
(2764.5 -2.65376e-11 5.86316e-15)
(2764.5 -2.48245e-11 8.78156e-15)
(2764.5 -2.34528e-11 6.66645e-15)
(2764.5 -2.55262e-11 7.28003e-15)
(2764.5 -2.63184e-11 6.61928e-15)
(2764.5 -2.62265e-11 9.58466e-15)
(2764.5 -2.49619e-11 8.78699e-15)
(2764.5 -2.47877e-11 9.37323e-15)
(2764.5 -2.43975e-11 6.80536e-15)
(2764.5 -2.53822e-11 8.59626e-15)
(2764.5 -2.54932e-11 1.1619e-14)
(2764.5 -2.54878e-11 1.14144e-14)
(2764.5 -2.7441e-11 6.8843e-15)
(2764.5 -2.96105e-11 7.56643e-15)
(2764.5 -3.04434e-11 8.78654e-15)
(2764.5 -3.05023e-11 6.57749e-15)
(2764.5 -3.14383e-11 8.60788e-15)
(2764.5 -3.07004e-11 9.63336e-15)
(2764.5 -3.05634e-11 7.65004e-15)
(2764.5 -2.95282e-11 9.18029e-15)
(2764.5 -3.04668e-11 8.52618e-15)
(2764.5 -3.1615e-11 9.34074e-15)
(2764.5 -3.19924e-11 8.21496e-15)
(2764.5 -3.08341e-11 1.13676e-14)
(2764.5 -3.02266e-11 1.21176e-14)
(2764.5 -3.15844e-11 6.5816e-15)
(2764.5 -3.32726e-11 3.58815e-15)
(2764.5 -3.18023e-11 7.25302e-15)
(2764.5 -2.64943e-11 5.18566e-15)
(2764.5 -2.53392e-11 6.79792e-15)
(2764.5 -2.58489e-11 7.60135e-15)
(2764.5 -2.6823e-11 5.40809e-15)
(2764.5 -2.66757e-11 7.2863e-15)
(2764.5 -2.74283e-11 2.92442e-15)
(2764.5 -3.30352e-11 5.42449e-15)
(2764.5 -3.419e-11 7.66127e-15)
(2764.5 -3.62006e-11 4.23299e-15)
(2764.5 -3.80239e-11 7.06537e-15)
(2764.5 -3.33589e-11 8.1864e-15)
(2764.5 -3.00274e-11 9.80326e-15)
(2764.5 -3.18648e-11 8.74652e-15)
(2764.5 -3.33579e-11 6.88567e-15)
(2764.5 -3.88533e-11 5.42858e-15)
(2764.5 -3.78559e-11 2.52236e-15)
(2764.5 -3.54673e-11 4.46223e-15)
(2764.5 -3.69515e-11 4.01044e-15)
(2764.5 -3.48939e-11 9.32998e-15)
(2764.5 -3.32274e-11 6.34462e-15)
(2764.5 -3.58099e-11 7.40466e-15)
(2764.5 -6.69631e-08 1.17864e-10)
(2764.5 -2.4785e-08 4.15013e-11)
(2764.5 -1.13566e-08 1.87833e-11)
(2764.5 -6.59866e-09 1.10895e-11)
(2764.5 -4.38633e-09 7.37735e-12)
(2764.5 -3.15303e-09 5.30643e-12)
(2764.5 -2.37527e-09 3.98157e-12)
(2764.5 -1.85392e-09 3.0868e-12)
(2764.5 -1.49436e-09 2.48696e-12)
(2764.5 -1.22866e-09 2.01908e-12)
(2764.5 -1.03439e-09 1.60387e-12)
(2764.5 -8.79726e-10 1.41077e-12)
(2764.5 -7.57658e-10 1.20049e-12)
(2764.5 -6.60835e-10 1.05005e-12)
(2764.5 -5.85612e-10 8.88706e-13)
(2764.5 -5.32849e-10 8.22641e-13)
(2764.5 -4.64558e-10 7.00792e-13)
(2764.5 -4.23956e-10 6.29436e-13)
(2764.5 -3.86541e-10 5.84459e-13)
(2764.5 -3.56259e-10 5.23081e-13)
(2764.5 -3.25946e-10 4.87168e-13)
(2764.5 -3.0414e-10 4.1563e-13)
(2764.5 -2.83512e-10 3.95687e-13)
(2764.5 -2.61379e-10 3.48787e-13)
(2764.5 -2.41452e-10 3.42966e-13)
(2764.5 -2.31528e-10 3.3564e-13)
(2764.5 -2.12701e-10 2.96659e-13)
(2764.5 -2.09573e-10 2.67893e-13)
(2764.5 -1.93714e-10 2.65879e-13)
(2764.5 -1.81676e-10 2.46748e-13)
(2764.5 -1.6994e-10 2.17135e-13)
(2764.5 -1.65232e-10 2.18848e-13)
(2764.5 -1.56783e-10 1.79602e-13)
(2764.5 -1.5414e-10 1.68064e-13)
(2764.5 -1.44468e-10 1.73554e-13)
(2764.5 -1.49713e-10 1.74911e-13)
(2764.5 -1.36365e-10 1.59117e-13)
(2764.5 -1.25096e-10 1.52482e-13)
(2764.5 -1.26671e-10 1.39505e-13)
(2764.5 -1.27996e-10 1.31331e-13)
(2764.5 -1.2153e-10 1.11383e-13)
(2764.5 -1.16073e-10 1.18246e-13)
(2764.5 -1.15031e-10 1.27976e-13)
(2764.5 -1.08376e-10 1.1035e-13)
(2764.5 -1.09676e-10 8.7657e-14)
(2764.5 -1.00103e-10 1.06065e-13)
(2764.5 -9.77862e-11 1.10404e-13)
(2764.5 -1.00111e-10 8.93637e-14)
(2764.5 -1.01331e-10 8.7252e-14)
(2764.5 -9.99548e-11 9.84119e-14)
(2764.5 -9.68163e-11 9.70998e-14)
(2764.5 -9.76122e-11 8.2875e-14)
(2764.5 -8.90913e-11 7.9854e-14)
(2764.5 -8.92664e-11 6.61008e-14)
(2764.5 -8.99779e-11 7.00356e-14)
(2764.5 -8.31255e-11 6.38495e-14)
(2764.5 -8.2897e-11 6.09711e-14)
(2764.5 -8.11384e-11 6.15497e-14)
(2764.5 -8.25949e-11 7.08844e-14)
(2764.5 -8.73004e-11 7.22495e-14)
(2764.5 -8.70835e-11 6.13897e-14)
(2764.5 -8.16706e-11 4.46627e-14)
(2764.5 -8.26943e-11 6.14082e-14)
(2764.5 -8.0113e-11 5.68684e-14)
(2764.5 -7.73703e-11 5.16817e-14)
(2764.5 -7.80458e-11 5.41685e-14)
(2764.5 -7.48802e-11 4.8575e-14)
(2764.5 -7.76696e-11 5.28095e-14)
(2764.5 -7.97446e-11 5.22256e-14)
(2764.5 -7.49241e-11 4.63124e-14)
(2764.5 -7.28402e-11 4.74592e-14)
(2764.5 -6.99201e-11 5.05485e-14)
(2764.5 -7.29014e-11 4.35065e-14)
(2764.5 -7.7911e-11 4.5332e-14)
(2764.5 -7.49338e-11 4.87562e-14)
(2764.5 -7.26906e-11 5.1598e-14)
(2764.5 -7.20899e-11 4.54513e-14)
(2764.5 -7.12227e-11 4.58354e-14)
(2764.5 -7.64773e-11 3.04219e-14)
(2764.5 -7.20097e-11 2.73321e-14)
(2764.5 -6.81965e-11 3.44028e-14)
(2764.5 -6.99756e-11 3.3341e-14)
(2764.5 -7.62177e-11 2.94948e-14)
(2764.5 -7.34216e-11 3.66281e-14)
(2764.5 -7.38559e-11 4.37069e-14)
(2764.5 -7.02994e-11 4.00636e-14)
(2764.5 -6.93329e-11 3.44614e-14)
(2764.5 -7.33759e-11 4.06516e-14)
(2764.5 -6.94844e-11 3.6626e-14)
(2764.5 -6.82752e-11 2.65784e-14)
(2764.5 -7.80009e-11 3.0853e-14)
(2764.5 -7.76973e-11 2.64439e-14)
(2764.5 -7.00817e-11 3.17773e-14)
(2764.5 -6.8055e-11 3.43441e-14)
(2764.5 -7.25238e-11 4.03291e-14)
(2764.5 -6.73353e-11 3.26699e-14)
(2764.5 -6.91885e-11 2.53852e-14)
(2764.5 -6.91439e-11 2.72608e-14)
(2764.5 -7.10809e-11 2.68301e-14)
(2764.5 -6.72444e-11 2.6549e-14)
(2764.5 -6.75065e-11 2.67486e-14)
(2764.5 -7.09408e-11 2.80072e-14)
(2764.5 -7.37634e-11 2.99504e-14)
(2764.5 -7.43187e-11 2.02771e-14)
(2764.5 -7.24326e-11 2.07282e-14)
(2764.5 -7.3624e-11 2.07048e-14)
(2764.5 -7.50458e-11 2.09393e-14)
(2764.5 -7.63103e-11 2.14135e-14)
(2764.5 -7.87442e-11 1.96889e-14)
(2764.5 -7.42542e-11 2.12093e-14)
(2764.5 -7.30698e-11 2.47325e-14)
(2764.5 -7.53903e-11 2.37515e-14)
(2764.5 -7.84971e-11 2.32404e-14)
(2764.5 -7.82998e-11 2.43515e-14)
(2764.5 -7.96771e-11 2.72183e-14)
(2764.5 -7.74406e-11 2.6725e-14)
(2764.5 -7.75495e-11 2.79449e-14)
(2764.5 -7.73903e-11 2.74399e-14)
(2764.5 -7.5793e-11 2.39609e-14)
(2764.5 -7.51469e-11 1.79409e-14)
(2764.5 -7.63006e-11 1.96568e-14)
(2764.5 -7.94865e-11 2.01616e-14)
(2764.5 -7.93757e-11 2.08493e-14)
(2764.5 -8.20907e-11 2.27194e-14)
(2764.5 -8.44818e-11 2.40318e-14)
(2764.5 -8.63235e-11 2.24239e-14)
(2764.5 -8.61792e-11 2.28776e-14)
(2764.5 -8.61698e-11 2.12976e-14)
(2764.5 -8.63962e-11 2.13926e-14)
(2764.5 -8.75116e-11 2.42906e-14)
(2764.5 -8.94783e-11 2.43473e-14)
(2764.5 -8.84827e-11 2.06388e-14)
(2764.5 -8.9304e-11 1.86739e-14)
(2764.5 -9.26065e-11 1.84658e-14)
(2764.5 -9.54437e-11 1.69272e-14)
(2764.5 -9.54172e-11 1.66934e-14)
(2764.5 -9.59354e-11 2.87857e-14)
(2764.5 -8.96251e-11 1.83235e-14)
(2764.5 -8.99684e-11 1.95073e-14)
(2764.5 -8.97865e-11 2.08173e-14)
(2764.5 -8.37663e-11 1.54442e-14)
(2764.5 -8.58625e-11 2.22507e-14)
(2764.5 -8.64657e-11 2.27251e-14)
(2764.5 -9.16292e-11 2.20445e-14)
(2764.5 -9.32233e-11 1.94173e-14)
(2764.5 -1.03871e-10 2.19999e-14)
(2764.5 -1.024e-10 2.13622e-14)
(2764.5 -1.04465e-10 1.95869e-14)
(2764.5 -9.88212e-11 2.36171e-14)
(2764.5 -9.97911e-11 1.97988e-14)
(2764.5 -1.05426e-10 1.72515e-14)
(2764.5 -1.05844e-10 1.45253e-14)
(2764.5 -1.08192e-10 1.67521e-14)
(2764.5 -1.13488e-10 1.77173e-14)
(2764.5 -1.15345e-10 1.79876e-14)
(2764.5 -1.0748e-10 1.75826e-14)
(2764.5 -1.0629e-07 1.82069e-10)
(2764.5 -4.53282e-08 7.33758e-11)
(2764.5 -2.12401e-08 3.34882e-11)
(2764.5 -1.20344e-08 1.9177e-11)
(2764.5 -7.84446e-09 1.24954e-11)
(2764.5 -5.57295e-09 8.88296e-12)
(2764.5 -4.18745e-09 6.69129e-12)
(2764.5 -3.26545e-09 5.14136e-12)
(2764.5 -2.62082e-09 4.14641e-12)
(2764.5 -2.15556e-09 3.3569e-12)
(2764.5 -1.80492e-09 2.78947e-12)
(2764.5 -1.535e-09 2.4095e-12)
(2764.5 -1.32537e-09 2.03219e-12)
(2764.5 -1.15526e-09 1.74885e-12)
(2764.5 -1.02375e-09 1.53907e-12)
(2764.5 -9.2217e-10 1.36576e-12)
(2764.5 -8.14901e-10 1.16795e-12)
(2764.5 -7.33932e-10 1.07764e-12)
(2764.5 -6.7027e-10 9.60507e-13)
(2764.5 -6.19323e-10 8.97683e-13)
(2764.5 -5.63614e-10 7.98432e-13)
(2764.5 -5.27972e-10 6.93793e-13)
(2764.5 -4.86353e-10 6.70375e-13)
(2764.5 -4.55107e-10 6.02478e-13)
(2764.5 -4.26684e-10 5.97552e-13)
(2764.5 -3.97938e-10 5.46765e-13)
(2764.5 -3.73099e-10 5.21553e-13)
(2764.5 -3.57657e-10 4.65215e-13)
(2764.5 -3.37501e-10 4.2244e-13)
(2764.5 -3.14803e-10 4.07691e-13)
(2764.5 -2.95591e-10 3.6423e-13)
(2764.5 -2.82812e-10 3.70912e-13)
(2764.5 -2.72967e-10 3.16456e-13)
(2764.5 -2.65018e-10 3.17373e-13)
(2764.5 -2.5009e-10 3.1441e-13)
(2764.5 -2.52055e-10 2.77127e-13)
(2764.5 -2.37013e-10 2.56466e-13)
(2764.5 -2.22175e-10 2.61122e-13)
(2764.5 -2.15943e-10 2.53237e-13)
(2764.5 -2.12223e-10 2.24635e-13)
(2764.5 -2.06138e-10 2.12948e-13)
(2764.5 -1.99249e-10 2.07316e-13)
(2764.5 -1.94625e-10 2.1087e-13)
(2764.5 -1.88284e-10 1.9479e-13)
(2764.5 -1.87967e-10 1.67044e-13)
(2764.5 -1.79073e-10 1.76661e-13)
(2764.5 -1.67781e-10 1.74732e-13)
(2764.5 -1.70126e-10 1.66278e-13)
(2764.5 -1.67345e-10 1.61202e-13)
(2764.5 -1.66621e-10 1.72524e-13)
(2764.5 -1.64806e-10 1.55191e-13)
(2764.5 -1.6515e-10 1.4309e-13)
(2764.5 -1.55351e-10 1.36045e-13)
(2764.5 -1.49872e-10 1.28907e-13)
(2764.5 -1.51298e-10 1.21686e-13)
(2764.5 -1.46354e-10 1.19694e-13)
(2764.5 -1.41666e-10 1.10227e-13)
(2764.5 -1.3826e-10 1.04161e-13)
(2764.5 -1.37631e-10 1.2002e-13)
(2764.5 -1.44742e-10 1.15495e-13)
(2764.5 -1.42803e-10 1.06015e-13)
(2764.5 -1.39162e-10 1.10007e-13)
(2764.5 -1.38905e-10 1.03083e-13)
(2764.5 -1.37146e-10 8.48226e-14)
(2764.5 -1.33791e-10 9.4866e-14)
(2764.5 -1.30847e-10 9.23409e-14)
(2764.5 -1.28824e-10 8.09996e-14)
(2764.5 -1.30463e-10 8.97361e-14)
(2764.5 -1.32662e-10 8.12773e-14)
(2764.5 -1.28665e-10 7.66345e-14)
(2764.5 -1.26426e-10 7.68936e-14)
(2764.5 -1.23287e-10 7.91478e-14)
(2764.5 -1.20115e-10 7.26382e-14)
(2764.5 -1.21149e-10 7.57072e-14)
(2764.5 -1.22177e-10 8.17862e-14)
(2764.5 -1.20599e-10 8.18517e-14)
(2764.5 -1.18902e-10 6.89054e-14)
(2764.5 -1.20241e-10 6.88873e-14)
(2764.5 -1.24557e-10 6.82066e-14)
(2764.5 -1.24986e-10 6.43131e-14)
(2764.5 -1.1843e-10 6.136e-14)
(2764.5 -1.16171e-10 5.74418e-14)
(2764.5 -1.19247e-10 5.34669e-14)
(2764.5 -1.18417e-10 5.45091e-14)
(2764.5 -1.21431e-10 5.68732e-14)
(2764.5 -1.20917e-10 5.58226e-14)
(2764.5 -1.17926e-10 6.15766e-14)
(2764.5 -1.21665e-10 6.68658e-14)
(2764.5 -1.19405e-10 5.84631e-14)
(2764.5 -1.15108e-10 5.62329e-14)
(2764.5 -1.19083e-10 5.21579e-14)
(2764.5 -1.25393e-10 4.92828e-14)
(2764.5 -1.23362e-10 5.81674e-14)
(2764.5 -1.19015e-10 6.3964e-14)
(2764.5 -1.22712e-10 6.45739e-14)
(2764.5 -1.20923e-10 4.77825e-14)
(2764.5 -1.1997e-10 4.05978e-14)
(2764.5 -1.17336e-10 4.47635e-14)
(2764.5 -1.18208e-10 4.84348e-14)
(2764.5 -1.17729e-10 4.86423e-14)
(2764.5 -1.15252e-10 4.35147e-14)
(2764.5 -1.16903e-10 4.73214e-14)
(2764.5 -1.1813e-10 4.74938e-14)
(2764.5 -1.20994e-10 4.13704e-14)
(2764.5 -1.1819e-10 4.79442e-14)
(2764.5 -1.20472e-10 4.44238e-14)
(2764.5 -1.22669e-10 3.98079e-14)
(2764.5 -1.24686e-10 3.66468e-14)
(2764.5 -1.28564e-10 3.8174e-14)
(2764.5 -1.25452e-10 4.29554e-14)
(2764.5 -1.22176e-10 3.66352e-14)
(2764.5 -1.21397e-10 3.53951e-14)
(2764.5 -1.22175e-10 3.56577e-14)
(2764.5 -1.22956e-10 3.97951e-14)
(2764.5 -1.26469e-10 3.82979e-14)
(2764.5 -1.28083e-10 4.52498e-14)
(2764.5 -1.27911e-10 4.61448e-14)
(2764.5 -1.29117e-10 4.65606e-14)
(2764.5 -1.27316e-10 3.96195e-14)
(2764.5 -1.26446e-10 3.71821e-14)
(2764.5 -1.25004e-10 3.76949e-14)
(2764.5 -1.28343e-10 3.68941e-14)
(2764.5 -1.29125e-10 3.48298e-14)
(2764.5 -1.2949e-10 3.28307e-14)
(2764.5 -1.32858e-10 3.38983e-14)
(2764.5 -1.36427e-10 3.53117e-14)
(2764.5 -1.3939e-10 3.44804e-14)
(2764.5 -1.41219e-10 3.52884e-14)
(2764.5 -1.40957e-10 4.05075e-14)
(2764.5 -1.41418e-10 3.83449e-14)
(2764.5 -1.42195e-10 3.502e-14)
(2764.5 -1.43243e-10 3.9165e-14)
(2764.5 -1.43813e-10 4.09107e-14)
(2764.5 -1.49057e-10 3.45852e-14)
(2764.5 -1.51728e-10 3.56195e-14)
(2764.5 -1.54484e-10 3.06069e-14)
(2764.5 -1.57784e-10 2.35358e-14)
(2764.5 -1.57341e-10 3.19714e-14)
(2764.5 -1.58888e-10 3.85448e-14)
(2764.5 -1.59427e-10 3.56156e-14)
(2764.5 -1.54942e-10 2.89436e-14)
(2764.5 -1.52236e-10 2.82416e-14)
(2764.5 -1.52268e-10 3.07774e-14)
(2764.5 -1.5332e-10 2.91614e-14)
(2764.5 -1.5253e-10 3.36036e-14)
(2764.5 -1.60375e-10 2.90868e-14)
(2764.5 -1.66395e-10 2.96353e-14)
(2764.5 -1.67525e-10 2.99273e-14)
(2764.5 -1.68064e-10 3.58655e-14)
(2764.5 -1.63783e-10 3.33139e-14)
(2764.5 -1.67494e-10 3.06981e-14)
(2764.5 -1.69916e-10 3.04139e-14)
(2764.5 -1.7373e-10 3.35124e-14)
(2764.5 -1.80102e-10 2.41056e-14)
(2764.5 -1.84692e-10 3.36032e-14)
(2764.5 -1.87957e-10 3.17413e-14)
(2764.5 -1.37741e-07 2.33313e-10)
(2764.5 -6.63985e-08 1.05144e-10)
(2764.5 -3.25514e-08 4.94634e-11)
(2764.5 -1.83094e-08 2.76458e-11)
(2764.5 -1.17498e-08 1.77915e-11)
(2764.5 -8.26218e-09 1.25327e-11)
(2764.5 -6.17166e-09 9.4118e-12)
(2764.5 -4.80522e-09 7.28851e-12)
(2764.5 -3.85171e-09 5.83035e-12)
(2764.5 -3.15965e-09 4.77805e-12)
(2764.5 -2.6406e-09 3.89963e-12)
(2764.5 -2.24214e-09 3.37211e-12)
(2764.5 -1.93618e-09 2.87243e-12)
(2764.5 -1.69196e-09 2.49813e-12)
(2764.5 -1.49522e-09 2.25604e-12)
(2764.5 -1.33804e-09 1.92533e-12)
(2764.5 -1.19058e-09 1.68208e-12)
(2764.5 -1.07512e-09 1.5043e-12)
(2764.5 -9.78137e-10 1.33187e-12)
(2764.5 -8.97936e-10 1.26607e-12)
(2764.5 -8.20999e-10 1.11458e-12)
(2764.5 -7.62095e-10 1.02829e-12)
(2764.5 -7.05574e-10 9.50851e-13)
(2764.5 -6.59127e-10 8.72518e-13)
(2764.5 -6.16264e-10 8.11473e-13)
(2764.5 -5.78622e-10 7.43748e-13)
(2764.5 -5.44929e-10 6.97031e-13)
(2764.5 -5.17571e-10 6.37952e-13)
(2764.5 -4.88318e-10 6.17915e-13)
(2764.5 -4.56042e-10 5.67909e-13)
(2764.5 -4.30428e-10 5.38035e-13)
(2764.5 -4.09134e-10 5.11371e-13)
(2764.5 -3.96131e-10 4.92291e-13)
(2764.5 -3.8289e-10 4.57212e-13)
(2764.5 -3.64284e-10 4.34715e-13)
(2764.5 -3.56063e-10 3.95622e-13)
(2764.5 -3.43465e-10 3.79039e-13)
(2764.5 -3.22591e-10 3.46594e-13)
(2764.5 -3.13494e-10 3.52532e-13)
(2764.5 -3.07967e-10 3.18379e-13)
(2764.5 -2.99042e-10 3.08669e-13)
(2764.5 -2.84962e-10 2.86452e-13)
(2764.5 -2.73952e-10 2.83958e-13)
(2764.5 -2.67771e-10 2.64589e-13)
(2764.5 -2.64173e-10 2.67502e-13)
(2764.5 -2.58431e-10 2.43736e-13)
(2764.5 -2.47339e-10 2.47744e-13)
(2764.5 -2.42665e-10 2.35512e-13)
(2764.5 -2.41519e-10 2.35993e-13)
(2764.5 -2.36797e-10 2.28263e-13)
(2764.5 -2.38146e-10 2.09145e-13)
(2764.5 -2.33461e-10 2.06557e-13)
(2764.5 -2.21684e-10 1.94329e-13)
(2764.5 -2.14527e-10 1.85286e-13)
(2764.5 -2.13485e-10 1.67883e-13)
(2764.5 -2.10859e-10 1.72356e-13)
(2764.5 -2.06127e-10 1.6455e-13)
(2764.5 -1.99513e-10 1.58913e-13)
(2764.5 -1.98817e-10 1.69311e-13)
(2764.5 -2.00118e-10 1.66051e-13)
(2764.5 -2.02147e-10 1.53784e-13)
(2764.5 -1.99735e-10 1.40367e-13)
(2764.5 -1.9357e-10 1.34587e-13)
(2764.5 -1.92918e-10 1.32859e-13)
(2764.5 -1.91406e-10 1.46991e-13)
(2764.5 -1.83403e-10 1.34783e-13)
(2764.5 -1.82834e-10 1.21764e-13)
(2764.5 -1.82203e-10 1.28002e-13)
(2764.5 -1.86e-10 1.09088e-13)
(2764.5 -1.85786e-10 1.05555e-13)
(2764.5 -1.82401e-10 1.0674e-13)
(2764.5 -1.82847e-10 1.15122e-13)
(2764.5 -1.76895e-10 1.11799e-13)
(2764.5 -1.73219e-10 1.14748e-13)
(2764.5 -1.695e-10 1.07889e-13)
(2764.5 -1.71238e-10 1.04469e-13)
(2764.5 -1.66903e-10 1.06641e-13)
(2764.5 -1.66378e-10 1.0809e-13)
(2764.5 -1.69104e-10 1.01971e-13)
(2764.5 -1.73476e-10 9.23422e-14)
(2764.5 -1.70084e-10 8.27804e-14)
(2764.5 -1.67739e-10 9.35277e-14)
(2764.5 -1.71171e-10 8.70468e-14)
(2764.5 -1.7084e-10 8.69905e-14)
(2764.5 -1.68377e-10 8.32711e-14)
(2764.5 -1.6664e-10 8.88792e-14)
(2764.5 -1.65743e-10 8.51874e-14)
(2764.5 -1.67032e-10 8.0614e-14)
(2764.5 -1.68145e-10 7.51531e-14)
(2764.5 -1.65834e-10 8.06691e-14)
(2764.5 -1.66288e-10 7.8369e-14)
(2764.5 -1.70006e-10 7.86947e-14)
(2764.5 -1.71459e-10 8.13762e-14)
(2764.5 -1.68447e-10 8.71682e-14)
(2764.5 -1.69724e-10 7.71152e-14)
(2764.5 -1.68314e-10 7.36474e-14)
(2764.5 -1.66316e-10 7.54828e-14)
(2764.5 -1.64544e-10 6.83939e-14)
(2764.5 -1.67199e-10 6.65505e-14)
(2764.5 -1.68371e-10 6.48913e-14)
(2764.5 -1.65835e-10 5.90045e-14)
(2764.5 -1.65259e-10 6.23502e-14)
(2764.5 -1.6511e-10 6.56621e-14)
(2764.5 -1.65188e-10 6.70639e-14)
(2764.5 -1.63311e-10 6.5763e-14)
(2764.5 -1.64044e-10 6.44133e-14)
(2764.5 -1.6624e-10 6.11938e-14)
(2764.5 -1.69801e-10 6.03608e-14)
(2764.5 -1.7834e-10 5.62227e-14)
(2764.5 -1.77435e-10 4.949e-14)
(2764.5 -1.7523e-10 5.0639e-14)
(2764.5 -1.73814e-10 5.07828e-14)
(2764.5 -1.72253e-10 5.62918e-14)
(2764.5 -1.70818e-10 5.74277e-14)
(2764.5 -1.71904e-10 6.19412e-14)
(2764.5 -1.73325e-10 6.04837e-14)
(2764.5 -1.749e-10 5.91653e-14)
(2764.5 -1.78848e-10 5.61236e-14)
(2764.5 -1.7986e-10 5.1153e-14)
(2764.5 -1.78926e-10 5.35706e-14)
(2764.5 -1.77159e-10 5.35895e-14)
(2764.5 -1.76099e-10 5.21478e-14)
(2764.5 -1.7841e-10 4.84339e-14)
(2764.5 -1.78578e-10 5.06307e-14)
(2764.5 -1.79649e-10 5.39884e-14)
(2764.5 -1.85938e-10 5.14659e-14)
(2764.5 -1.92534e-10 5.65095e-14)
(2764.5 -1.96511e-10 5.70619e-14)
(2764.5 -1.97214e-10 5.08405e-14)
(2764.5 -1.97994e-10 4.94379e-14)
(2764.5 -1.96996e-10 5.04006e-14)
(2764.5 -1.96424e-10 5.16756e-14)
(2764.5 -1.96399e-10 4.98844e-14)
(2764.5 -1.99459e-10 4.89662e-14)
(2764.5 -2.02694e-10 4.81085e-14)
(2764.5 -2.05802e-10 4.58048e-14)
(2764.5 -2.10895e-10 5.14983e-14)
(2764.5 -2.15994e-10 5.23521e-14)
(2764.5 -2.18027e-10 4.93404e-14)
(2764.5 -2.18781e-10 4.59665e-14)
(2764.5 -2.18254e-10 4.68321e-14)
(2764.5 -2.19351e-10 4.7753e-14)
(2764.5 -2.20381e-10 4.20486e-14)
(2764.5 -2.14808e-10 4.41511e-14)
(2764.5 -2.14353e-10 4.5324e-14)
(2764.5 -2.15393e-10 4.63648e-14)
(2764.5 -2.22629e-10 4.51301e-14)
(2764.5 -2.27231e-10 4.71385e-14)
(2764.5 -2.30482e-10 4.51184e-14)
(2764.5 -2.34129e-10 4.28535e-14)
(2764.5 -2.29634e-10 4.41075e-14)
(2764.5 -2.31465e-10 4.7339e-14)
(2764.5 -2.38964e-10 5.145e-14)
(2764.5 -2.42275e-10 4.11541e-14)
(2764.5 -2.47805e-10 4.3647e-14)
(2764.5 -2.52939e-10 4.10317e-14)
(2764.5 -1.62715e-07 2.73856e-10)
(2764.5 -8.68508e-08 1.35933e-10)
(2764.5 -4.48728e-08 6.63511e-11)
(2764.5 -2.54093e-08 3.67752e-11)
(2764.5 -1.61506e-08 2.35023e-11)
(2764.5 -1.12452e-08 1.64349e-11)
(2764.5 -8.34424e-09 1.21743e-11)
(2764.5 -6.4798e-09 9.47523e-12)
(2764.5 -5.18449e-09 7.60544e-12)
(2764.5 -4.24229e-09 6.26964e-12)
(2764.5 -3.54366e-09 5.15433e-12)
(2764.5 -3.00389e-09 4.35982e-12)
(2764.5 -2.59128e-09 3.70031e-12)
(2764.5 -2.26699e-09 3.22563e-12)
(2764.5 -2.00013e-09 2.86694e-12)
(2764.5 -1.78149e-09 2.50802e-12)
(2764.5 -1.59345e-09 2.18605e-12)
(2764.5 -1.44125e-09 1.98279e-12)
(2764.5 -1.30648e-09 1.79991e-12)
(2764.5 -1.19803e-09 1.62455e-12)
(2764.5 -1.09701e-09 1.48773e-12)
(2764.5 -1.01374e-09 1.3625e-12)
(2764.5 -9.42527e-10 1.22728e-12)
(2764.5 -8.80014e-10 1.1479e-12)
(2764.5 -8.19315e-10 1.0344e-12)
(2764.5 -7.6523e-10 1.00154e-12)
(2764.5 -7.20377e-10 9.14477e-13)
(2764.5 -6.85716e-10 8.6884e-13)
(2764.5 -6.49229e-10 8.26292e-13)
(2764.5 -6.05411e-10 7.5974e-13)
(2764.5 -5.71427e-10 6.97033e-13)
(2764.5 -5.44993e-10 6.66327e-13)
(2764.5 -5.26827e-10 6.11783e-13)
(2764.5 -5.10927e-10 5.68094e-13)
(2764.5 -4.81656e-10 5.51075e-13)
(2764.5 -4.63305e-10 5.3436e-13)
(2764.5 -4.52639e-10 4.95019e-13)
(2764.5 -4.31014e-10 4.68728e-13)
(2764.5 -4.12656e-10 4.34202e-13)
(2764.5 -4.06547e-10 4.10672e-13)
(2764.5 -3.9398e-10 4.12905e-13)
(2764.5 -3.76829e-10 3.94161e-13)
(2764.5 -3.65369e-10 3.76007e-13)
(2764.5 -3.50155e-10 3.64063e-13)
(2764.5 -3.44716e-10 3.50922e-13)
(2764.5 -3.36398e-10 3.33362e-13)
(2764.5 -3.26159e-10 3.12734e-13)
(2764.5 -3.16252e-10 3.05157e-13)
(2764.5 -3.13893e-10 2.90779e-13)
(2764.5 -3.11193e-10 2.69274e-13)
(2764.5 -3.08964e-10 2.75324e-13)
(2764.5 -3.0883e-10 2.63285e-13)
(2764.5 -2.95366e-10 2.53692e-13)
(2764.5 -2.82748e-10 2.41549e-13)
(2764.5 -2.74972e-10 2.39465e-13)
(2764.5 -2.69457e-10 2.33265e-13)
(2764.5 -2.65871e-10 2.13127e-13)
(2764.5 -2.61957e-10 2.04609e-13)
(2764.5 -2.62821e-10 2.14354e-13)
(2764.5 -2.65063e-10 1.98697e-13)
(2764.5 -2.62835e-10 1.87707e-13)
(2764.5 -2.58352e-10 1.77427e-13)
(2764.5 -2.5617e-10 1.82244e-13)
(2764.5 -2.55263e-10 1.91091e-13)
(2764.5 -2.51113e-10 1.73614e-13)
(2764.5 -2.43957e-10 1.77357e-13)
(2764.5 -2.39655e-10 1.69385e-13)
(2764.5 -2.33065e-10 1.54426e-13)
(2764.5 -2.34789e-10 1.62836e-13)
(2764.5 -2.38447e-10 1.59117e-13)
(2764.5 -2.34566e-10 1.49793e-13)
(2764.5 -2.35445e-10 1.50206e-13)
(2764.5 -2.33609e-10 1.44757e-13)
(2764.5 -2.29893e-10 1.40521e-13)
(2764.5 -2.23087e-10 1.44013e-13)
(2764.5 -2.23343e-10 1.39543e-13)
(2764.5 -2.20266e-10 1.38201e-13)
(2764.5 -2.17437e-10 1.30911e-13)
(2764.5 -2.14202e-10 1.20874e-13)
(2764.5 -2.16542e-10 1.19711e-13)
(2764.5 -2.15606e-10 1.28306e-13)
(2764.5 -2.12799e-10 1.18692e-13)
(2764.5 -2.14564e-10 1.12602e-13)
(2764.5 -2.17485e-10 1.14105e-13)
(2764.5 -2.21455e-10 1.13575e-13)
(2764.5 -2.16464e-10 1.0861e-13)
(2764.5 -2.14416e-10 1.01725e-13)
(2764.5 -2.13373e-10 1.07202e-13)
(2764.5 -2.153e-10 1.13407e-13)
(2764.5 -2.1337e-10 1.12616e-13)
(2764.5 -2.12227e-10 1.03172e-13)
(2764.5 -2.17708e-10 1.01417e-13)
(2764.5 -2.18432e-10 9.94535e-14)
(2764.5 -2.17832e-10 9.65463e-14)
(2764.5 -2.187e-10 9.58925e-14)
(2764.5 -2.18392e-10 9.78354e-14)
(2764.5 -2.16198e-10 8.9434e-14)
(2764.5 -2.09355e-10 8.75796e-14)
(2764.5 -2.09632e-10 8.95573e-14)
(2764.5 -2.17545e-10 8.32087e-14)
(2764.5 -2.15985e-10 7.82785e-14)
(2764.5 -2.13761e-10 8.31514e-14)
(2764.5 -2.14248e-10 8.7176e-14)
(2764.5 -2.14379e-10 7.93648e-14)
(2764.5 -2.12929e-10 7.94742e-14)
(2764.5 -2.12668e-10 8.32804e-14)
(2764.5 -2.14861e-10 8.02926e-14)
(2764.5 -2.15426e-10 7.8291e-14)
(2764.5 -2.22021e-10 7.37673e-14)
(2764.5 -2.2681e-10 7.63376e-14)
(2764.5 -2.28678e-10 7.64162e-14)
(2764.5 -2.28359e-10 7.41177e-14)
(2764.5 -2.29974e-10 7.65683e-14)
(2764.5 -2.28728e-10 6.46557e-14)
(2764.5 -2.26138e-10 6.38655e-14)
(2764.5 -2.2372e-10 6.7884e-14)
(2764.5 -2.22392e-10 7.29115e-14)
(2764.5 -2.26157e-10 7.02513e-14)
(2764.5 -2.29862e-10 7.40095e-14)
(2764.5 -2.3262e-10 7.49468e-14)
(2764.5 -2.33521e-10 6.95797e-14)
(2764.5 -2.28988e-10 6.5747e-14)
(2764.5 -2.28386e-10 6.87594e-14)
(2764.5 -2.29015e-10 7.12333e-14)
(2764.5 -2.29823e-10 6.45489e-14)
(2764.5 -2.32124e-10 6.84635e-14)
(2764.5 -2.37811e-10 7.19766e-14)
(2764.5 -2.44495e-10 6.24664e-14)
(2764.5 -2.48507e-10 6.14889e-14)
(2764.5 -2.54713e-10 6.05109e-14)
(2764.5 -2.57585e-10 6.14631e-14)
(2764.5 -2.57223e-10 6.56435e-14)
(2764.5 -2.5678e-10 6.48432e-14)
(2764.5 -2.57497e-10 6.67066e-14)
(2764.5 -2.58709e-10 6.71271e-14)
(2764.5 -2.59869e-10 6.6215e-14)
(2764.5 -2.60563e-10 6.64832e-14)
(2764.5 -2.66295e-10 6.18592e-14)
(2764.5 -2.71972e-10 5.98624e-14)
(2764.5 -2.73448e-10 5.79268e-14)
(2764.5 -2.74684e-10 6.07415e-14)
(2764.5 -2.76819e-10 5.86231e-14)
(2764.5 -2.80061e-10 6.09366e-14)
(2764.5 -2.78602e-10 5.83988e-14)
(2764.5 -2.76864e-10 6.19858e-14)
(2764.5 -2.79531e-10 6.0134e-14)
(2764.5 -2.8207e-10 5.64072e-14)
(2764.5 -2.85402e-10 5.47738e-14)
(2764.5 -2.8918e-10 5.45672e-14)
(2764.5 -2.93549e-10 5.82032e-14)
(2764.5 -2.91933e-10 5.21967e-14)
(2764.5 -2.94305e-10 6.15918e-14)
(2764.5 -2.99838e-10 5.61238e-14)
(2764.5 -3.04521e-10 5.39149e-14)
(2764.5 -3.10327e-10 6.19739e-14)
(2764.5 -3.16501e-10 5.99112e-14)
(2764.5 -1.82797e-07 3.07135e-10)
(2764.5 -1.06077e-07 1.64665e-10)
(2764.5 -5.78057e-08 8.35043e-11)
(2764.5 -3.32599e-08 4.65552e-11)
(2764.5 -2.10581e-08 2.94817e-11)
(2764.5 -1.45384e-08 2.04476e-11)
(2764.5 -1.07186e-08 1.52504e-11)
(2764.5 -8.29916e-09 1.17238e-11)
(2764.5 -6.6271e-09 9.34611e-12)
(2764.5 -5.40525e-09 7.65986e-12)
(2764.5 -4.50845e-09 6.36005e-12)
(2764.5 -3.81982e-09 5.35858e-12)
(2764.5 -3.28856e-09 4.59581e-12)
(2764.5 -2.87706e-09 4.02054e-12)
(2764.5 -2.53886e-09 3.48093e-12)
(2764.5 -2.25644e-09 3.06254e-12)
(2764.5 -2.02438e-09 2.72782e-12)
(2764.5 -1.82591e-09 2.42362e-12)
(2764.5 -1.65346e-09 2.2079e-12)
(2764.5 -1.51451e-09 1.97348e-12)
(2764.5 -1.39047e-09 1.82044e-12)
(2764.5 -1.28423e-09 1.66148e-12)
(2764.5 -1.19408e-09 1.51432e-12)
(2764.5 -1.11335e-09 1.36811e-12)
(2764.5 -1.03621e-09 1.29109e-12)
(2764.5 -9.66956e-10 1.22247e-12)
(2764.5 -9.04069e-10 1.12656e-12)
(2764.5 -8.59476e-10 1.06661e-12)
(2764.5 -8.16834e-10 9.76922e-13)
(2764.5 -7.66508e-10 8.94848e-13)
(2764.5 -7.24377e-10 8.58285e-13)
(2764.5 -6.92975e-10 8.02201e-13)
(2764.5 -6.62434e-10 7.52993e-13)
(2764.5 -6.34688e-10 7.21435e-13)
(2764.5 -6.06087e-10 6.7796e-13)
(2764.5 -5.81831e-10 6.1554e-13)
(2764.5 -5.66407e-10 6.22644e-13)
(2764.5 -5.45641e-10 5.79387e-13)
(2764.5 -5.1968e-10 5.51111e-13)
(2764.5 -5.05224e-10 5.29378e-13)
(2764.5 -4.88279e-10 4.90512e-13)
(2764.5 -4.7483e-10 4.70252e-13)
(2764.5 -4.5848e-10 4.52209e-13)
(2764.5 -4.40475e-10 4.42966e-13)
(2764.5 -4.28646e-10 4.22268e-13)
(2764.5 -4.19713e-10 4.20159e-13)
(2764.5 -4.08522e-10 3.81038e-13)
(2764.5 -3.97202e-10 3.72258e-13)
(2764.5 -3.88613e-10 3.65265e-13)
(2764.5 -3.83927e-10 3.41968e-13)
(2764.5 -3.80526e-10 3.33378e-13)
(2764.5 -3.84222e-10 3.19364e-13)
(2764.5 -3.7472e-10 3.05953e-13)
(2764.5 -3.5749e-10 3.0396e-13)
(2764.5 -3.42921e-10 2.87442e-13)
(2764.5 -3.34343e-10 2.75645e-13)
(2764.5 -3.24432e-10 2.64846e-13)
(2764.5 -3.20788e-10 2.64632e-13)
(2764.5 -3.2363e-10 2.53633e-13)
(2764.5 -3.23864e-10 2.40771e-13)
(2764.5 -3.28193e-10 2.39745e-13)
(2764.5 -3.24204e-10 2.28737e-13)
(2764.5 -3.21239e-10 2.26008e-13)
(2764.5 -3.201e-10 2.17285e-13)
(2764.5 -3.16111e-10 2.11899e-13)
(2764.5 -3.08178e-10 2.16819e-13)
(2764.5 -3.01829e-10 2.00373e-13)
(2764.5 -2.91446e-10 1.86993e-13)
(2764.5 -2.8652e-10 1.99135e-13)
(2764.5 -2.89961e-10 1.89733e-13)
(2764.5 -2.91025e-10 1.77435e-13)
(2764.5 -2.89172e-10 1.77228e-13)
(2764.5 -2.89114e-10 1.78307e-13)
(2764.5 -2.83426e-10 1.65564e-13)
(2764.5 -2.79797e-10 1.72763e-13)
(2764.5 -2.77062e-10 1.67393e-13)
(2764.5 -2.73532e-10 1.62077e-13)
(2764.5 -2.73246e-10 1.54987e-13)
(2764.5 -2.67233e-10 1.66515e-13)
(2764.5 -2.6943e-10 1.58282e-13)
(2764.5 -2.66701e-10 1.55578e-13)
(2764.5 -2.66262e-10 1.41855e-13)