/*--------------------------------*- C++ -*----------------------------------*\
| =========                 |                                                 |
| \\      /  F ield         | OpenFOAM: The Open Source CFD Toolbox           |
|  \\    /   O peration     | Version:  v1706                                 |
|   \\  /    A nd           | Web:      www.OpenFOAM.com                      |
|    \\/     M anipulation  |                                                 |
\*---------------------------------------------------------------------------*/
FoamFile
{
    version     2.0;
    format      ascii;
    class       volScalarField;
    location    "5e-06";
    object      wallHeatFlux;
}
// * * * * * * * * * * * * * * * * * * * * * * * * * * * * * * * * * * * * * //

dimensions      [1 0 -3 0 0 0 0];


internalField   uniform 0;

boundaryField
{
    cone
    {
        type            calculated;
        value           nonuniform List<scalar> 
147
(
479108
478966
478814
478659
478495
478306
478081
477814
477505
477157
476767
476342
475878
475378
474844
474276
473676
473044
472384
471696
470980
470240
469476
468690
467885
467061
466222
465368
464503
463626
462741
461847
460948
460045
459141
458238
457340
456448
455565
454696
453841
453006
452193
451406
450647
449923
449235
448589
447989
447440
446946
446511
446142
445843
445619
445476
445420
445456
445590
445829
446177
446642
447231
447949
448803
449800
450948
452253
453723
455365
457187
459196
461400
463807
466425
469261
472324
475621
479159
482948
486993
491303
495885
500744
505887
511319
517045
523066
529387
536006
542921
550129
557626
565402
573445
581739
590265
598997
607906
616958
626109
635311
644508
653638
662630
671409
679896
688011
695673
702795
709284
715040
719964
723976
727010
729019
729974
729865
728710
726533
723375
719309
714407
708751
702430
695532
688145
680341
672196
663778
655138
646325
637383
628345
619244
610104
600948
591798
582675
573602
564598
555684
546883
538214
529699
521358
479602
)
;
    }
    inlet
    {
        type            calculated;
        value           uniform 0;
    }
    rWedge
    {
        type            wedge;
    }
    lWedge
    {
        type            wedge;
    }
    outlet
    {
        type            calculated;
        value           nonuniform 0();
    }
    procBoundary3to2
    {
        type            processor;
        value           uniform 0;
    }
}


// ************************************************************************* //
