# St ()      
# Time       	patch        	min          	max          	average      
