/*--------------------------------*- C++ -*----------------------------------*\
| =========                 |                                                 |
| \\      /  F ield         | OpenFOAM: The Open Source CFD Toolbox           |
|  \\    /   O peration     | Version:  v1706                                 |
|   \\  /    A nd           | Web:      www.OpenFOAM.com                      |
|    \\/     M anipulation  |                                                 |
\*---------------------------------------------------------------------------*/
FoamFile
{
    version     2.0;
    format      ascii;
    class       volVectorField;
    location    "6e-06";
    object      U;
}
// * * * * * * * * * * * * * * * * * * * * * * * * * * * * * * * * * * * * * //

dimensions      [0 1 -1 0 0 0 0];


internalField   nonuniform List<vector> 
29987
(
(2764.5 -2.0883e-08 4.08186e-11)
(2764.5 -6.56097e-09 1.19905e-11)
(2764.5 -3.16187e-09 5.80697e-12)
(2764.5 -1.95473e-09 3.46173e-12)
(2764.5 -1.33601e-09 2.32554e-12)
(2764.5 -9.67142e-10 1.69043e-12)
(2764.5 -7.29115e-10 1.28999e-12)
(2764.5 -5.7224e-10 1.00735e-12)
(2764.5 -4.63039e-10 8.1164e-13)
(2764.5 -3.81414e-10 6.92308e-13)
(2764.5 -3.19315e-10 5.21576e-13)
(2764.5 -2.74081e-10 4.55735e-13)
(2764.5 -2.34417e-10 4.22228e-13)
(2764.5 -2.04189e-10 3.50747e-13)
(2764.5 -1.82879e-10 3.12822e-13)
(2764.5 -1.68782e-10 2.62792e-13)
(2764.5 -1.46784e-10 2.19309e-13)
(2764.5 -1.32082e-10 1.93379e-13)
(2764.5 -1.20148e-10 1.84127e-13)
(2764.5 -1.12404e-10 1.73275e-13)
(2764.5 -9.96843e-11 1.70088e-13)
(2764.5 -9.69271e-11 1.41178e-13)
(2764.5 -8.74979e-11 1.33615e-13)
(2764.5 -8.01911e-11 1.12418e-13)
(2764.5 -7.50173e-11 1.13526e-13)
(2764.5 -7.38767e-11 1.15278e-13)
(2764.5 -6.49099e-11 9.11055e-14)
(2764.5 -6.63893e-11 7.92426e-14)
(2764.5 -6.03282e-11 8.82497e-14)
(2764.5 -5.56707e-11 8.0342e-14)
(2764.5 -5.67539e-11 8.66061e-14)
(2764.5 -5.21348e-11 7.43784e-14)
(2764.5 -4.8652e-11 6.43317e-14)
(2764.5 -5.01333e-11 5.95967e-14)
(2764.5 -4.51713e-11 6.32134e-14)
(2764.5 -4.61771e-11 5.60334e-14)
(2764.5 -4.52753e-11 5.52183e-14)
(2764.5 -3.94403e-11 4.24889e-14)
(2764.5 -4.08027e-11 4.13485e-14)
(2764.5 -4.11542e-11 4.59697e-14)
(2764.5 -3.78137e-11 3.66378e-14)
(2764.5 -3.67454e-11 3.75205e-14)
(2764.5 -3.67978e-11 4.4959e-14)
(2764.5 -3.50557e-11 4.07392e-14)
(2764.5 -3.48532e-11 3.88761e-14)
(2764.5 -3.28209e-11 3.25996e-14)
(2764.5 -3.33036e-11 4.26303e-14)
(2764.5 -3.31746e-11 3.1247e-14)
(2764.5 -2.9829e-11 2.85895e-14)
(2764.5 -3.23284e-11 3.43672e-14)
(2764.5 -3.0237e-11 3.24822e-14)
(2764.5 -3.03367e-11 3.11945e-14)
(2764.5 -2.84585e-11 2.90407e-14)
(2764.5 -2.90201e-11 2.81917e-14)
(2764.5 -2.86994e-11 2.87492e-14)
(2764.5 -2.69969e-11 2.24504e-14)
(2764.5 -2.89792e-11 2.08251e-14)
(2764.5 -2.772e-11 2.03052e-14)
(2764.5 -2.97928e-11 2.10212e-14)
(2764.5 -2.89537e-11 2.59866e-14)
(2764.5 -2.77556e-11 2.62117e-14)
(2764.5 -2.60627e-11 1.22628e-14)
(2764.5 -2.77377e-11 1.85113e-14)
(2764.5 -2.55767e-11 2.19579e-14)
(2764.5 -2.47254e-11 1.70265e-14)
(2764.5 -2.66249e-11 1.45719e-14)
(2764.5 -2.52682e-11 1.47131e-14)
(2764.5 -2.46017e-11 1.79105e-14)
(2764.5 -2.60313e-11 1.83408e-14)
(2764.5 -2.67429e-11 1.63118e-14)
(2764.5 -2.57818e-11 1.39514e-14)
(2764.5 -2.34982e-11 1.63251e-14)
(2764.5 -2.48714e-11 1.38381e-14)
(2764.5 -2.36805e-11 1.42469e-14)
(2764.5 -2.35489e-11 1.81776e-14)
(2764.5 -2.57298e-11 1.59256e-14)
(2764.5 -2.54516e-11 1.45464e-14)
(2764.5 -2.6356e-11 1.64861e-14)
(2764.5 -2.54701e-11 1.08264e-14)
(2764.5 -2.52914e-11 7.49747e-15)
(2764.5 -2.37884e-11 1.20545e-14)
(2764.5 -2.49659e-11 1.19156e-14)
(2764.5 -2.52795e-11 7.47589e-15)
(2764.5 -2.41795e-11 1.0013e-14)
(2764.5 -2.42101e-11 1.13763e-14)
(2764.5 -2.39768e-11 9.91829e-15)
(2764.5 -2.49915e-11 9.40103e-15)
(2764.5 -2.53415e-11 9.67539e-15)
(2764.5 -2.29943e-11 1.33105e-14)
(2764.5 -2.45243e-11 8.48643e-15)
(2764.5 -2.47275e-11 5.83485e-15)
(2764.5 -2.55743e-11 6.29374e-15)
(2764.5 -2.29923e-11 1.10686e-14)
(2764.5 -2.38049e-11 1.31785e-14)
(2764.5 -2.54062e-11 1.31907e-14)
(2764.5 -2.48684e-11 1.1967e-14)
(2764.5 -2.32601e-11 7.78083e-15)
(2764.5 -2.22989e-11 1.09704e-14)
(2764.5 -2.31577e-11 1.2317e-14)
(2764.5 -2.20345e-11 8.0092e-15)
(2764.5 -2.35305e-11 6.35229e-15)
(2764.5 -2.42933e-11 1.4039e-14)
(2764.5 -2.43675e-11 1.2947e-14)
(2764.5 -2.25541e-11 9.75596e-15)
(2764.5 -2.21489e-11 1.0493e-14)
(2764.5 -2.38431e-11 9.03066e-15)
(2764.5 -2.53814e-11 6.58367e-15)
(2764.5 -2.68142e-11 7.07857e-15)
(2764.5 -2.48482e-11 1.00035e-14)
(2764.5 -2.345e-11 6.9604e-15)
(2764.5 -2.44638e-11 7.24998e-15)
(2764.5 -2.4868e-11 7.25929e-15)
(2764.5 -2.51423e-11 9.06141e-15)
(2764.5 -2.42884e-11 7.30749e-15)
(2764.5 -2.4927e-11 9.64258e-15)
(2764.5 -2.43671e-11 7.68158e-15)
(2764.5 -2.54393e-11 8.73081e-15)
(2764.5 -2.52322e-11 1.14383e-14)
(2764.5 -2.52902e-11 1.16064e-14)
(2764.5 -2.75348e-11 6.20175e-15)
(2764.5 -2.93279e-11 6.88007e-15)
(2764.5 -2.91008e-11 9.35199e-15)
(2764.5 -2.88138e-11 7.40425e-15)
(2764.5 -3.00333e-11 8.76351e-15)
(2764.5 -2.92597e-11 9.24603e-15)
(2764.5 -2.90259e-11 7.97273e-15)
(2764.5 -2.82298e-11 8.99249e-15)
(2764.5 -3.01885e-11 8.17884e-15)
(2764.5 -3.15219e-11 9.05663e-15)
(2764.5 -3.25521e-11 7.07352e-15)
(2764.5 -3.29332e-11 1.08498e-14)
(2764.5 -3.08655e-11 1.00331e-14)
(2764.5 -3.04439e-11 6.9816e-15)
(2764.5 -3.24484e-11 3.51442e-15)
(2764.5 -2.91981e-11 8.54272e-15)
(2764.5 -2.64273e-11 1.86929e-15)
(2764.5 -2.67138e-11 9.89614e-15)
(2764.5 -2.65963e-11 1.09412e-14)
(2764.5 -2.7647e-11 2.52543e-15)
(2764.5 -2.80347e-11 1.2123e-14)
(2764.5 -2.98476e-11 1.88284e-15)
(2764.5 -3.20693e-11 2.153e-15)
(2764.5 -3.50217e-11 7.10748e-15)
(2764.5 -3.45711e-11 4.55885e-15)
(2764.5 -3.39061e-11 7.29871e-15)
(2764.5 -3.24399e-11 9.03632e-15)
(2764.5 -2.97637e-11 9.84731e-15)
(2764.5 -3.05717e-11 1.11797e-14)
(2764.5 -3.42079e-11 6.06359e-15)
(2764.5 -3.67751e-11 6.32217e-15)
(2764.5 -3.88289e-11 3.024e-15)
(2764.5 -3.77247e-11 5.93797e-15)
(2764.5 -3.88686e-11 3.12395e-15)
(2764.5 -3.87805e-11 6.58596e-15)
(2764.5 -3.65793e-11 9.29398e-15)
(2764.5 -4.04909e-11 5.30778e-15)
(2764.5 -6.69625e-08 1.17867e-10)
(2764.5 -2.47773e-08 4.14853e-11)
(2764.5 -1.13588e-08 1.87868e-11)
(2764.5 -6.61227e-09 1.10923e-11)
(2764.5 -4.38401e-09 7.39252e-12)
(2764.5 -3.14345e-09 5.32311e-12)
(2764.5 -2.37707e-09 4.00848e-12)
(2764.5 -1.85498e-09 3.09849e-12)
(2764.5 -1.49436e-09 2.50644e-12)
(2764.5 -1.23094e-09 2.02714e-12)
(2764.5 -1.03207e-09 1.61503e-12)
(2764.5 -8.78883e-10 1.41223e-12)
(2764.5 -7.57346e-10 1.18883e-12)
(2764.5 -6.61388e-10 1.04645e-12)
(2764.5 -5.84573e-10 8.85663e-13)
(2764.5 -5.26285e-10 8.23401e-13)
(2764.5 -4.71062e-10 6.98323e-13)
(2764.5 -4.23422e-10 6.28896e-13)
(2764.5 -3.87432e-10 5.85542e-13)
(2764.5 -3.56858e-10 5.25516e-13)
(2764.5 -3.24969e-10 4.88224e-13)
(2764.5 -3.05954e-10 4.12697e-13)
(2764.5 -2.82173e-10 3.92372e-13)
(2764.5 -2.64605e-10 3.45014e-13)
(2764.5 -2.40742e-10 3.4135e-13)
(2764.5 -2.28918e-10 3.36876e-13)
(2764.5 -2.13072e-10 2.98085e-13)
(2764.5 -2.05911e-10 2.66689e-13)
(2764.5 -1.92097e-10 2.69461e-13)
(2764.5 -1.81934e-10 2.49651e-13)
(2764.5 -1.75662e-10 2.15645e-13)
(2764.5 -1.65814e-10 2.1593e-13)
(2764.5 -1.55152e-10 1.79095e-13)
(2764.5 -1.51763e-10 1.69091e-13)
(2764.5 -1.47244e-10 1.73651e-13)
(2764.5 -1.44999e-10 1.69112e-13)
(2764.5 -1.38806e-10 1.56491e-13)
(2764.5 -1.26774e-10 1.48076e-13)
(2764.5 -1.26174e-10 1.39411e-13)
(2764.5 -1.27448e-10 1.28434e-13)
(2764.5 -1.19178e-10 1.11047e-13)
(2764.5 -1.14133e-10 1.17159e-13)
(2764.5 -1.14303e-10 1.30473e-13)
(2764.5 -1.08576e-10 1.17656e-13)
(2764.5 -1.11265e-10 9.46353e-14)
(2764.5 -9.88655e-11 1.09616e-13)
(2764.5 -1.02503e-10 1.07505e-13)
(2764.5 -1.06974e-10 9.00693e-14)
(2764.5 -9.73847e-11 8.8935e-14)
(2764.5 -9.55165e-11 9.84267e-14)
(2764.5 -9.23705e-11 9.54648e-14)
(2764.5 -9.56433e-11 8.4025e-14)
(2764.5 -8.9325e-11 8.22799e-14)
(2764.5 -9.00503e-11 6.36032e-14)
(2764.5 -9.21548e-11 6.80225e-14)
(2764.5 -8.51217e-11 6.37089e-14)
(2764.5 -8.31463e-11 6.2903e-14)
(2764.5 -8.1592e-11 6.30758e-14)
(2764.5 -8.48021e-11 7.08094e-14)
(2764.5 -8.69987e-11 7.07701e-14)
(2764.5 -8.73022e-11 6.02814e-14)
(2764.5 -8.10662e-11 4.4047e-14)
(2764.5 -8.20803e-11 6.49783e-14)
(2764.5 -8.17211e-11 5.89075e-14)
(2764.5 -7.65301e-11 5.2512e-14)
(2764.5 -7.69266e-11 5.26842e-14)
(2764.5 -7.89184e-11 4.37908e-14)
(2764.5 -7.37147e-11 5.44455e-14)
(2764.5 -7.42778e-11 5.42708e-14)
(2764.5 -7.50522e-11 4.67008e-14)
(2764.5 -7.90047e-11 4.84678e-14)
(2764.5 -7.68583e-11 4.97281e-14)
(2764.5 -7.57793e-11 4.36032e-14)
(2764.5 -7.27322e-11 4.54683e-14)
(2764.5 -7.24798e-11 4.89535e-14)
(2764.5 -7.0357e-11 5.09946e-14)
(2764.5 -6.80361e-11 4.46476e-14)
(2764.5 -6.9654e-11 4.46527e-14)
(2764.5 -7.24156e-11 2.96068e-14)
(2764.5 -7.14066e-11 2.86311e-14)
(2764.5 -7.08258e-11 3.52843e-14)
(2764.5 -7.16579e-11 3.27928e-14)
(2764.5 -7.80022e-11 2.90541e-14)
(2764.5 -7.29238e-11 3.78726e-14)
(2764.5 -6.85833e-11 4.45973e-14)
(2764.5 -6.66354e-11 4.17852e-14)
(2764.5 -6.99233e-11 3.54852e-14)
(2764.5 -7.46633e-11 3.94191e-14)
(2764.5 -7.18491e-11 3.59909e-14)
(2764.5 -7.01113e-11 2.55599e-14)
(2764.5 -7.19172e-11 3.11074e-14)
(2764.5 -7.45714e-11 2.61106e-14)
(2764.5 -7.21713e-11 3.36145e-14)
(2764.5 -6.95145e-11 3.47721e-14)
(2764.5 -6.97331e-11 3.9391e-14)
(2764.5 -7.10811e-11 3.15852e-14)
(2764.5 -7.36653e-11 2.58523e-14)
(2764.5 -7.07947e-11 2.80278e-14)
(2764.5 -7.17556e-11 2.68081e-14)
(2764.5 -7.06408e-11 2.60497e-14)
(2764.5 -7.05941e-11 2.60933e-14)
(2764.5 -7.19465e-11 2.66283e-14)
(2764.5 -7.47957e-11 2.98461e-14)
(2764.5 -7.5244e-11 1.97325e-14)
(2764.5 -7.25631e-11 2.07171e-14)
(2764.5 -7.0251e-11 2.03916e-14)
(2764.5 -6.97998e-11 2.122e-14)
(2764.5 -7.52369e-11 2.20792e-14)
(2764.5 -7.67073e-11 1.97303e-14)
(2764.5 -7.52187e-11 2.07697e-14)
(2764.5 -7.24896e-11 2.39256e-14)
(2764.5 -7.32478e-11 2.26529e-14)
(2764.5 -7.64028e-11 2.25073e-14)
(2764.5 -7.6077e-11 2.35118e-14)
(2764.5 -7.8469e-11 2.67746e-14)
(2764.5 -7.69357e-11 2.62176e-14)
(2764.5 -7.76177e-11 2.74815e-14)
(2764.5 -7.764e-11 2.80533e-14)
(2764.5 -7.60324e-11 2.4384e-14)
(2764.5 -7.62668e-11 1.83841e-14)
(2764.5 -7.93536e-11 2.04256e-14)
(2764.5 -8.22311e-11 2.12542e-14)
(2764.5 -8.22992e-11 2.17884e-14)
(2764.5 -8.3377e-11 2.33593e-14)
(2764.5 -8.48191e-11 2.36565e-14)
(2764.5 -8.45599e-11 2.2373e-14)
(2764.5 -8.30571e-11 2.20825e-14)
(2764.5 -8.19064e-11 2.05803e-14)
(2764.5 -8.24853e-11 2.02717e-14)
(2764.5 -8.54032e-11 2.3869e-14)
(2764.5 -8.77615e-11 2.76205e-14)
(2764.5 -9.00114e-11 1.66081e-14)
(2764.5 -8.96845e-11 1.70099e-14)
(2764.5 -9.08746e-11 1.81836e-14)
(2764.5 -9.32127e-11 1.68048e-14)
(2764.5 -9.31549e-11 2.12126e-14)
(2764.5 -9.08205e-11 2.02366e-14)
(2764.5 -8.93401e-11 1.75315e-14)
(2764.5 -9.01989e-11 1.87667e-14)
(2764.5 -9.22106e-11 2.38724e-14)
(2764.5 -8.58105e-11 1.87693e-14)
(2764.5 -8.40789e-11 2.30481e-14)
(2764.5 -8.87491e-11 1.28978e-14)
(2764.5 -9.34049e-11 2.36129e-14)
(2764.5 -9.49382e-11 1.75384e-14)
(2764.5 -1.02228e-10 2.27306e-14)
(2764.5 -1.01385e-10 1.97037e-14)
(2764.5 -9.59534e-11 2.36739e-14)
(2764.5 -9.33322e-11 2.56187e-14)
(2764.5 -9.81329e-11 1.837e-14)
(2764.5 -1.00353e-10 2.01009e-14)
(2764.5 -1.0418e-10 1.11723e-14)
(2764.5 -1.09763e-10 1.61759e-14)
(2764.5 -1.11404e-10 1.37013e-14)
(2764.5 -1.09768e-10 2.07452e-14)
(2764.5 -1.08842e-10 1.81974e-14)
(2764.5 -1.06283e-07 1.81976e-10)
(2764.5 -4.53282e-08 7.33669e-11)
(2764.5 -2.12524e-08 3.34588e-11)
(2764.5 -1.20364e-08 1.91714e-11)
(2764.5 -7.83349e-09 1.24976e-11)
(2764.5 -5.5651e-09 8.84902e-12)
(2764.5 -4.18958e-09 6.6963e-12)
(2764.5 -3.26803e-09 5.15013e-12)
(2764.5 -2.61544e-09 4.15981e-12)
(2764.5 -2.15127e-09 3.35331e-12)
(2764.5 -1.81173e-09 2.7792e-12)
(2764.5 -1.53849e-09 2.39505e-12)
(2764.5 -1.32378e-09 2.02418e-12)
(2764.5 -1.1568e-09 1.7453e-12)
(2764.5 -1.0201e-09 1.53151e-12)
(2764.5 -9.13884e-10 1.36322e-12)
(2764.5 -8.20557e-10 1.16673e-12)
(2764.5 -7.39819e-10 1.07815e-12)
(2764.5 -6.75667e-10 9.58033e-13)
(2764.5 -6.13739e-10 8.98872e-13)
(2764.5 -5.62532e-10 7.98983e-13)
(2764.5 -5.29085e-10 6.85914e-13)
(2764.5 -4.89736e-10 6.68852e-13)
(2764.5 -4.57905e-10 5.97155e-13)
(2764.5 -4.20898e-10 5.92686e-13)
(2764.5 -3.94759e-10 5.52203e-13)
(2764.5 -3.72762e-10 5.24737e-13)
(2764.5 -3.58073e-10 4.67908e-13)
(2764.5 -3.3465e-10 4.29657e-13)
(2764.5 -3.1415e-10 4.09513e-13)
(2764.5 -2.97322e-10 3.61908e-13)
(2764.5 -2.87051e-10 3.71045e-13)
(2764.5 -2.73358e-10 3.22854e-13)
(2764.5 -2.61204e-10 3.16757e-13)
(2764.5 -2.54505e-10 3.11954e-13)
(2764.5 -2.47712e-10 2.73048e-13)
(2764.5 -2.37661e-10 2.53178e-13)
(2764.5 -2.23982e-10 2.5898e-13)
(2764.5 -2.14557e-10 2.52185e-13)
(2764.5 -2.13596e-10 2.2576e-13)
(2764.5 -2.09253e-10 2.11704e-13)
(2764.5 -2.01762e-10 2.07366e-13)
(2764.5 -1.9433e-10 2.12329e-13)
(2764.5 -1.86828e-10 1.98836e-13)
(2764.5 -1.83919e-10 1.72163e-13)
(2764.5 -1.72722e-10 1.79919e-13)
(2764.5 -1.73453e-10 1.75472e-13)
(2764.5 -1.7452e-10 1.69502e-13)
(2764.5 -1.69054e-10 1.61596e-13)
(2764.5 -1.67868e-10 1.71658e-13)
(2764.5 -1.59024e-10 1.53928e-13)
(2764.5 -1.57287e-10 1.40541e-13)
(2764.5 -1.52135e-10 1.34236e-13)
(2764.5 -1.49709e-10 1.28654e-13)
(2764.5 -1.52251e-10 1.25242e-13)
(2764.5 -1.47216e-10 1.22068e-13)
(2764.5 -1.42528e-10 1.12063e-13)
(2764.5 -1.39982e-10 1.06275e-13)
(2764.5 -1.39949e-10 1.18621e-13)
(2764.5 -1.43962e-10 1.12413e-13)
(2764.5 -1.43073e-10 1.05908e-13)
(2764.5 -1.37359e-10 1.08751e-13)
(2764.5 -1.39358e-10 1.03242e-13)
(2764.5 -1.39448e-10 8.41829e-14)
(2764.5 -1.31506e-10 9.31052e-14)
(2764.5 -1.31243e-10 8.97856e-14)
(2764.5 -1.29838e-10 7.96295e-14)
(2764.5 -1.26027e-10 9.36518e-14)
(2764.5 -1.2737e-10 8.30932e-14)
(2764.5 -1.24499e-10 7.81982e-14)
(2764.5 -1.27154e-10 7.61791e-14)
(2764.5 -1.27435e-10 7.69192e-14)
(2764.5 -1.3124e-10 7.26137e-14)
(2764.5 -1.27414e-10 7.51238e-14)
(2764.5 -1.23734e-10 8.05903e-14)
(2764.5 -1.24193e-10 8.04462e-14)
(2764.5 -1.19962e-10 6.74889e-14)
(2764.5 -1.1675e-10 6.91989e-14)
(2764.5 -1.20643e-10 6.96599e-14)
(2764.5 -1.16038e-10 6.53608e-14)
(2764.5 -1.16121e-10 6.18381e-14)
(2764.5 -1.16052e-10 5.68367e-14)
(2764.5 -1.22706e-10 5.38713e-14)
(2764.5 -1.2829e-10 5.48705e-14)
(2764.5 -1.24652e-10 5.68182e-14)
(2764.5 -1.16158e-10 5.53098e-14)
(2764.5 -1.11931e-10 5.92681e-14)
(2764.5 -1.17062e-10 6.52102e-14)
(2764.5 -1.16572e-10 5.71003e-14)
(2764.5 -1.15027e-10 5.60667e-14)
(2764.5 -1.17064e-10 5.18897e-14)
(2764.5 -1.22493e-10 4.91389e-14)
(2764.5 -1.22912e-10 5.7342e-14)
(2764.5 -1.20911e-10 6.17931e-14)
(2764.5 -1.18234e-10 6.36556e-14)
(2764.5 -1.16185e-10 4.77972e-14)
(2764.5 -1.18487e-10 4.08324e-14)
(2764.5 -1.17919e-10 4.41266e-14)
(2764.5 -1.19205e-10 4.75489e-14)
(2764.5 -1.17189e-10 4.80238e-14)
(2764.5 -1.16564e-10 4.00307e-14)
(2764.5 -1.17993e-10 4.5751e-14)
(2764.5 -1.19723e-10 4.90964e-14)
(2764.5 -1.20623e-10 4.21552e-14)
(2764.5 -1.20473e-10 4.90682e-14)
(2764.5 -1.15566e-10 4.33298e-14)
(2764.5 -1.15557e-10 3.91623e-14)
(2764.5 -1.22083e-10 3.54771e-14)
(2764.5 -1.26075e-10 3.79062e-14)
(2764.5 -1.27781e-10 4.16507e-14)
(2764.5 -1.24325e-10 3.46776e-14)
(2764.5 -1.21218e-10 3.42184e-14)
(2764.5 -1.24062e-10 3.45542e-14)
(2764.5 -1.24209e-10 3.7633e-14)
(2764.5 -1.24431e-10 3.70646e-14)
(2764.5 -1.27944e-10 4.56079e-14)
(2764.5 -1.2888e-10 4.82104e-14)
(2764.5 -1.28136e-10 4.84144e-14)
(2764.5 -1.27009e-10 3.97066e-14)
(2764.5 -1.26524e-10 3.73505e-14)
(2764.5 -1.28864e-10 3.80711e-14)
(2764.5 -1.2992e-10 3.82389e-14)
(2764.5 -1.32281e-10 3.68199e-14)
(2764.5 -1.33719e-10 3.33177e-14)
(2764.5 -1.36713e-10 3.35636e-14)
(2764.5 -1.3808e-10 3.52994e-14)
(2764.5 -1.37199e-10 3.39537e-14)
(2764.5 -1.36197e-10 3.43137e-14)
(2764.5 -1.36261e-10 3.9902e-14)
(2764.5 -1.38435e-10 3.90448e-14)
(2764.5 -1.41723e-10 3.43096e-14)
(2764.5 -1.44587e-10 3.82901e-14)
(2764.5 -1.45456e-10 3.86794e-14)
(2764.5 -1.47699e-10 3.45011e-14)
(2764.5 -1.50968e-10 3.66959e-14)
(2764.5 -1.51796e-10 3.025e-14)
(2764.5 -1.50263e-10 2.69661e-14)
(2764.5 -1.48438e-10 2.96243e-14)
(2764.5 -1.50275e-10 3.87328e-14)
(2764.5 -1.53245e-10 3.33078e-14)
(2764.5 -1.5e-10 2.6472e-14)
(2764.5 -1.45556e-10 2.817e-14)
(2764.5 -1.45479e-10 2.85874e-14)
(2764.5 -1.47336e-10 2.99334e-14)
(2764.5 -1.47805e-10 3.32515e-14)
(2764.5 -1.57545e-10 3.06131e-14)
(2764.5 -1.65517e-10 3.0879e-14)
(2764.5 -1.67861e-10 2.77613e-14)
(2764.5 -1.60928e-10 3.73034e-14)
(2764.5 -1.65984e-10 3.20386e-14)
(2764.5 -1.64804e-10 3.4315e-14)
(2764.5 -1.66687e-10 2.93968e-14)
(2764.5 -1.69464e-10 3.3779e-14)
(2764.5 -1.764e-10 2.18975e-14)
(2764.5 -1.79984e-10 3.57735e-14)
(2764.5 -1.78806e-10 3.26928e-14)
(2764.5 -1.37741e-07 2.33281e-10)
(2764.5 -6.63986e-08 1.05113e-10)
(2764.5 -3.2563e-08 4.94541e-11)
(2764.5 -1.83108e-08 2.76313e-11)
(2764.5 -1.1738e-08 1.77763e-11)
(2764.5 -8.25586e-09 1.25113e-11)
(2764.5 -6.17235e-09 9.40765e-12)
(2764.5 -4.80735e-09 7.29039e-12)
(2764.5 -3.85033e-09 5.83929e-12)
(2764.5 -3.15664e-09 4.78794e-12)
(2764.5 -2.64635e-09 3.89333e-12)
(2764.5 -2.24626e-09 3.36622e-12)
(2764.5 -1.93588e-09 2.88374e-12)
(2764.5 -1.68521e-09 2.50126e-12)
(2764.5 -1.48833e-09 2.26587e-12)
(2764.5 -1.33447e-09 1.93236e-12)
(2764.5 -1.19661e-09 1.68089e-12)
(2764.5 -1.08155e-09 1.49925e-12)
(2764.5 -9.83704e-10 1.32621e-12)
(2764.5 -8.9588e-10 1.26553e-12)
(2764.5 -8.19342e-10 1.11444e-12)
(2764.5 -7.66085e-10 1.02497e-12)
(2764.5 -7.10525e-10 9.48377e-13)
(2764.5 -6.59946e-10 8.73756e-13)
(2764.5 -6.17296e-10 8.09104e-13)
(2764.5 -5.73484e-10 7.48954e-13)
(2764.5 -5.36266e-10 6.96683e-13)
(2764.5 -5.13201e-10 6.40254e-13)
(2764.5 -4.88266e-10 6.15708e-13)
(2764.5 -4.58359e-10 5.65889e-13)
(2764.5 -4.29198e-10 5.41322e-13)
(2764.5 -4.13001e-10 5.16564e-13)
(2764.5 -3.95932e-10 4.91255e-13)
(2764.5 -3.77328e-10 4.58056e-13)
(2764.5 -3.65185e-10 4.35165e-13)
(2764.5 -3.55382e-10 3.98624e-13)
(2764.5 -3.47883e-10 3.794e-13)
(2764.5 -3.25259e-10 3.44914e-13)
(2764.5 -3.09962e-10 3.50828e-13)
(2764.5 -3.03873e-10 3.17282e-13)
(2764.5 -2.99101e-10 3.08482e-13)
(2764.5 -2.85287e-10 2.85357e-13)
(2764.5 -2.81199e-10 2.85088e-13)
(2764.5 -2.68068e-10 2.67238e-13)
(2764.5 -2.64375e-10 2.7195e-13)
(2764.5 -2.51898e-10 2.43687e-13)
(2764.5 -2.47203e-10 2.48616e-13)
(2764.5 -2.46291e-10 2.36512e-13)
(2764.5 -2.4202e-10 2.38502e-13)
(2764.5 -2.37858e-10 2.29955e-13)
(2764.5 -2.31378e-10 2.07309e-13)
(2764.5 -2.26451e-10 2.03005e-13)
(2764.5 -2.19148e-10 1.93741e-13)
(2764.5 -2.12292e-10 1.90754e-13)
(2764.5 -2.11744e-10 1.71305e-13)
(2764.5 -2.07946e-10 1.7381e-13)
(2764.5 -2.03688e-10 1.66251e-13)
(2764.5 -2.01473e-10 1.60425e-13)
(2764.5 -2.02449e-10 1.70955e-13)
(2764.5 -2.02047e-10 1.66407e-13)
(2764.5 -2.01107e-10 1.53801e-13)
(2764.5 -1.95673e-10 1.38964e-13)
(2764.5 -1.96653e-10 1.35478e-13)
(2764.5 -1.96123e-10 1.33918e-13)
(2764.5 -1.88191e-10 1.47445e-13)
(2764.5 -1.8446e-10 1.35094e-13)
(2764.5 -1.83296e-10 1.2459e-13)
(2764.5 -1.84169e-10 1.30892e-13)
(2764.5 -1.82529e-10 1.09889e-13)
(2764.5 -1.76091e-10 1.04659e-13)
(2764.5 -1.75701e-10 1.04211e-13)
(2764.5 -1.76319e-10 1.14182e-13)
(2764.5 -1.78527e-10 1.11361e-13)
(2764.5 -1.81314e-10 1.1407e-13)
(2764.5 -1.78093e-10 1.08353e-13)
(2764.5 -1.76049e-10 1.05158e-13)
(2764.5 -1.74598e-10 1.08628e-13)
(2764.5 -1.71016e-10 1.10361e-13)
(2764.5 -1.7263e-10 1.02948e-13)
(2764.5 -1.68518e-10 9.31786e-14)
(2764.5 -1.65511e-10 8.32646e-14)
(2764.5 -1.63598e-10 9.19414e-14)
(2764.5 -1.6471e-10 8.65722e-14)
(2764.5 -1.68631e-10 8.64835e-14)
(2764.5 -1.716e-10 8.32666e-14)
(2764.5 -1.72607e-10 8.84484e-14)
(2764.5 -1.65435e-10 8.53505e-14)
(2764.5 -1.68113e-10 7.99813e-14)
(2764.5 -1.67041e-10 7.52015e-14)
(2764.5 -1.64366e-10 8.14457e-14)
(2764.5 -1.62709e-10 7.88701e-14)
(2764.5 -1.65018e-10 7.78397e-14)
(2764.5 -1.69762e-10 7.96041e-14)
(2764.5 -1.70527e-10 8.77758e-14)
(2764.5 -1.7306e-10 7.71527e-14)
(2764.5 -1.672e-10 7.22049e-14)
(2764.5 -1.68887e-10 7.44015e-14)
(2764.5 -1.67494e-10 6.68558e-14)
(2764.5 -1.6685e-10 6.61422e-14)
(2764.5 -1.65229e-10 6.43018e-14)
(2764.5 -1.65547e-10 5.92307e-14)
(2764.5 -1.64765e-10 6.47058e-14)
(2764.5 -1.65145e-10 6.78512e-14)
(2764.5 -1.68732e-10 6.70493e-14)
(2764.5 -1.6905e-10 6.55415e-14)
(2764.5 -1.67213e-10 6.3833e-14)
(2764.5 -1.65695e-10 6.04592e-14)
(2764.5 -1.65981e-10 5.92416e-14)
(2764.5 -1.70034e-10 5.65068e-14)
(2764.5 -1.76607e-10 4.89485e-14)
(2764.5 -1.78022e-10 4.99595e-14)
(2764.5 -1.7588e-10 5.06454e-14)
(2764.5 -1.74797e-10 5.62395e-14)
(2764.5 -1.74039e-10 5.70561e-14)
(2764.5 -1.74008e-10 6.23736e-14)
(2764.5 -1.75603e-10 6.26361e-14)
(2764.5 -1.75424e-10 6.1013e-14)
(2764.5 -1.746e-10 5.54898e-14)
(2764.5 -1.75408e-10 5.10521e-14)
(2764.5 -1.74229e-10 5.40345e-14)
(2764.5 -1.7413e-10 5.47296e-14)
(2764.5 -1.74843e-10 5.30343e-14)
(2764.5 -1.79588e-10 4.90851e-14)
(2764.5 -1.81369e-10 5.0243e-14)
(2764.5 -1.82756e-10 5.42405e-14)
(2764.5 -1.89894e-10 5.27019e-14)
(2764.5 -1.91572e-10 5.6254e-14)
(2764.5 -1.90398e-10 5.73555e-14)
(2764.5 -1.89067e-10 5.23454e-14)
(2764.5 -1.89077e-10 4.99817e-14)
(2764.5 -1.92481e-10 5.00494e-14)
(2764.5 -1.97192e-10 5.15456e-14)
(2764.5 -1.98437e-10 4.89067e-14)
(2764.5 -2.0126e-10 4.83403e-14)
(2764.5 -2.068e-10 4.98085e-14)
(2764.5 -2.0871e-10 4.53576e-14)
(2764.5 -2.10023e-10 5.625e-14)
(2764.5 -2.11796e-10 5.11761e-14)
(2764.5 -2.11531e-10 4.74305e-14)
(2764.5 -2.10919e-10 4.54765e-14)
(2764.5 -2.11328e-10 4.82997e-14)
(2764.5 -2.07645e-10 4.36542e-14)
(2764.5 -2.06401e-10 4.32644e-14)
(2764.5 -2.08426e-10 4.55641e-14)
(2764.5 -2.0539e-10 4.60684e-14)
(2764.5 -2.11183e-10 4.66736e-14)
(2764.5 -2.20625e-10 4.78926e-14)
(2764.5 -2.26396e-10 4.73591e-14)
(2764.5 -2.23293e-10 4.68865e-14)
(2764.5 -2.27838e-10 4.49893e-14)
(2764.5 -2.30192e-10 4.72342e-14)
(2764.5 -2.33339e-10 4.49911e-14)
(2764.5 -2.34317e-10 5.21593e-14)
(2764.5 -2.36572e-10 3.90211e-14)
(2764.5 -2.4214e-10 4.51413e-14)
(2764.5 -2.41487e-10 4.06492e-14)
(2764.5 -1.6271e-07 2.7389e-10)
(2764.5 -8.68474e-08 1.35844e-10)
(2764.5 -4.48848e-08 6.63314e-11)
(2764.5 -2.54158e-08 3.67543e-11)
(2764.5 -1.61388e-08 2.34895e-11)
(2764.5 -1.12353e-08 1.64464e-11)
(2764.5 -8.34461e-09 1.21817e-11)
(2764.5 -6.48009e-09 9.47599e-12)
(2764.5 -5.1841e-09 7.61105e-12)
(2764.5 -4.24589e-09 6.27036e-12)
(2764.5 -3.55032e-09 5.1547e-12)
(2764.5 -3.00923e-09 4.35799e-12)
(2764.5 -2.5891e-09 3.70717e-12)
(2764.5 -2.25218e-09 3.23153e-12)
(2764.5 -1.98836e-09 2.87784e-12)
(2764.5 -1.78172e-09 2.51389e-12)
(2764.5 -1.59711e-09 2.19047e-12)
(2764.5 -1.44739e-09 1.98225e-12)
(2764.5 -1.312e-09 1.80308e-12)
(2764.5 -1.19842e-09 1.62623e-12)
(2764.5 -1.09433e-09 1.48619e-12)
(2764.5 -1.01424e-09 1.36343e-12)
(2764.5 -9.45755e-10 1.22751e-12)
(2764.5 -8.78718e-10 1.15034e-12)
(2764.5 -8.18546e-10 1.03729e-12)
(2764.5 -7.66493e-10 9.98452e-13)
(2764.5 -7.13973e-10 9.10067e-13)
(2764.5 -6.8091e-10 8.66301e-13)
(2764.5 -6.4461e-10 8.23752e-13)
(2764.5 -6.07297e-10 7.61978e-13)
(2764.5 -5.73704e-10 6.99453e-13)
(2764.5 -5.4772e-10 6.71857e-13)
(2764.5 -5.23023e-10 6.11005e-13)
(2764.5 -4.99256e-10 5.7063e-13)
(2764.5 -4.80906e-10 5.52463e-13)
(2764.5 -4.66627e-10 5.34876e-13)
(2764.5 -4.59349e-10 4.94375e-13)
(2764.5 -4.34411e-10 4.6691e-13)
(2764.5 -4.11268e-10 4.32702e-13)
(2764.5 -3.97768e-10 4.09565e-13)
(2764.5 -3.89624e-10 4.11978e-13)
(2764.5 -3.79584e-10 3.93321e-13)
(2764.5 -3.68126e-10 3.76921e-13)
(2764.5 -3.53615e-10 3.66694e-13)
(2764.5 -3.49663e-10 3.50539e-13)
(2764.5 -3.36023e-10 3.29561e-13)
(2764.5 -3.25548e-10 3.13075e-13)
(2764.5 -3.18933e-10 3.05875e-13)
(2764.5 -3.15725e-10 2.90662e-13)
(2764.5 -3.09656e-10 2.68262e-13)
(2764.5 -3.02923e-10 2.74258e-13)
(2764.5 -2.96545e-10 2.66391e-13)
(2764.5 -2.90848e-10 2.56447e-13)
(2764.5 -2.80415e-10 2.43191e-13)
(2764.5 -2.74674e-10 2.39233e-13)
(2764.5 -2.7071e-10 2.34585e-13)
(2764.5 -2.65462e-10 2.12228e-13)
(2764.5 -2.60386e-10 2.0539e-13)
(2764.5 -2.60479e-10 2.15335e-13)
(2764.5 -2.62537e-10 1.96281e-13)
(2764.5 -2.62939e-10 1.85534e-13)
(2764.5 -2.59658e-10 1.78605e-13)
(2764.5 -2.608e-10 1.82316e-13)
(2764.5 -2.54632e-10 1.9169e-13)
(2764.5 -2.4547e-10 1.75188e-13)
(2764.5 -2.38247e-10 1.7918e-13)
(2764.5 -2.37472e-10 1.71357e-13)
(2764.5 -2.4064e-10 1.56077e-13)
(2764.5 -2.3841e-10 1.58997e-13)
(2764.5 -2.30624e-10 1.57606e-13)
(2764.5 -2.31006e-10 1.50158e-13)
(2764.5 -2.26942e-10 1.5099e-13)
(2764.5 -2.28803e-10 1.43987e-13)
(2764.5 -2.29466e-10 1.41938e-13)
(2764.5 -2.28334e-10 1.45898e-13)
(2764.5 -2.26654e-10 1.41065e-13)
(2764.5 -2.2696e-10 1.40359e-13)
(2764.5 -2.25439e-10 1.32827e-13)
(2764.5 -2.27985e-10 1.22403e-13)
(2764.5 -2.21791e-10 1.21525e-13)
(2764.5 -2.16361e-10 1.27419e-13)
(2764.5 -2.17177e-10 1.18803e-13)
(2764.5 -2.14616e-10 1.1372e-13)
(2764.5 -2.16608e-10 1.15575e-13)
(2764.5 -2.13469e-10 1.13535e-13)
(2764.5 -2.18705e-10 1.0928e-13)
(2764.5 -2.10851e-10 1.01908e-13)
(2764.5 -2.14389e-10 1.08374e-13)
(2764.5 -2.16979e-10 1.15109e-13)
(2764.5 -2.14135e-10 1.13334e-13)
(2764.5 -2.15675e-10 1.02892e-13)
(2764.5 -2.14133e-10 1.00082e-13)
(2764.5 -2.14537e-10 9.9498e-14)
(2764.5 -2.13256e-10 9.77283e-14)
(2764.5 -2.15948e-10 9.56512e-14)
(2764.5 -2.14315e-10 9.73225e-14)
(2764.5 -2.15981e-10 8.88578e-14)
(2764.5 -2.15666e-10 8.8367e-14)
(2764.5 -2.16543e-10 9.0639e-14)
(2764.5 -2.15072e-10 8.50917e-14)
(2764.5 -2.15908e-10 7.91147e-14)
(2764.5 -2.15903e-10 8.2793e-14)
(2764.5 -2.13944e-10 8.5592e-14)
(2764.5 -2.14842e-10 7.8485e-14)
(2764.5 -2.17155e-10 7.94424e-14)
(2764.5 -2.15071e-10 8.32115e-14)
(2764.5 -2.15489e-10 8.0768e-14)
(2764.5 -2.15104e-10 7.91122e-14)
(2764.5 -2.1386e-10 7.47424e-14)
(2764.5 -2.1891e-10 7.52062e-14)
(2764.5 -2.22023e-10 7.68508e-14)
(2764.5 -2.25155e-10 7.46765e-14)
(2764.5 -2.25922e-10 7.73255e-14)
(2764.5 -2.23507e-10 6.5015e-14)
(2764.5 -2.25419e-10 6.58237e-14)
(2764.5 -2.25485e-10 6.89128e-14)
(2764.5 -2.25571e-10 7.21963e-14)
(2764.5 -2.2333e-10 6.98082e-14)
(2764.5 -2.24062e-10 7.37122e-14)
(2764.5 -2.24187e-10 7.40766e-14)
(2764.5 -2.23606e-10 6.8659e-14)
(2764.5 -2.21343e-10 6.48853e-14)
(2764.5 -2.25459e-10 6.91625e-14)
(2764.5 -2.29462e-10 7.15626e-14)
(2764.5 -2.3169e-10 6.61114e-14)
(2764.5 -2.34728e-10 6.98304e-14)
(2764.5 -2.40975e-10 7.27935e-14)
(2764.5 -2.43174e-10 6.30126e-14)
(2764.5 -2.43773e-10 6.14626e-14)
(2764.5 -2.42255e-10 6.00949e-14)
(2764.5 -2.4239e-10 6.11017e-14)
(2764.5 -2.46144e-10 6.58757e-14)
(2764.5 -2.4958e-10 6.485e-14)
(2764.5 -2.53225e-10 6.71373e-14)
(2764.5 -2.58693e-10 6.73255e-14)
(2764.5 -2.62802e-10 6.53996e-14)
(2764.5 -2.66452e-10 6.75564e-14)
(2764.5 -2.69636e-10 6.02387e-14)
(2764.5 -2.72469e-10 6.05273e-14)
(2764.5 -2.73282e-10 5.72992e-14)
(2764.5 -2.74758e-10 6.33509e-14)
(2764.5 -2.77845e-10 5.06908e-14)
(2764.5 -2.71324e-10 6.2964e-14)
(2764.5 -2.72477e-10 6.28304e-14)
(2764.5 -2.68357e-10 5.99922e-14)
(2764.5 -2.65717e-10 6.42855e-14)
(2764.5 -2.71794e-10 5.93674e-14)
(2764.5 -2.79574e-10 5.51363e-14)
(2764.5 -2.80043e-10 5.61085e-14)
(2764.5 -2.84397e-10 5.89374e-14)
(2764.5 -2.90147e-10 5.43041e-14)
(2764.5 -2.94106e-10 6.10541e-14)
(2764.5 -2.97381e-10 5.67526e-14)
(2764.5 -2.96139e-10 5.16812e-14)
(2764.5 -3.03469e-10 6.14132e-14)
(2764.5 -3.05487e-10 6.08444e-14)
(2764.5 -1.82794e-07 3.07121e-10)
(2764.5 -1.06081e-07 1.64612e-10)
(2764.5 -5.78151e-08 8.34806e-11)
(2764.5 -3.32621e-08 4.65211e-11)
(2764.5 -2.10536e-08 2.9477e-11)
(2764.5 -1.45362e-08 2.04661e-11)
(2764.5 -1.07152e-08 1.5252e-11)
(2764.5 -8.2917e-09 1.1722e-11)
(2764.5 -6.62618e-09 9.3466e-12)
(2764.5 -5.4123e-09 7.65475e-12)
(2764.5 -4.51478e-09 6.36235e-12)
(2764.5 -3.82657e-09 5.36347e-12)
(2764.5 -3.28725e-09 4.59859e-12)
(2764.5 -2.86142e-09 4.02229e-12)
(2764.5 -2.52367e-09 3.48033e-12)
(2764.5 -2.25877e-09 3.06127e-12)
(2764.5 -2.02904e-09 2.73075e-12)
(2764.5 -1.83335e-09 2.42457e-12)
(2764.5 -1.65868e-09 2.2067e-12)
(2764.5 -1.51335e-09 1.96873e-12)
(2764.5 -1.38714e-09 1.81871e-12)
(2764.5 -1.27992e-09 1.66339e-12)
(2764.5 -1.19345e-09 1.51608e-12)
(2764.5 -1.10953e-09 1.3622e-12)
(2764.5 -1.03598e-09 1.2926e-12)
(2764.5 -9.6843e-10 1.22154e-12)
(2764.5 -9.07705e-10 1.12553e-12)
(2764.5 -8.54972e-10 1.06657e-12)
(2764.5 -8.0573e-10 9.77773e-13)
(2764.5 -7.63751e-10 8.92518e-13)
(2764.5 -7.27639e-10 8.58375e-13)
(2764.5 -6.90292e-10 8.05178e-13)
(2764.5 -6.58166e-10 7.5387e-13)
(2764.5 -6.30657e-10 7.20659e-13)
(2764.5 -6.09158e-10 6.77799e-13)
(2764.5 -5.88922e-10 6.13887e-13)
(2764.5 -5.6847e-10 6.21966e-13)
(2764.5 -5.40641e-10 5.79209e-13)
(2764.5 -5.17101e-10 5.51456e-13)
(2764.5 -4.98553e-10 5.3106e-13)
(2764.5 -4.89333e-10 4.92832e-13)
(2764.5 -4.74003e-10 4.72735e-13)
(2764.5 -4.58687e-10 4.54271e-13)
(2764.5 -4.43838e-10 4.44244e-13)
(2764.5 -4.36798e-10 4.19623e-13)
(2764.5 -4.21725e-10 4.21309e-13)
(2764.5 -4.11045e-10 3.85518e-13)
(2764.5 -3.95854e-10 3.74045e-13)
(2764.5 -3.88675e-10 3.64967e-13)
(2764.5 -3.85055e-10 3.41721e-13)
(2764.5 -3.76728e-10 3.32972e-13)
(2764.5 -3.66526e-10 3.2192e-13)
(2764.5 -3.57494e-10 3.09135e-13)
(2764.5 -3.53263e-10 3.04824e-13)
(2764.5 -3.45007e-10 2.86325e-13)
(2764.5 -3.34999e-10 2.73437e-13)
(2764.5 -3.26774e-10 2.62848e-13)
(2764.5 -3.26497e-10 2.65188e-13)
(2764.5 -3.19313e-10 2.52561e-13)
(2764.5 -3.14817e-10 2.38802e-13)
(2764.5 -3.19165e-10 2.39148e-13)
(2764.5 -3.18551e-10 2.28797e-13)
(2764.5 -3.24269e-10 2.23032e-13)
(2764.5 -3.1872e-10 2.16063e-13)
(2764.5 -3.07152e-10 2.13215e-13)
(2764.5 -2.97472e-10 2.16243e-13)
(2764.5 -2.93747e-10 2.00616e-13)
(2764.5 -2.96144e-10 1.85665e-13)
(2764.5 -2.94677e-10 1.98464e-13)
(2764.5 -2.92382e-10 1.91593e-13)
(2764.5 -2.88718e-10 1.80271e-13)
(2764.5 -2.79896e-10 1.77205e-13)
(2764.5 -2.75851e-10 1.7899e-13)
(2764.5 -2.77662e-10 1.67727e-13)
(2764.5 -2.77417e-10 1.73882e-13)
(2764.5 -2.73684e-10 1.67181e-13)
(2764.5 -2.74744e-10 1.63412e-13)
(2764.5 -2.76304e-10 1.57833e-13)
(2764.5 -2.77559e-10 1.66316e-13)
(2764.5 -2.74e-10 1.57705e-13)
(2764.5 -2.68037e-10 1.55308e-13)
(2764.5 -2.66651e-10 1.42886e-13)