/*--------------------------------*- C++ -*----------------------------------*\
| =========                 |                                                 |
| \\      /  F ield         | OpenFOAM: The Open Source CFD Toolbox           |
|  \\    /   O peration     | Version:  v1706                                 |
|   \\  /    A nd           | Web:      www.OpenFOAM.com                      |
|    \\/     M anipulation  |                                                 |
\*---------------------------------------------------------------------------*/
FoamFile
{
    version     2.0;
    format      ascii;
    class       volScalarField;
    location    "6e-06";
    object      wallHeatFlux;
}
// * * * * * * * * * * * * * * * * * * * * * * * * * * * * * * * * * * * * * //

dimensions      [1 0 -3 0 0 0 0];


internalField   uniform 0;

boundaryField
{
    cone
    {
        type            calculated;
        value           nonuniform List<scalar> 
147
(
576373
576211
576054
575848
575592
575290
574931
574525
574062
573550
572984
572368
571700
570982
570214
569396
568528
567612
566645
565628
564561
563444
562280
561066
559805
558497
557142
555741
554294
552803
551268
549689
548065
546398
544688
542935
541139
539302
537423
535502
533541
531538
529496
527413
525291
523129
520927
518686
516407
514091
511739
509352
506932
504476
501985
499457
496892
494290
491653
488981
486273
483530
480751
477938
475091
472208
469291
466338
463350
460327
457270
454176
451047
447881
444680
441442
438169
434857
431509
428124
424703
421244
417749
414219
410653
407051
403415
399746
396045
392311
388545
384743
380909
377041
373142
369210
365247
361253
357230
353177
349096
344988
340854
336693
332507
328298
324065
319812
315537
311244
306932
302601
298255
293893
289517
285130
280733
276329
271921
267510
263100
258695
254298
249913
245544
241198
236878
232592
228344
224143
219996
215911
211896
207961
204115
200367
196727
193207
189814
186561
183457
180512
177735
175135
172722
170501
576992
)
;
    }
    inlet
    {
        type            calculated;
        value           uniform 0;
    }
    rWedge
    {
        type            wedge;
    }
    lWedge
    {
        type            wedge;
    }
    outlet
    {
        type            calculated;
        value           nonuniform 0();
    }
    procBoundary3to2
    {
        type            processor;
        value           uniform 0;
    }
}


// ************************************************************************* //
