/*--------------------------------*- C++ -*----------------------------------*\
| =========                 |                                                 |
| \\      /  F ield         | OpenFOAM: The Open Source CFD Toolbox           |
|  \\    /   O peration     | Version:  v1706                                 |
|   \\  /    A nd           | Web:      www.OpenFOAM.com                      |
|    \\/     M anipulation  |                                                 |
\*---------------------------------------------------------------------------*/
FoamFile
{
    version     2.0;
    format      ascii;
    class       volScalarField;
    location    "7e-06";
    object      p;
}
// * * * * * * * * * * * * * * * * * * * * * * * * * * * * * * * * * * * * * //

dimensions      [1 -1 -2 0 0 0 0];


internalField   nonuniform List<scalar> 
30104
(
21.9139
21.9139
21.9139
21.9139
21.9139
21.9139
21.9139
21.9139
21.9139
21.9139
21.9139
21.9139
21.9139
21.9139
21.9139
21.9139
21.9139
21.9139
21.9139
21.9139
21.9139
21.9139
21.9139
21.9139
21.9139
21.9139
21.9139
21.9139
21.9139
21.9139
21.9139
21.9139
21.9139
21.9139
21.9139
21.9139
21.9139
21.9139
21.9139
21.9139
21.9139
21.9139
21.9139
21.9139
21.9139
21.9139
21.9139
21.9139
21.9139
21.9139
21.9139
21.9139
21.9139
21.9139
21.9139
21.9139
21.9139
21.9139
21.9139
21.9139
21.9139
21.9139
21.9139
21.9139
21.9139
21.9139
21.9139
21.9139
21.9139
21.9139
21.9139
21.9139
21.9139
21.9139
21.9139
21.9139
21.9139
21.9139
21.9139
21.9139
21.9139
21.9139
21.9139
21.9139
21.9139
21.9139
21.9139
21.9139
21.9139
21.9139
21.9139
21.9139
21.9139
21.9139
21.9139
21.9139
21.9139
21.9139
21.9139
21.9139
21.9139
21.9139
21.9139
21.9139
21.9139
21.9139
21.9139
21.9139
21.9139
21.9139
21.9139
21.9139
21.9139
21.9139
21.9139
21.9139
21.9139
21.9139
21.9139
21.9139
21.9139
21.9139
21.9139
21.9139
21.9139
21.9139
21.9139
21.9139
21.9139
21.9139
21.9139
21.9139
21.9139
21.9139
21.9139
21.9139
21.9139
21.9139
21.9139
21.9139
21.9139
21.9139
21.9139
21.9139
21.9139
21.9139
21.9139
21.9139
21.9139
21.9139
21.9139
21.9139
21.9139
21.9139
21.9139
21.9139
21.9139
21.9139
21.9139
21.9139
21.9139
21.9139
21.9139
21.9139
21.9139
21.9139
21.9139
21.9139
21.9139
21.9139
21.9139
21.9139
21.9139
21.9139
21.9139
21.9139
21.9139
21.9139
21.9139
21.9139
21.9139
21.9139
21.9139
21.9139
21.9139
21.9139
21.9139
21.9139
21.9139
21.9139
21.9139
21.9139
21.9139
21.9139
21.9139
21.9139
21.9139
21.9139
21.9139
21.9139
21.9139
21.9139
21.9139
21.9139
21.9139
21.9139
21.9139
21.9139
21.9139
21.9139
21.9139
21.9139
21.9139
21.9139
21.9139
21.9139
21.9139
21.9139
21.9139
21.9139
21.9139
21.9139
21.9139
21.9139
21.9139
21.9139
21.9139
21.9139
21.9139
21.9139
21.9139
21.9139
21.9139
21.9139
21.9139
21.9139
21.9139
21.9139
21.9139
21.9139
21.9139
21.9139
21.9139
21.9139
21.9139
21.9139
21.9139
21.9139
21.9139
21.9139
21.9139
21.9139
21.9139
21.9139
21.9139
21.9139
21.9139
21.9139
21.9139
21.9139
21.9139
21.9139
21.9139
21.9139
21.9139
21.9139
21.9139
21.9139
21.9139
21.9139
21.9139
21.9139
21.9139
21.9139
21.9139
21.9139
21.9139
21.9139
21.9139
21.9139
21.9139
21.9139
21.9139
21.9139
21.9139
21.9139
21.9139
21.9139
21.9139
21.9139
21.9139
21.9139
21.9139
21.9139
21.9139
21.9139
21.9139
21.9139
21.9139
21.9139
21.9139
21.9139
21.9139
21.9139
21.9139
21.9139
21.9139
21.9139
21.9139
21.9139
21.9139
21.9139
21.9139
21.9139
21.9139
21.9139
21.9139
21.9139
21.9139
21.9139
21.9139
21.9139
21.9139
21.9139
21.9139
21.9139
21.9139
21.9139
21.9139
21.9139
21.9139
21.9139
21.9139
21.9139
21.9139
21.9139
21.9139
21.9139
21.9139
21.9139
21.9139
21.9139
21.9139
21.9139
21.9139
21.9139
21.9139
21.9139
21.9139
21.9139
21.9139
21.9139
21.9139
21.9139
21.9139
21.9139
21.9139
21.9139
21.9139
21.9139
21.9139
21.9139
21.9139
21.9139
21.9139
21.9139
21.9139
21.9139
21.9139
21.9139
21.9139
21.9139
21.9139
21.9139
21.9139
21.9139
21.9139
21.9139
21.9139
21.9139
21.9139
21.9139
21.9139
21.9139
21.9139
21.9139
21.9139
21.9139
21.9139
21.9139
21.9139
21.9139
21.9139
21.9139
21.9139
21.9139
21.9139
21.9139
21.9139
21.9139
21.9139
21.9139
21.9139
21.9139
21.9139
21.9139
21.9139
21.9139
21.9139
21.9139
21.9139
21.9139
21.9139
21.9139
21.9139
21.9139
21.9139
21.9139
21.9139
21.9139
21.9139
21.9139
21.9139
21.9139
21.9139
21.9139
21.9139
21.9139
21.9139
21.9139
21.9139
21.9139
21.9139
21.9139
21.9139
21.9139
21.9139
21.9139
21.9139
21.9139
21.9139
21.9139
21.9139
21.9139
21.9139
21.9139
21.9139
21.9139
21.9139
21.9139
21.9139
21.9139
21.9139
21.9139
21.9139
21.9139
21.9139
21.9139
21.9139
21.9139
21.9139
21.9139
21.9139
21.9139
21.9139
21.9139
21.9139
21.9139
21.9139
21.9139
21.9139
21.9139
21.9139
21.9139
21.9139
21.9139
21.9139
21.9139
21.9139
21.9139
21.9139
21.9139
21.9139
21.9139
21.9139
21.9139
21.9139
21.9139
21.9139
21.9139
21.9139
21.9139
21.9139
21.9139
21.9139
21.9139
21.9139
21.9139
21.9139
21.9139
21.9139
21.9139
21.9139
21.9139
21.9139
21.9139
21.9139
21.9139
21.9139
21.9139
21.9139
21.9139
21.9139
21.9139
21.9139
21.9139
21.9139
21.9139
21.9139
21.9139
21.9139
21.9139
21.9139
21.9139
21.9139
21.9139
21.9139
21.9139
21.9139
21.9139
21.9139
21.9139
21.9139
21.9139
21.9139
21.9139
21.9139
21.9139
21.9139
21.9139
21.9139
21.9139
21.9139
21.9139
21.9139
21.9139
21.9139
21.9139
21.9139
21.9139
21.9139
21.9139
21.9139
21.9139
21.9139
21.9139
21.9139
21.9139
21.9139
21.9139
21.9139
21.9139
21.9139
21.9139
21.9139
21.9139
21.9139
21.9139
21.9139
21.9139
21.9139
21.9139
21.9139
21.9139
21.9139
21.9139
21.9139
21.9139
21.9139
21.9139
21.9139
21.9139
21.9139
21.9139
21.9139
21.9139
21.9139
21.9139
21.9139
21.9139
21.9139
21.9139
21.9139
21.9139
21.9139
21.9139
21.9139
21.9139
21.9139
21.9139
21.9139
21.9139
21.9139
21.9139
21.9139
21.9139
21.9139
21.9139
21.9139
21.9139
21.9139
21.9139
21.9139
21.9139
21.9139
21.9139
21.9139
21.9139
21.9139
21.9139
21.9139
21.9139
21.9139
21.9139
21.9139
21.9139
21.9139
21.9139
21.9139
21.9139
21.9139
21.9139
21.9139
21.9139
21.9139
21.9139
21.9139
21.9139
21.9139
21.9139
21.9139
21.9139
21.9139
21.9139
21.9139
21.9139
21.9139
21.9139
21.9139
21.9139
21.9139
21.9139
21.9139
21.9139
21.9139
21.9139
21.9139
21.9139
21.9139
21.9139
21.9139
21.9139
21.9139
21.9139
21.9139
21.9139
21.9139
21.9139
21.9139
21.9139
21.9139
21.9139
21.9139
21.9139
21.9139
21.9139
21.9139
21.9139
21.9139
21.9139
21.9139
21.9139
21.9139
21.9139
21.9139
21.9139
21.9139
21.9139
21.9139
21.9139
21.9139
21.9139
21.9139
21.9139
21.9139
21.9139
21.9139
21.9139
21.9139
21.9139
21.9139
21.9139
21.9139
21.9139
21.9139
21.9139
21.9139
21.9139
21.9139
21.9139
21.9139
21.9139
21.9139
21.9139
21.9139
21.9139
21.9139
21.9139
21.9139
21.9139
21.9139
21.9139
21.9139
21.9139
21.9139
21.9139
21.9139
21.9139
21.9139
21.9139
21.9139
21.9139
21.9139
21.9139
21.9139
21.9139
21.9139
21.9139
21.9139
21.9139
21.9139
21.9139
21.9139
21.9139
21.9139
21.9139
21.9139
21.9139
21.9139
21.9139
21.9139
21.9139
21.9139
21.9139
21.9139
21.9139
21.9139
21.9139
21.9139
21.9139
21.9139
21.9139
21.9139
21.9139
21.9139
21.9139
21.9139
21.9139
21.9139
21.9139
21.9139
21.9139
21.9139
21.9139
21.9139
21.9139
21.9139
21.9139
21.9139
21.9139
21.9139
21.9139
21.9139
21.9139
21.9139
21.9139
21.9139
21.9139
21.9139
21.9139
21.9139
21.9139
21.9139
21.9139
21.9139
21.9139
21.9139
21.9139
21.9139
21.9139
21.9139
21.9139
21.9139
21.9139
21.9139
21.9139
21.9139
21.9139
21.9139
21.9139
21.9139
21.9139
21.9139
21.9139
21.9139
21.9139
21.9139
21.9139
21.9139
21.9139
21.9139
21.9139
21.9139
21.9139
21.9139
21.9139
21.9139
21.9139
21.9139
21.9139
21.9139
21.9139
21.9139
21.9139
21.9139
21.9139
21.9139
21.9139
21.9139
21.9139
21.9139
21.9139
21.9139
21.9139
21.9139
21.9139
21.9139
21.9139
21.9139
21.9139
21.9139
21.9139
21.9139
21.9139
21.9139
21.9139
21.9139
21.9139
21.9139
21.9139
21.9139
21.9139
21.9139
21.9139
21.9139
21.9139
21.9139
21.9139
21.9139
21.9139
21.9139
21.9139
21.9139
21.9139
21.9139
21.9139
21.9139
21.9139
21.9139
21.9139
21.9139
21.9139
21.9139
21.9139
21.9139
21.9139
21.9139
21.9139
21.9139
21.9139
21.9139
21.9139
21.9139
21.9139
21.9139
21.9139
21.9139
21.9139
21.9139
21.9139
21.9139
21.9139
21.9139
21.9139
21.9139
21.9139
21.9139
21.9139
21.9139
21.9139
21.9139
21.9139
21.9139
21.9139
21.9139
21.9139
21.9139
21.9139
21.9139
21.9139
21.9139
21.9139
21.9139
21.9139
21.9139
21.9139
21.9139
21.9139
21.9139
21.9139
21.9139
21.9139
21.9139
21.9139
21.9139
21.9139
21.9139
21.9139
21.9139
21.9139
21.9139
21.9139
21.9139
21.9139
21.9139
21.9139
21.9139
21.9139
21.9139
21.9139
21.9139
21.9139
21.9139
21.9139
21.9139
21.9139
21.9139
21.9139
21.9139
21.9139
21.9139
21.9139
21.9139
21.9139
21.9139
21.9139
21.9139
21.9139
21.9139
21.9139
21.9139
21.9139
21.9139
21.9139
21.9139
21.9139
21.9139
21.9139
21.9139
21.9139
21.9139
21.9139
21.9139
21.9139
21.9139
21.9139
21.9139
21.9139
21.9139
21.9139
21.9139
21.9139
21.9139
21.9139
21.9139
21.9139
21.9139
21.9139
21.9139
21.9139
21.9139
21.9139
21.9139
21.9139
21.9139
21.9139
21.9139
21.9139
21.9139
21.9139
21.9139
21.9139
21.9139
21.9139
21.9139
21.9139
21.9139
21.9139
21.9139
21.9139
21.9139
21.9139
21.9139
21.9139
21.9139
21.9139
21.9139
21.9139
21.9139
21.9139
21.9139
21.9139
21.9139
21.9139
21.9139
21.9139
21.9139
21.9139
21.9139
21.9139
21.9139
21.9139
21.9139
21.9139
21.9139
21.9139
21.9139
21.9139
21.9139
21.9139
21.9139
21.9139
21.9139
21.9139
21.9139
21.9139
21.9139
21.9139
21.9139
21.9139
21.9139
21.9139
21.9139
21.9139
21.9139
21.9139
21.9139
21.9139
21.9139
21.9139
21.9139
21.9139
21.9139
21.9139
21.9139
21.9139
21.9139
21.9139
21.9139
21.9139
21.9139
21.9139
21.9139
21.9139
21.9139
21.9139
21.9139
21.9139
21.9139
21.9139
21.9139
21.9139
21.9139
21.9139
21.9139
21.9139
21.9139
21.9139
21.9139
21.9139
21.9139
21.9139
21.9139
21.9139
21.9139
21.9139
21.9139
21.9139
21.9139
21.9139
21.9139
21.9139
21.9139
21.9139
21.9139
21.9139
21.9139
21.9139
21.9139
21.9139
21.9139
21.9139
21.9139
21.9139
21.9139
21.9139
21.9139
21.9139
21.9139
21.9139
21.9139
21.9139
21.9139
21.9139
21.9139
21.9139
21.9139
21.9139
21.9139
21.9139
21.9139
21.9139
21.9139
21.9139
21.9139
21.9139
21.9139
21.9139
21.9139
21.9139
21.9139
21.9139
21.9139
21.9139
21.9139
21.9139
21.9139
21.9139
21.9139
21.9139
21.9139
21.9139
21.9139
21.9139
21.9139
21.9139
21.9139
21.9139
21.9139
21.9139
21.9139
21.9139
21.9139
21.9139
21.9139
21.9139
21.9139
21.9139
21.9139
21.9139
21.9139
21.9139
21.9139
21.9139
21.9139
21.9139
21.9139
21.9139
21.9139
21.9139
21.9139
21.9139
21.9139
21.9139
21.9139
21.9139
21.9139
21.9139
21.9139
21.9139
21.9139
21.9139
21.9139
21.9139
21.9139
21.9139
21.9139
21.9139
21.9139
21.9139
21.9139
21.9139
21.9139
21.9139
21.9139
21.9139
21.9139
21.9139
21.9139
21.9139
21.9139
21.9139
21.9139
21.9139
21.9139
21.9139
21.9139
21.9139
21.9139
21.9139
21.9139
21.9139
21.9139
21.9139
21.9139
21.9139
21.9139
21.9139
21.9139
21.9139
21.9139
21.9139
21.9139
21.9139
21.9139
21.9139
21.9139
21.9139
21.9139
21.9139
21.9139
21.9139
21.9139
21.9139
21.9139
21.9139
21.9139
21.9139
21.9139
21.9139
21.9139
21.9139
21.9139
21.9139
21.9139
21.9139
21.9139
21.9139
21.9139
21.9139
21.9139
21.9139
21.9139
21.9139
21.9139
21.9139
21.9139
21.9139
21.9139
21.9139
21.9139
21.9139
21.9139
21.9139
21.9139
21.9139
21.9139
21.9139
21.9139
21.9139
21.9139
21.9139
21.9139
21.9139
21.9139
21.9139
21.9139
21.9139
21.9139
21.9139
21.9139
21.9139
21.9139
21.9139
21.9139
21.9139
21.9139
21.9139
21.9139
21.9139
21.9139
21.9139
21.9139
21.9139
21.9139
21.9139
21.9139
21.9139
21.9139
21.9139
21.9139
21.9139
21.9139
21.9139
21.9139
21.9139
21.9139
21.9139
21.9139
21.9139
21.9139
21.9139
21.9139
21.9139
21.9139
21.9139
21.9139
21.9139
21.9139
21.9139
21.9139
21.9139
21.9139
21.9139
21.9139
21.9139
21.9139
21.9139
21.9139
21.9139
21.9139
21.9139
21.9139
21.9139
21.9139
21.9139
21.9139
21.9139
21.9139
21.9139
21.9139
21.9139
21.9139
21.9139
21.9139
21.9139
21.9139
21.9139
21.9139
21.9139
21.9139
21.9139
21.9139
21.9139
21.9139
21.9139
21.9139
21.9139
21.9139
21.9139
21.9139
21.9139
21.9139
21.9139
21.9139
21.9139
21.9139
21.9139
21.9139
21.9139
21.9139
21.9139
21.9139
21.9139
21.9139
21.9139
21.9139
21.9139
21.9139
21.9139
21.9139
21.9139
21.9139
21.9139
21.9139
21.9139
21.9139
21.9139
21.9139
21.9139
21.9139
21.9139
21.9139
21.9139
21.9139
21.9139
21.9139
21.9139
21.9139
21.9139
21.9139
21.9139
21.9139
21.9139
21.9139
21.9139
21.9139
21.9139
21.9139
21.9139
21.9139
21.9139
21.9139
21.9139
21.9139
21.9139
21.9139
21.9139
21.9139
21.9139
21.9139
21.9139
21.9139
21.9139
21.9139
21.9139
21.9139
21.9139
21.9139
21.9139
21.9139
21.9139
21.9139
21.9139
21.9139
21.9139
21.9139
21.9139
21.9139
21.914
21.914
21.9139
21.9139
21.9139
21.9139
21.9139
21.9139
21.9139
21.9139
21.9139
21.9139
21.9139
21.9139
21.9139
21.9139
21.9139
21.9139
21.9139
21.9139
21.9139
21.9139
21.9139
21.9139
21.9139
21.9139
21.9139
21.9139
21.9139
21.9139
21.9139
21.9139
21.9139
21.9139
21.9139
21.9139
21.9139
21.9139
21.9139
21.9139
21.9139
21.9139
21.9139
21.9139
21.9139
21.9139
21.9139
21.9139
21.9139
21.9139
21.9139
21.9139
21.9139
21.9139
21.9139
21.9139
21.9139
21.9139
21.9139
21.9139
21.9139
21.9139
21.9139
21.9139
21.9139
21.9139
21.9139
21.9139
21.9139
21.9139
21.9139
21.9139
21.9139
21.9139
21.9139
21.9139
21.9139
21.9139
21.9139
21.9139
21.9139
21.9139
21.9139
21.9139
21.9139
21.9139
21.9139
21.9139
21.9139
21.9139
21.9139
21.9139
21.9139
21.9139
21.9139
21.9139
21.9139
21.9139
21.9139
21.9139
21.9139
21.9139
21.9139
21.9139
21.9139
21.9139
21.9139
21.9139
21.9139
21.9139
21.9139
21.9139
21.9139
21.9139
21.9139
21.9139
21.9139
21.9139
21.9139
21.9139
21.9139
21.9139
21.9139
21.9139
21.9139
21.9139
21.9139
21.9139
21.9139
21.9139
21.9139
21.9139
21.9139
21.9139
21.9139
21.9139
21.9139
21.9139
21.9139
21.9139
21.9139
21.9139
21.9139
21.9139
21.9139
21.9139
21.9139
21.9139
21.9139
21.9139
21.9139
21.9139
21.9139
21.9139
21.9139
21.9139
21.9139
21.9139
21.9139
21.9139
21.9139
21.9139
21.9139
21.9139
21.9139
21.9139
21.9139
21.9139
21.9139
21.9139
21.9139
21.9139
21.9139
21.9139
21.9139
21.9139
21.9139
21.9139
21.9139
21.9139
21.9139
21.9139
21.9139
21.9139
21.9139
21.914
21.914
21.914
21.914
21.914
21.914
21.914
21.914
21.914
21.914
21.914
21.9141
21.9141
21.9141
21.9141
21.9141
21.9141
21.9142
21.9142
21.9142
21.9142
21.9143
21.9143
21.9139
21.9139
21.9139
21.9139
21.9139
21.9139
21.9139
21.9139
21.9139
21.9139
21.9139
21.9139
21.9139
21.9139
21.9139
21.9139
21.9139
21.9139
21.9139
21.9139
21.9139
21.9139
21.9139
21.9139
21.9139
21.9139
21.9139
21.9139
21.9139
21.9139
21.9139
21.9139
21.9139
21.9139
21.9139
21.9139
21.9139
21.9139
21.9139
21.9139
21.9139
21.9139
21.9139
21.9139
21.9139
21.9139
21.9139
21.9139
21.9139
21.9139
21.9139
21.9139
21.9139
21.9139
21.9139
21.9139
21.9139
21.9139
21.9139
21.9139
21.9139
21.9139
21.9139
21.9139
21.9139
21.9139
21.9139
21.9139
21.9139
21.9139
21.9139
21.9139
21.9139
21.9139
21.9139
21.9139
21.9139
21.9139
21.9139
21.9139
21.9139
21.9139
21.9139
21.9139
21.9139
21.9139
21.9139
21.9139
21.9139
21.9139
21.9139
21.9139
21.9139
21.9139
21.9139
21.9139
21.9139
21.9139
21.9139
21.9139
21.9139
21.9139
21.9139
21.9139
21.9139
21.9139
21.9139
21.9139
21.9139
21.9139
21.9139
21.9139
21.9139
21.9139
21.9139
21.9139
21.9139
21.9139
21.9139
21.9139
21.9139
21.9139
21.9139
21.9139
21.9139
21.9139
21.9139
21.9139
21.9139
21.9139
21.9139
21.9139
21.9139
21.9139
21.9139
21.9139
21.9139
21.9139
21.9139
21.9139
21.9139
21.9139
21.9139
21.9139
21.9139
21.9139
21.9139
21.9139
21.9139
21.9139
21.9139
21.9139
21.9139
21.9139
21.9139
21.9139
21.9139
21.9139
21.9139
21.9139
21.9139
21.9139
21.9139
21.9139
21.914
21.914
21.914
21.914
21.914
21.914
21.914
21.914
21.914
21.914
21.9141
21.9141
21.9141
21.9141
21.9141
21.9142
21.9142
21.9142
21.9142
21.9143
21.9143
21.9143
21.9144
21.9144
21.9145
21.9145
21.9146
21.9147
21.9148
21.9148
21.9149
21.9151
21.9152
21.9153
21.9155
21.9157
21.9159
21.9161
21.9163
21.9166
21.9169
21.9173
21.9175
21.9139
21.9139
21.9139
21.9139
21.9139
21.9139
21.9139
21.9139
21.9139
21.9139
21.9139
21.9139
21.9139
21.9139
21.9139
21.9139
21.9139
21.9139
21.9139
21.9139
21.9139
21.9139
21.9139
21.9139
21.9139
21.9139
21.9139
21.9139
21.9139
21.9139
21.9139
21.9139
21.9139
21.9139
21.9139
21.9139
21.9139
21.9139
21.9139
21.9139
21.9139
21.9139
21.9139
21.9139
21.9139
21.9139
21.9139
21.9139
21.9139
21.9139
21.9139
21.9139
21.9139
21.9139
21.9139
21.9139
21.9139
21.9139
21.9139
21.9139
21.9139
21.9139
21.9139
21.9139
21.9139
21.9139
21.9139
21.9139
21.9139
21.9139
21.9139
21.9139
21.9139
21.9139
21.9139
21.9139
21.9139
21.9139
21.9139
21.9139
21.9139
21.9139
21.9139
21.9139
21.9139
21.9139
21.9139
21.9139
21.9139
21.9139
21.9139
21.9139
21.9139
21.9139
21.9139
21.9139
21.9139
21.9139
21.9139
21.9139
21.9139
21.9139
21.9139
21.9139
21.9139
21.9139
21.9139
21.9139
21.9139
21.9139
21.9139
21.9139
21.9139
21.9139
21.9139
21.9139
21.9139
21.9139
21.9139
21.9139
21.9139
21.9139
21.9139
21.9139
21.9139
21.9139
21.9139
21.9139
21.9139
21.9139
21.9139
21.9139
21.9139
21.9139
21.9139
21.9139
21.9139
21.9139
21.9139
21.9139
21.9139
21.9139
21.9139
21.9139
21.914
21.914
21.914
21.914
21.914
21.914
21.914
21.914
21.914
21.914
21.9141
21.9141
21.9141
21.9141
21.9141
21.9142
21.9142
21.9142
21.9142
21.9143
21.9143
21.9144
21.9144
21.9145
21.9145
21.9146
21.9146
21.9147
21.9148
21.9149
21.915
21.9151
21.9152
21.9154
21.9155
21.9157
21.9159
21.9162
21.9164
21.9167
21.917
21.9174
21.9178
21.9182
21.9187
21.9193
21.9199
21.9206
21.9213
21.922
21.9229
21.9238
21.9248
21.9259
21.9271
21.9285
21.9299
21.9316
21.9334
21.9354
21.9376
21.9403
21.942
21.9139
21.9139
21.9139
21.9139
21.9139
21.9139
21.9139
21.9139
21.9139
21.9139
21.9139
21.9139
21.9139
21.9139
21.9139
21.9139
21.9139
21.9139
21.9139
21.9139
21.9139
21.9139
21.9139
21.9139
21.9139
21.9139
21.9139
21.9139
21.9139
21.9139
21.9139
21.9139
21.9139
21.9139
21.9139
21.9139
21.9139
21.9139
21.9139
21.9139
21.9139
21.9139
21.9139
21.9139
21.9139
21.9139
21.9139
21.9139
21.9139
21.9139
21.9139
21.9139
21.9139
21.9139
21.9139
21.9139
21.9139
21.9139
21.9139
21.9139
21.9139
21.9139
21.9139
21.9139
21.9139
21.9139
21.9139
21.9139
21.9139
21.9139
21.9139
21.9139
21.9139
21.9139
21.9139
21.9139
21.9139
21.9139
21.9139
21.9139
21.9139
21.9139
21.9139
21.9139
21.9139
21.9139
21.9139
21.9139
21.9139
21.9139
21.9139
21.9139
21.9139
21.9139
21.9139
21.9139
21.9139
21.9139
21.9139
21.9139
21.9139
21.9139
21.9139
21.9139
21.9139
21.9139
21.9139
21.9139
21.9139
21.9139
21.9139
21.9139
21.9139
21.9139
21.9139
21.9139
21.9139
21.9139
21.9139
21.9139
21.9139
21.9139
21.9139
21.9139
21.9139
21.9139
21.914
21.914
21.914
21.914
21.914
21.914
21.914
21.914
21.914
21.914
21.9141
21.9141
21.9141
21.9141
21.9141
21.9142
21.9142
21.9142
21.9143
21.9143
21.9144
21.9144
21.9145
21.9145
21.9146
21.9147
21.9147
21.9148
21.9149
21.915
21.9152
21.9153
21.9154
21.9156
21.9158
21.916
21.9162
21.9165
21.9168
21.9171
21.9175
21.9179
21.9184
21.9189
21.9195
21.9201
21.9208
21.9216
21.9225
21.9235
21.9245
21.9257
21.927
21.9284
21.9299
21.9316
21.9335
21.9355
21.9378
21.9404
21.9433
21.9464
21.95
21.9539
21.9582
21.9629
21.9681
21.9739
21.9802
21.9872
21.9949
22.0035
22.0131
22.0238
22.0358
22.0494
22.0647
22.082
22.1014
22.1242
22.1449
21.9139
21.9139
21.9139
21.9139
21.9139
21.9139
21.9139
21.9139
21.9139
21.9139
21.9139
21.9139
21.9139
21.9139
21.9139
21.9139
21.9139
21.9139
21.9139
21.9139
21.9139
21.9139
21.9139
21.9139
21.9139
21.9139
21.9139
21.9139
21.9139
21.9139
21.9139
21.9139
21.9139
21.9139
21.9139
21.9139
21.9139
21.9139
21.9139
21.9139
21.9139
21.9139
21.9139
21.9139
21.9139
21.9139
21.9139
21.9139
21.9139
21.9139
21.9139
21.9139
21.9139
21.9139
21.9139
21.9139
21.9139
21.9139
21.9139
21.9139
21.9139
21.9139
21.9139
21.9139
21.9139
21.9139
21.9139
21.9139
21.9139
21.9139
21.9139
21.9139
21.9139
21.9139
21.9139
21.9139
21.9139
21.9139
21.9139
21.9139
21.9139
21.9139
21.9139
21.9139
21.9139
21.9139
21.9139
21.9139
21.9139
21.9139
21.9139
21.9139
21.9139
21.9139
21.9139
21.9139
21.9139
21.9139
21.9139
21.9139
21.9139
21.9139
21.9139
21.9139
21.9139
21.9139
21.9139
21.914
21.914
21.914
21.914
21.914
21.914
21.914
21.914
21.914
21.914
21.914
21.9141
21.9141
21.9141
21.9141
21.9142
21.9142
21.9142
21.9143
21.9143
21.9143
21.9144
21.9145
21.9145
21.9146
21.9147
21.9147
21.9148
21.9149
21.9151
21.9152
21.9153
21.9155
21.9156
21.9158
21.9161
21.9163
21.9166
21.9169
21.9172
21.9176
21.918
21.9185
21.919
21.9196
21.9203
21.9211
21.9219
21.9229
21.9239
21.9251
21.9264
21.9278
21.9294
21.9311
21.933
21.9352
21.9375
21.9401
21.9429
21.9461
21.9497
21.9537
21.9581
21.963
21.9685
21.9746
21.9813
21.9888
21.997
22.0061
22.0162
22.0275
22.0401
22.0542
22.07
22.0879
22.1081
22.1309
22.1568
22.1861
22.2192
22.2564
22.2981
22.3448
22.3965
22.4536
22.5163
22.5845
22.6587
22.7389
22.8258
22.9198
23.0223
23.1341
23.2585
23.3947
23.5517
23.7081
21.9139
21.9139
21.9139
21.9139
21.9139
21.9139
21.9139
21.9139
21.9139
21.9139
21.9139
21.9139
21.9139
21.9139
21.9139
21.9139
21.9139
21.9139
21.9139
21.9139
21.9139
21.9139
21.9139
21.9139
21.9139
21.9139
21.9139
21.9139
21.9139
21.9139
21.9139
21.9139
21.9139
21.9139
21.9139
21.9139
21.9139
21.9139
21.9139
21.9139
21.9139
21.9139
21.9139
21.9139
21.9139
21.9139
21.9139
21.9139
21.9139
21.9139
21.9139
21.9139
21.9139
21.9139
21.9139
21.9139
21.9139
21.9139
21.9139
21.9139
21.9139
21.9139
21.9139
21.9139
21.9139
21.9139
21.9139
21.9139
21.9139
21.9139
21.9139
21.9139
21.9139
21.9139
21.9139
21.9139
21.9139
21.9139
21.9139
21.9139
21.9139
21.9139
21.9139
21.9139
21.9139
21.9139
21.9139
21.9139
21.9139
21.914
21.914
21.914
21.914
21.914
21.914
21.914
21.914
21.914
21.914
21.9141
21.9141
21.9141
21.9141
21.9141
21.9142
21.9142
21.9142
21.9143
21.9143
21.9144
21.9144
21.9145
21.9146
21.9147
21.9147
21.9148
21.915
21.9151
21.9152
21.9154
21.9155
21.9157
21.9159
21.9161
21.9164
21.9167
21.917
21.9173
21.9177
21.9182
21.9187
21.9192
21.9199
21.9206
21.9214
21.9223
21.9233
21.9244
21.9257
21.9271
21.9287
21.9304
21.9324
21.9345
21.9369
21.9395
21.9424
21.9457
21.9493
21.9533
21.9577
21.9628
21.9684
21.9746
21.9816
21.9893
21.998
22.0076
22.0182
22.0301
22.0432
22.0579
22.0743
22.0927
22.1134
22.1368
22.1632
22.193
22.2269
22.2652
22.3085
22.3573
22.4121
22.4734
22.5416
22.617
22.6999
22.7907
22.8898
22.9977
23.1154
23.244
23.3856
23.5422
23.7169
23.9129
24.1342
24.3845
24.6683
24.9893
25.3521
25.7589
26.2144
26.7183
27.2756
27.8828
28.5478
29.2643
30.0489
30.8922
31.83
32.8537
33.9895
35.5107
21.9139
21.9139
21.9139
21.9139
21.9139
21.9139
21.9139
21.9139
21.9139
21.9139
21.9139
21.9139
21.9139
21.9139
21.9139
21.9139
21.9139
21.9139
21.9139
21.9139
21.9139
21.9139
21.9139
21.9139
21.9139
21.9139
21.9139
21.9139
21.9139
21.9139
21.9139
21.9139
21.9139
21.9139
21.9139
21.9139
21.9139
21.9139
21.9139
21.9139
21.9139
21.9139
21.9139
21.9139
21.9139
21.9139
21.9139
21.9139
21.9139
21.9139
21.9139
21.9139
21.9139
21.9139
21.9139
21.9139
21.9139
21.9139
21.9139
21.9139
21.9139
21.9139
21.9139
21.9139
21.9139
21.9139
21.9139
21.9139
21.9139
21.9139
21.9139
21.9139
21.914
21.914
21.914
21.914
21.914
21.914
21.914
21.914
21.914
21.914
21.9141
21.9141
21.9141
21.9141
21.9141
21.9142
21.9142
21.9142
21.9143
21.9143
21.9144
21.9145
21.9145
21.9146
21.9147
21.9148
21.9149
21.915
21.9151
21.9153
21.9154
21.9156
21.9158
21.916
21.9162
21.9165
21.9168
21.9172
21.9175
21.918
21.9184
21.919
21.9196
21.9203
21.921
21.9219
21.9228
21.9239
21.9252
21.9265
21.9281
21.9298
21.9318
21.9339
21.9363
21.939
21.942
21.9453
21.949
21.9531
21.9577
21.9627
21.9685
21.9748
21.982
21.99
21.999
22.009
22.0202
22.0327
22.0466
22.0622
22.0795
22.0989
22.1206
22.1449
22.1724
22.2034
22.2385
22.2783
22.3233
22.3743
22.432
22.497
22.5699
22.6515
22.7421
22.8423
22.9526
23.0737
23.2063
23.3516
23.5111
23.6871
23.8825
24.1008
24.3462
24.6232
24.937
25.2927
25.6952
26.1494
26.6592
27.2282
27.8591
28.5544
29.3161
30.1484
31.0558
32.0494
33.142
34.3584
35.7258
37.2907
39.0991
41.2271
43.7402
46.753
50.3438
54.6737
59.8098
65.9633
73.1375
81.5891
91.1808
102.201
114.321
127.745
142.321
156.61
179.501
21.9139
21.9139
21.9139
21.9139
21.9139
21.9139
21.9139
21.9139
21.9139
21.9139
21.9139
21.9139
21.9139
21.9139
21.9139
21.9139
21.9139
21.9139
21.9139
21.9139
21.9139
21.9139
21.9139
21.9139
21.9139
21.9139
21.9139
21.9139
21.9139
21.9139
21.9139
21.9139
21.9139
21.9139
21.9139
21.9139
21.9139
21.9139
21.9139
21.9139
21.9139
21.9139
21.9139
21.9139
21.9139
21.9139
21.9139
21.9139
21.9139
21.9139
21.9139
21.9139
21.9139
21.9139
21.9139
21.914
21.914
21.914
21.914
21.914
21.914
21.914
21.914
21.914
21.914
21.9141
21.9141
21.9141
21.9141
21.9142
21.9142
21.9142
21.9143
21.9143
21.9144
21.9144
21.9145
21.9145
21.9146
21.9147
21.9148
21.9149
21.9151
21.9152
21.9153
21.9155
21.9157
21.9159
21.9162
21.9164
21.9167
21.9171
21.9175
21.9179
21.9184
21.9189
21.9195
21.9201
21.9209
21.9217
21.9227
21.9238
21.925
21.9263
21.9279
21.9296
21.9315
21.9337
21.9362
21.939
21.942
21.9455
21.9493
21.9536
21.9583
21.9636
21.9696
21.9762
21.9837
21.992
22.0014
22.012
22.0238
22.0371
22.0519
22.0685
22.0871
22.1079
22.1312
22.1573
22.1866
22.2197
22.257
22.2992
22.347
22.4012
22.4627
22.5323
22.6109
22.6993
22.7985
22.9091
23.0319
23.1677
23.3174
23.4821
23.6634
23.8634
24.0851
24.3322
24.609
24.9208
25.2733
25.6725
26.1245
26.635
27.2094
27.8521
28.567
29.3576
30.2274
31.1812
32.2264
33.375
34.6449
36.0627
37.6649
39.5005
41.6312
44.1345
47.1016
50.6413
54.8719
59.928
65.9389
73.0438
81.3457
90.9497
101.881
114.168
127.713
142.445
158.132
174.617
191.58
208.836
226.052
243.071
259.647
275.608
290.736
304.814
317.769
329.341
339.657
348.39
355.931
361.89
366.949
370.661
374.042
21.9139
21.9139
21.9139
21.9139
21.9139
21.9139
21.9139
21.9139
21.9139
21.9139
21.9139
21.9139
21.9139
21.9139
21.9139
21.9139
21.9139
21.9139
21.9139
21.9139
21.9139
21.9139
21.9139
21.9139
21.9139
21.9139
21.9139
21.9139
21.9139
21.9139
21.9139
21.9139
21.9139
21.9139
21.9139
21.9139
21.9139
21.9139
21.914
21.914
21.914
21.914
21.914
21.914
21.914
21.914
21.914
21.914
21.9141
21.9141
21.9141
21.9141
21.9142
21.9142
21.9142
21.9143
21.9143
21.9144
21.9144
21.9145
21.9145
21.9146
21.9147
21.9148
21.9149
21.915
21.9152
21.9153
21.9155
21.9157
21.9159
21.9162
21.9165
21.9168
21.9171
21.9175
21.9179
21.9184
21.919
21.9196
21.9203
21.921
21.9219
21.9229
21.924
21.9252
21.9266
21.9282
21.93
21.932
21.9343
21.9368
21.9397
21.943
21.9466
21.9507
21.9553
21.9604
21.9661
21.9725
21.9796
21.9876
21.9966
22.0067
22.018
22.0308
22.0452
22.0613
22.0795
22.0999
22.1228
22.1484
22.1772
22.2096
22.2459
22.287
22.3333
22.3858
22.4453
22.5128
22.5894
22.6761
22.7741
22.8846
23.0085
23.147
23.301
23.4718
23.6606
23.8691
24.0998
24.3557
24.6407
24.9598
25.3187
25.7241
26.1828
26.7021
27.2888
27.9494
28.6896
29.5143
30.4282
31.4365
32.5461
33.7673
35.116
36.6158
38.3002
40.2147
42.4186
44.9862
48.0078
51.5893
55.8507
60.9231
66.9422
74.0418
82.3419
91.9393
102.893
115.218
128.871
143.752
159.702
176.511
193.929
211.689
229.514
247.14
264.319
280.843
296.488
311.02
324.259
336.044
346.311
354.998
362.189
367.942
372.488
375.992
378.768
380.996
382.931
385.04
387.03
388.715
390.224
391.637
393.097
394.554
396.13
397.703
399.379
400.999
402.715
404.271
406.04
21.9139
21.9139
21.9139
21.9139
21.9139
21.9139
21.9139
21.9139
21.9139
21.9139
21.9139
21.9139
21.9139
21.9139
21.9139
21.9139
21.9139
21.914
21.914
21.914
21.914
21.914
21.914
21.914
21.914
21.914
21.914
21.9141
21.9141
21.9141
21.9141
21.9142
21.9142
21.9142
21.9143
21.9143
21.9144
21.9144
21.9145
21.9146
21.9146
21.9147
21.9148
21.915
21.9151
21.9152
21.9154
21.9156
21.9158
21.916
21.9163
21.9166
21.9169
21.9173
21.9177
21.9182
21.9187
21.9193
21.9199
21.9207
21.9215
21.9225
21.9235
21.9247
21.926
21.9276
21.9293
21.9312
21.9334
21.9358
21.9386
21.9418
21.9453
21.9493
21.9538
21.9589
21.9646
21.9709
21.9781
21.9861
21.995
22.0051
22.0164
22.0291
22.0434
22.0596
22.0778
22.0983
22.1214
22.1475
22.1767
22.2097
22.2467
22.2884
22.3354
22.3885
22.4485
22.5166
22.5939
22.6815
22.781
22.8937
23.0209
23.1642
23.3249
23.5044
23.7041
23.9257
24.1715
24.444
24.747
25.0849
25.4636
25.8897
26.3708
26.915
27.5305
28.2253
29.007
29.8822
30.8573
31.9384
33.1332
34.4522
35.911
37.5327
39.3503
41.4091
43.7687
46.5042
49.7073
53.4857
57.9615
63.2675
69.5407
76.9148
85.5093
95.4192
106.704
119.375
133.394
148.66
165.015
182.251
200.114
218.325
236.597
254.638
272.165
288.921
304.676
319.195
332.271
343.762
353.598
361.786
368.407
373.618
377.631
380.712
383.125
385.104
386.832
388.687
390.452
392.01
393.42
394.807
396.217
397.682
399.193
400.751
402.316
403.885
405.386
406.811
408.073
409.208
409.735
409.924
410.147
410.522
411.032
411.678
412.391
413.189
413.968
414.748
415.423
415.993
416.47
416.065
21.9139
21.9139
21.9139
21.914
21.914
21.914
21.914
21.914
21.914
21.914
21.914
21.9141
21.9141
21.9141
21.9141
21.9141
21.9142
21.9142
21.9142
21.9143
21.9143
21.9144
21.9144
21.9145
21.9146
21.9147
21.9148
21.9149
21.915
21.9152
21.9153
21.9155
21.9157
21.916
21.9162
21.9165
21.9169
21.9172
21.9177
21.9181
21.9187
21.9193
21.9199
21.9207
21.9215
21.9225
21.9236
21.9248
21.9261
21.9277
21.9294
21.9314
21.9336
21.9361
21.9389
21.9421
21.9457
21.9498
21.9544
21.9596
21.9655
21.9721
21.9795
21.9879
21.9972
22.0078
22.0196
22.0329
22.0479
22.0648
22.0838
22.1054
22.1297
22.1571
22.1881
22.223
22.2624
22.3067
22.3568
22.4132
22.477
22.5493
22.6312
22.7242
22.8297
22.9495
23.0853
23.2388
23.4118
23.6062
23.8235
24.066
24.3356
24.6354
24.9688
25.3404
25.756
26.2228
26.7486
27.3426
28.0142
28.7726
29.627
30.5857
31.6567
32.8478
34.1682
35.6301
37.251
39.0565
41.0828
43.379
46.0095
49.0552
52.6134
56.7978
61.7348
67.5598
74.4094
82.4125
91.6798
102.294
114.297
127.687
142.405
158.34
175.322
193.128
211.494
230.127
248.721
266.963
284.541
301.162
316.574
330.551
342.908
353.535
362.411
369.604
375.259
379.59
382.861
385.36
387.345
389.022
390.531
392.172
393.694
395.078
396.401
397.743
399.133
400.575
402.051
403.546
405.021
406.428
407.715
408.832
409.804
410.358
410.638
410.944
411.383
411.958
412.631
413.372
414.135
414.879
415.554
416.121
416.534
416.779
416.873
416.815