/*--------------------------------*- C++ -*----------------------------------*\
| =========                 |                                                 |
| \\      /  F ield         | OpenFOAM: The Open Source CFD Toolbox           |
|  \\    /   O peration     | Version:  v1706                                 |
|   \\  /    A nd           | Web:      www.OpenFOAM.com                      |
|    \\/     M anipulation  |                                                 |
\*---------------------------------------------------------------------------*/
FoamFile
{
    version     2.0;
    format      ascii;
    class       volScalarField;
    location    "7e-06";
    object      Tt;
}
// * * * * * * * * * * * * * * * * * * * * * * * * * * * * * * * * * * * * * //

dimensions      [0 0 0 1 0 0 0];


internalField   nonuniform List<scalar> 
30104
(
144.4
144.4
144.4
144.4
144.4
144.4
144.4
144.4
144.4
144.4
144.4
144.4
144.4
144.4
144.4
144.4
144.4
144.4
144.4
144.4
144.4
144.4
144.4
144.4
144.4
144.4
144.4
144.4
144.4
144.4
144.4
144.4
144.4
144.4
144.4
144.4
144.4
144.4
144.4
144.4
144.4
144.4
144.4
144.4
144.4
144.4
144.4
144.4
144.4
144.4
144.4
144.4
144.4
144.4
144.4
144.4
144.4
144.4
144.4
144.4
144.4
144.4
144.4
144.4
144.4
144.4
144.4
144.4
144.4
144.4
144.4
144.4
144.4
144.4
144.4
144.4
144.4
144.4
144.4
144.4
144.4
144.4
144.4
144.4
144.4
144.4
144.4
144.4
144.4
144.4
144.4
144.4
144.4
144.4
144.4
144.4
144.4
144.4
144.4
144.4
144.4
144.4
144.4
144.4
144.4
144.4
144.4
144.4
144.4
144.4
144.4
144.4
144.4
144.4
144.4
144.4
144.4
144.4
144.4
144.4
144.4
144.4
144.4
144.4
144.4
144.4
144.4
144.4
144.4
144.4
144.4
144.4
144.4
144.4
144.4
144.4
144.4
144.4
144.4
144.4
144.4
144.4
144.4
144.4
144.4
144.4
144.4
144.4
144.4
144.4
144.4
144.4
144.4
144.4
144.4
144.4
144.4
144.4
144.4
144.4
144.4
144.4
144.4
144.4
144.4
144.4
144.4
144.4
144.4
144.4
144.4
144.4
144.4
144.4
144.4
144.4
144.4
144.4
144.4
144.4
144.4
144.4
144.4
144.4
144.4
144.4
144.4
144.4
144.4
144.4
144.4
144.4
144.4
144.4
144.4
144.4
144.4
144.4
144.4
144.4
144.4
144.4
144.4
144.4
144.4
144.4
144.4
144.4
144.4
144.4
144.4
144.4
144.4
144.4
144.4
144.4
144.4
144.4
144.4
144.4
144.4
144.4
144.4
144.4
144.4
144.4
144.4
144.4
144.4
144.4
144.4
144.4
144.4
144.4
144.4
144.4
144.4
144.4
144.4
144.4
144.4
144.4
144.4
144.4
144.4
144.4
144.4
144.4
144.4
144.4
144.4
144.4
144.4
144.4
144.4
144.4
144.4
144.4
144.4
144.4
144.4
144.4
144.4
144.4
144.4
144.4
144.4
144.4
144.4
144.4
144.4
144.4
144.4
144.4
144.4
144.4
144.4
144.4
144.4
144.4
144.4
144.4
144.4
144.4
144.4
144.4
144.4
144.4
144.4
144.4
144.4
144.4
144.4
144.4
144.4
144.4
144.4
144.4
144.4
144.4
144.4
144.4
144.4
144.4
144.4
144.4
144.4
144.4
144.4
144.4
144.4
144.4
144.4
144.4
144.4
144.4
144.4
144.4
144.4
144.4
144.4
144.4
144.4
144.4
144.4
144.4
144.4
144.4
144.4
144.4
144.4
144.4
144.4
144.4
144.4
144.4
144.4
144.4
144.4
144.4
144.4
144.4
144.4
144.4
144.4
144.4
144.4
144.4
144.4
144.4
144.4
144.4
144.4
144.4
144.4
144.4
144.4
144.4
144.4
144.4
144.4
144.4
144.4
144.4
144.4
144.4
144.4
144.4
144.4
144.4
144.4
144.4
144.4
144.4
144.4
144.4
144.4
144.4
144.4
144.4
144.4
144.4
144.4
144.4
144.4
144.4
144.4
144.4
144.4
144.4
144.4
144.4
144.4
144.4
144.4
144.4
144.4
144.4
144.4
144.4
144.4
144.4
144.4
144.4
144.4
144.4
144.4
144.4
144.4
144.4
144.4
144.4
144.4
144.4
144.4
144.4
144.4
144.4
144.4
144.4
144.4
144.4
144.4
144.4
144.4
144.4
144.4
144.4
144.4
144.4
144.4
144.4
144.4
144.4
144.4
144.4
144.4
144.4
144.4
144.4
144.4
144.4
144.4
144.4
144.4
144.4
144.4
144.4
144.4
144.4
144.4
144.4
144.4
144.4
144.4
144.4
144.4
144.4
144.4
144.4
144.4
144.4
144.4
144.4
144.4
144.4
144.4
144.4
144.4
144.4
144.4
144.4
144.4
144.4
144.4
144.4
144.4
144.4
144.4
144.4
144.4
144.4
144.4
144.4
144.4
144.4
144.4
144.4
144.4
144.4
144.4
144.4
144.4
144.4
144.4
144.4
144.4
144.4
144.4
144.4
144.4
144.4
144.4
144.4
144.4
144.4
144.4
144.4
144.4
144.4
144.4
144.4
144.4
144.4
144.4
144.4
144.4
144.4
144.4
144.4
144.4
144.4
144.4
144.4
144.4
144.4
144.4
144.4
144.4
144.4
144.4
144.4
144.4
144.4
144.4
144.4
144.4
144.4
144.4
144.4
144.4
144.4
144.4
144.4
144.4
144.4
144.4
144.4
144.4
144.4
144.4
144.4
144.4
144.4
144.4
144.4
144.4
144.4
144.4
144.4
144.4
144.4
144.4
144.4
144.4
144.4
144.4
144.4
144.4
144.4
144.4
144.4
144.4
144.4
144.4
144.4
144.4
144.4
144.4
144.4
144.4
144.4
144.4
144.4
144.4
144.4
144.4
144.4
144.4
144.4
144.4
144.4
144.4
144.4
144.4
144.4
144.4
144.4
144.4
144.4
144.4
144.4
144.4
144.4
144.4
144.4
144.4
144.4
144.4
144.4
144.4
144.4
144.4
144.4
144.4
144.4
144.4
144.4
144.4
144.4
144.4
144.4
144.4
144.4
144.4
144.4
144.4
144.4
144.4
144.4
144.4
144.4
144.4
144.4
144.4
144.4
144.4
144.4
144.4
144.4
144.4
144.4
144.4
144.4
144.4
144.4
144.4
144.4
144.4
144.4
144.4
144.4
144.4
144.4
144.4
144.4
144.4
144.4
144.4
144.4
144.4
144.4
144.4
144.4
144.4
144.4
144.4
144.4
144.4
144.4
144.4
144.4
144.4
144.4
144.4
144.4
144.4
144.4
144.4
144.4
144.4
144.4
144.4
144.4
144.4
144.4
144.4
144.4
144.4
144.4
144.4
144.4
144.4
144.4
144.4
144.4
144.4
144.4
144.4
144.4
144.4
144.4
144.4
144.4
144.4
144.4
144.4
144.4
144.4
144.4
144.4
144.4
144.4
144.4
144.4
144.4
144.4
144.4
144.4
144.4
144.4
144.4
144.4
144.4
144.4
144.4
144.4
144.4
144.4
144.4
144.4
144.4
144.4
144.4
144.4
144.4
144.4
144.4
144.4
144.4
144.4
144.4
144.4
144.4
144.4
144.4
144.4
144.4
144.4
144.4
144.4
144.4
144.4
144.4
144.4
144.4
144.4
144.4
144.4
144.4
144.4
144.4
144.4
144.4
144.4
144.4
144.4
144.4
144.4
144.4
144.4
144.4
144.4
144.4
144.4
144.4
144.4
144.4
144.4
144.4
144.4
144.4
144.4
144.4
144.4
144.4
144.4
144.4
144.4
144.4
144.4
144.4
144.4
144.4
144.4
144.4
144.4
144.4
144.4
144.4
144.4
144.4
144.4
144.4
144.4
144.4
144.4
144.4
144.4
144.4
144.4
144.4
144.4
144.4
144.4
144.4
144.4
144.4
144.4
144.4
144.4
144.4
144.4
144.4
144.4
144.4
144.4
144.4
144.4
144.4
144.4
144.4
144.4
144.4
144.4
144.4
144.4
144.4
144.4
144.4
144.4
144.4
144.4
144.4
144.4
144.4
144.4
144.4
144.4
144.4
144.4
144.4
144.4
144.4
144.4
144.4
144.4
144.4
144.4
144.4
144.4
144.4
144.4
144.4
144.4
144.4
144.4
144.4
144.4
144.4
144.4
144.4
144.4
144.4
144.4
144.4
144.4
144.4
144.4
144.4
144.4
144.4
144.4
144.4
144.4
144.4
144.4
144.4
144.4
144.4
144.4
144.4
144.4
144.4
144.4
144.4
144.4
144.4
144.4
144.4
144.4
144.4
144.4
144.4
144.4
144.4
144.4
144.4
144.4
144.4
144.4
144.4
144.4
144.4
144.4
144.4
144.4
144.4
144.4
144.4
144.4
144.4
144.4
144.4
144.4
144.4
144.4
144.4
144.4
144.4
144.4
144.4
144.4
144.4
144.4
144.4
144.4
144.4
144.4
144.4
144.4
144.4
144.4
144.4
144.4
144.4
144.4
144.4
144.4
144.4
144.4
144.4
144.4
144.4
144.4
144.4
144.4
144.4
144.4
144.4
144.4
144.4
144.4
144.4
144.4
144.4
144.4
144.4
144.4
144.4
144.4
144.4
144.4
144.4
144.4
144.4
144.4
144.4
144.4
144.4
144.4
144.4
144.4
144.4
144.4
144.4
144.4
144.4
144.4
144.4
144.4
144.4
144.4
144.4
144.4
144.4
144.4
144.4
144.4
144.4
144.4
144.4
144.4
144.4
144.4
144.4
144.4
144.4
144.4
144.4
144.4
144.4
144.4
144.4
144.4
144.4
144.4
144.4
144.4
144.4
144.4
144.4
144.4
144.4
144.4
144.4
144.4
144.4
144.4
144.4
144.4
144.4
144.4
144.4
144.4
144.4
144.4
144.4
144.4
144.4
144.4
144.4
144.4
144.4
144.4
144.4
144.4
144.4
144.4
144.4
144.4
144.4
144.4
144.4
144.4
144.4
144.4
144.4
144.4
144.4
144.4
144.4
144.4
144.4
144.4
144.4
144.4
144.4
144.4
144.4
144.4
144.4
144.4
144.4
144.4
144.4
144.4
144.4
144.4
144.4
144.4
144.4
144.4
144.4
144.4
144.4
144.4
144.4
144.4
144.4
144.4
144.4
144.4
144.4
144.4
144.4
144.4
144.4
144.4
144.4
144.4
144.4
144.4
144.4
144.4
144.4
144.4
144.4
144.4
144.4
144.4
144.4
144.4
144.4
144.4
144.4
144.4
144.4
144.4
144.4
144.4
144.4
144.4
144.4
144.4
144.4
144.4
144.4
144.4
144.4
144.4
144.4
144.4
144.4
144.4
144.4
144.4
144.4
144.4
144.4
144.4
144.4
144.4
144.4
144.4
144.4
144.4
144.4
144.4
144.4
144.4
144.4
144.4
144.4
144.4
144.4
144.4
144.4
144.4
144.4
144.4
144.4
144.4
144.4
144.4
144.4
144.4
144.4
144.4
144.4
144.4
144.4
144.4
144.4
144.4
144.4
144.4
144.4
144.4
144.4
144.4
144.4
144.4
144.4
144.4
144.4
144.4
144.4
144.4
144.4
144.4
144.4
144.4
144.4
144.4
144.4
144.4
144.4
144.4
144.4
144.4
144.4
144.4
144.4
144.4
144.4
144.4
144.4
144.4
144.4
144.4
144.4
144.4
144.4
144.4
144.4
144.4
144.4
144.4
144.4
144.4
144.4
144.4
144.4
144.4
144.4
144.4
144.4
144.4
144.4
144.4
144.4
144.4
144.4
144.4
144.4
144.4
144.4
144.4
144.4
144.4
144.4
144.4
144.4
144.4
144.4
144.4
144.4
144.4
144.4
144.4
144.4
144.4
144.4
144.4
144.4
144.4
144.4
144.4
144.4
144.4
144.4
144.4
144.4
144.4
144.4
144.4
144.4
144.4
144.4
144.4
144.4
144.4
144.4
144.4
144.4
144.4
144.4
144.4
144.4
144.4
144.4
144.4
144.4
144.4
144.4
144.4
144.4
144.4
144.4
144.4
144.4
144.4
144.4
144.4
144.4
144.4
144.4
144.4
144.4
144.4
144.4
144.4
144.4
144.4
144.4
144.4
144.4
144.4
144.4
144.4
144.4
144.4
144.4
144.4
144.4
144.4
144.4
144.4
144.4
144.4
144.4
144.4
144.4
144.4
144.4
144.4
144.4
144.4
144.4
144.4
144.4
144.4
144.4
144.4
144.4
144.4
144.4
144.4
144.4
144.4
144.4
144.4
144.4
144.4
144.4
144.4
144.4
144.4
144.4
144.4
144.4
144.4
144.4
144.4
144.4
144.4
144.4
144.4
144.4
144.4
144.4
144.4
144.4
144.4
144.4
144.4
144.4
144.4
144.4
144.4
144.4
144.4
144.4
144.4
144.4
144.4
144.4
144.4
144.4
144.4
144.4
144.4
144.4
144.4
144.4
144.4
144.4
144.4
144.4
144.4
144.4
144.4
144.4
144.4
144.4
144.4
144.4
144.4
144.4
144.4
144.4
144.4
144.4
144.4
144.4
144.4
144.4
144.4
144.4
144.4
144.4
144.4
144.4
144.4
144.4
144.4
144.4
144.4
144.4
144.4
144.4
144.4
144.4
144.4
144.4
144.4
144.4
144.4
144.4
144.4
144.4
144.4
144.4
144.4
144.4
144.4
144.4
144.4
144.4
144.4
144.4
144.4
144.4
144.4
144.4
144.4
144.4
144.4
144.4
144.4
144.4
144.4
144.4
144.4
144.4
144.4
144.4
144.4
144.4
144.4
144.4
144.4
144.4
144.4
144.4
144.4
144.4
144.4
144.4
144.4
144.4
144.4
144.4
144.4
144.4
144.4
144.4
144.4
144.4
144.4
144.4
144.4
144.4
144.4
144.4
144.4
144.4
144.4
144.4
144.4
144.4
144.4
144.4
144.4
144.4
144.4
144.4
144.4
144.4
144.4
144.4
144.4
144.4
144.4
144.4
144.4
144.4
144.4
144.4
144.4
144.4
144.4
144.4
144.4
144.4
144.4
144.4
144.4
144.4
144.4
144.4
144.4
144.4
144.4
144.4
144.4
144.4
144.4
144.4
144.4
144.4
144.4
144.4
144.4
144.4
144.4
144.4
144.4
144.4
144.4
144.4
144.4
144.4
144.4
144.4
144.4
144.4
144.4
144.4
144.4
144.4
144.4
144.4
144.4
144.4
144.4
144.4
144.4
144.4
144.4
144.4
144.4
144.4
144.4
144.4
144.4
144.4
144.4
144.4
144.4
144.4
144.4
144.4
144.4
144.4
144.4
144.4
144.4
144.4
144.4
144.4
144.4
144.4
144.4
144.4
144.4
144.4
144.4
144.4
144.4
144.4
144.4
144.4
144.4
144.4
144.4
144.4
144.4
144.4
144.4
144.4
144.4
144.4
144.4
144.4
144.4
144.4
144.4
144.4
144.4
144.4
144.4
144.4
144.4
144.4
144.4
144.4
144.4
144.4
144.4
144.4
144.4
144.4
144.4
144.4
144.4
144.4
144.4
144.4
144.4
144.4
144.4
144.4
144.4
144.4
144.4
144.4
144.4
144.4
144.4
144.4
144.4
144.4
144.4
144.4
144.4
144.4
144.4
144.4
144.4
144.401
144.401
144.401
144.401
144.401
144.401
144.401
144.401
144.401
144.401
144.401
144.401
144.402
144.402
144.402
144.402
144.4
144.4
144.4
144.4
144.4
144.4
144.4
144.4
144.4
144.4
144.4
144.4
144.4
144.4
144.4
144.4
144.4
144.4
144.4
144.4
144.4
144.4
144.4
144.4
144.4
144.4
144.4
144.4
144.4
144.4
144.4
144.4
144.4
144.4
144.4
144.4
144.4
144.4
144.4
144.4
144.4
144.4
144.4
144.4
144.4
144.4
144.4
144.4
144.4
144.4
144.4
144.4
144.4
144.4
144.4
144.4
144.4
144.4
144.4
144.4
144.4
144.4
144.4
144.4
144.4
144.4
144.4
144.4
144.4
144.4
144.4
144.4
144.4
144.4
144.4
144.4
144.4
144.4
144.4
144.4
144.4
144.4
144.4
144.4
144.4
144.4
144.4
144.4
144.4
144.4
144.4
144.4
144.4
144.4
144.4
144.4
144.4
144.4
144.4
144.4
144.4
144.4
144.4
144.4
144.4
144.4
144.4
144.4
144.4
144.4
144.4
144.4
144.4
144.4
144.4
144.4
144.4
144.4
144.4
144.4
144.4
144.4
144.4
144.4
144.4
144.4
144.4
144.4
144.4
144.4
144.4
144.4
144.4
144.4
144.4
144.4
144.4
144.4
144.4
144.4
144.4
144.4
144.4
144.4
144.4
144.4
144.4
144.4
144.4
144.4
144.4
144.4
144.4
144.4
144.4
144.4
144.4
144.4
144.4
144.4
144.4
144.4
144.4
144.4
144.4
144.4
144.4
144.4
144.4
144.4
144.401
144.401
144.401
144.401
144.401
144.401
144.401
144.401
144.401
144.401
144.401
144.402
144.402
144.402
144.402
144.402
144.403
144.403
144.403
144.403
144.404
144.404
144.404
144.405
144.405
144.406
144.407
144.407
144.408
144.409
144.41
144.411
144.412
144.414
144.415
144.417
144.417
144.4
144.4
144.4
144.4
144.4
144.4
144.4
144.4
144.4
144.4
144.4
144.4
144.4
144.4
144.4
144.4
144.4
144.4
144.4
144.4
144.4
144.4
144.4
144.4
144.4
144.4
144.4
144.4
144.4
144.4
144.4
144.4
144.4
144.4
144.4
144.4
144.4
144.4
144.4
144.4
144.4
144.4
144.4
144.4
144.4
144.4
144.4
144.4
144.4
144.4
144.4
144.4
144.4
144.4
144.4
144.4
144.4
144.4
144.4
144.4
144.4
144.4
144.4
144.4
144.4
144.4
144.4
144.4
144.4
144.4
144.4
144.4
144.4
144.4
144.4
144.4
144.4
144.4
144.4
144.4
144.4
144.4
144.4
144.4
144.4
144.4
144.4
144.4
144.4
144.4
144.4
144.4
144.4
144.4
144.4
144.4
144.4
144.4
144.4
144.4
144.4
144.4
144.4
144.4
144.4
144.4
144.4
144.4
144.4
144.4
144.4
144.4
144.4
144.4
144.4
144.4
144.4
144.4
144.4
144.4
144.4
144.4
144.4
144.4
144.4
144.4
144.4
144.4
144.4
144.4
144.4
144.4
144.4
144.4
144.4
144.4
144.4
144.4
144.4
144.4
144.4
144.4
144.4
144.4
144.4
144.4
144.4
144.4
144.4
144.4
144.4
144.401
144.401
144.401
144.401
144.401
144.401
144.401
144.401
144.401
144.401
144.402
144.402
144.402
144.402
144.402
144.403
144.403
144.403
144.403
144.404
144.404
144.405
144.405
144.406
144.406
144.407
144.408
144.409
144.409
144.411
144.412
144.413
144.414
144.416
144.418
144.42
144.422
144.424
144.427
144.43
144.433
144.437
144.44
144.445
144.449
144.454
144.46
144.466
144.473
144.481
144.49
144.499
144.51
144.522
144.536
144.543
144.4
144.4
144.4
144.4
144.4
144.4
144.4
144.4
144.4
144.4
144.4
144.4
144.4
144.4
144.4
144.4
144.4
144.4
144.4
144.4
144.4
144.4
144.4
144.4
144.4
144.4
144.4
144.4
144.4
144.4
144.4
144.4
144.4
144.4
144.4
144.4
144.4
144.4
144.4
144.4
144.4
144.4
144.4
144.4
144.4
144.4
144.4
144.4
144.4
144.4
144.4
144.4
144.4
144.4
144.4
144.4
144.4
144.4
144.4
144.4
144.4
144.4
144.4
144.4
144.4
144.4
144.4
144.4
144.4
144.4
144.4
144.4
144.4
144.4
144.4
144.4
144.4
144.4
144.4
144.4
144.4
144.4
144.4
144.4
144.4
144.4
144.4
144.4
144.4
144.4
144.4
144.4
144.4
144.4
144.4
144.4
144.4
144.4
144.4
144.4
144.4
144.4
144.4
144.4
144.4
144.4
144.4
144.4
144.4
144.4
144.4
144.4
144.4
144.4
144.4
144.4
144.4
144.4
144.4
144.4
144.4
144.4
144.4
144.4
144.4
144.4
144.4
144.4
144.4
144.4
144.4
144.4
144.401
144.401
144.401
144.401
144.401
144.401
144.401
144.401
144.401
144.401
144.402
144.402
144.402
144.402
144.402
144.403
144.403
144.403
144.403
144.404
144.404
144.405
144.405
144.406
144.406
144.407
144.408
144.409
144.41
144.411
144.412
144.413
144.415
144.417
144.418
144.421
144.423
144.425
144.428
144.432
144.435
144.439
144.443
144.448
144.453
144.459
144.466
144.473
144.481
144.489
144.499
144.51
144.522
144.536
144.551
144.568
144.587
144.608
144.631
144.656
144.685
144.716
144.75
144.787
144.829
144.874
144.924
144.98
145.042
145.112
145.19
145.277
145.375
145.492
145.574
144.4
144.4
144.4
144.4
144.4
144.4
144.4
144.4
144.4
144.4
144.4
144.4
144.4
144.4
144.4
144.4
144.4
144.4
144.4
144.4
144.4
144.4
144.4
144.4
144.4
144.4
144.4
144.4
144.4
144.4
144.4
144.4
144.4
144.4
144.4
144.4
144.4
144.4
144.4
144.4
144.4
144.4
144.4
144.4
144.4
144.4
144.4
144.4
144.4
144.4
144.4
144.4
144.4
144.4
144.4
144.4
144.4
144.4
144.4
144.4
144.4
144.4
144.4
144.4
144.4
144.4
144.4
144.4
144.4
144.4
144.4
144.4
144.4
144.4
144.4
144.4
144.4
144.4
144.4
144.4
144.4
144.4
144.4
144.4
144.4
144.4
144.4
144.4
144.4
144.4
144.4
144.4
144.4
144.4
144.4
144.4
144.4
144.4
144.4
144.4
144.4
144.4
144.4
144.4
144.4
144.4
144.4
144.4
144.4
144.4
144.4
144.4
144.4
144.4
144.401
144.401
144.401
144.401
144.401
144.401
144.401
144.401
144.401
144.401
144.402
144.402
144.402
144.402
144.403
144.403
144.403
144.403
144.404
144.404
144.405
144.405
144.406
144.407
144.407
144.408
144.409
144.41
144.411
144.412
144.414
144.415
144.417
144.419
144.421
144.424
144.427
144.43
144.433
144.437
144.441
144.446
144.451
144.457
144.463
144.471
144.479
144.487
144.497
144.508
144.52
144.534
144.549
144.566
144.585
144.606
144.629
144.656
144.685
144.718
144.754
144.794
144.838
144.887
144.942
145.001
145.068
145.142
145.224
145.316
145.42
145.537
145.669
145.817
145.985
146.173
146.385
146.621
146.883
147.173
147.492
147.841
148.222
148.635
149.084
149.571
150.104
150.687
151.335
152.049
152.875
153.594
144.4
144.4
144.4
144.4
144.4
144.4
144.4
144.4
144.4
144.4
144.4
144.4
144.4
144.4
144.4
144.4
144.4
144.4
144.4
144.4
144.4
144.4
144.4
144.4
144.4
144.4
144.4
144.4
144.4
144.4
144.4
144.4
144.4
144.4
144.4
144.4
144.4
144.4
144.4
144.4
144.4
144.4
144.4
144.4
144.4
144.4
144.4
144.4
144.4
144.4
144.4
144.4
144.4
144.4
144.4
144.4
144.4
144.4
144.4
144.4
144.4
144.4
144.4
144.4
144.4
144.4
144.4
144.4
144.4
144.4
144.4
144.4
144.4
144.4
144.4
144.4
144.4
144.4
144.4
144.4
144.4
144.4
144.4
144.4
144.4
144.4
144.4
144.4
144.4
144.4
144.4
144.4
144.4
144.4
144.4
144.401
144.401
144.401
144.401
144.401
144.401
144.401
144.401
144.401
144.401
144.402
144.402
144.402
144.402
144.403
144.403
144.403
144.403
144.404
144.404
144.405
144.405
144.406
144.407
144.407
144.408
144.409
144.41
144.412
144.413
144.414
144.416
144.418
144.42
144.422
144.425
144.428
144.431
144.435
144.439
144.443
144.449
144.454
144.461
144.468
144.476
144.485
144.495
144.506
144.518
144.531
144.547
144.564
144.582
144.604
144.627
144.654
144.684
144.717
144.755
144.796
144.843
144.894
144.952
145.015
145.086
145.164
145.251
145.347
145.456
145.577
145.713
145.867
146.041
146.237
146.458
146.707
146.987
147.3
147.649
148.035
148.461
148.928
149.439
149.997
150.607
151.275
152.011
152.826
153.736
154.757
155.909
157.215
158.698
160.377
162.276
164.405
166.784
169.404
172.277
175.372
178.7
182.204
185.921
189.777
193.864
198.104
202.662
207.094
144.4
144.4
144.4
144.4
144.4
144.4
144.4
144.4
144.4
144.4
144.4
144.4
144.4
144.4
144.4
144.4
144.4
144.4
144.4
144.4
144.4
144.4
144.4
144.4
144.4
144.4
144.4
144.4
144.4
144.4
144.4
144.4
144.4
144.4
144.4
144.4
144.4
144.4
144.4
144.4
144.4
144.4
144.4
144.4
144.4
144.4
144.4
144.4
144.4
144.4
144.4
144.4
144.4
144.4
144.4
144.4
144.4
144.4
144.4
144.4
144.4
144.4
144.4
144.4
144.4
144.4
144.4
144.4
144.4
144.4
144.4
144.4
144.4
144.4
144.4
144.4
144.4
144.4
144.401
144.401
144.401
144.401
144.401
144.401
144.401
144.401
144.401
144.401
144.402
144.402
144.402
144.402
144.403
144.403
144.403
144.404
144.404
144.404
144.405
144.406
144.406
144.407
144.408
144.409
144.41
144.411
144.412
144.414
144.415
144.417
144.419
144.421
144.424
144.427
144.43
144.433
144.437
144.442
144.447
144.452
144.459
144.466
144.474
144.483
144.493
144.504
144.516
144.53
144.545
144.563
144.582
144.603
144.627
144.654
144.685
144.719
144.757
144.8
144.848
144.902
144.962
145.029
145.104
145.187
145.28
145.383
145.499
145.627
145.771
145.933
146.115
146.321
146.554
146.817
147.114
147.448
147.823
148.243
148.709
149.226
149.796
150.422
151.109
151.862
152.69
153.604
154.619
155.752
157.025
158.463
160.091
161.937
164.024
166.376
169.009
171.933
175.147
178.645
182.41
186.428
190.678
195.158
199.868
204.85
210.145
215.858
222.082
228.99
236.702
245.451
255.326
266.582
279.162
293.3
308.642
325.383
342.778
361.044
379.125
397.269
414.641
430.594
449.346
144.4
144.4
144.4
144.4
144.4
144.4
144.4
144.4
144.4
144.4
144.4
144.4
144.4
144.4
144.4
144.4
144.4
144.4
144.4
144.4
144.4
144.4
144.4
144.4
144.4
144.4
144.4
144.4
144.4
144.4
144.4
144.4
144.4
144.4
144.4
144.4
144.4
144.4
144.4
144.4
144.4
144.4
144.4
144.4
144.4
144.4
144.4
144.4
144.4
144.4
144.4
144.4
144.4
144.4
144.4
144.4
144.4
144.4
144.4
144.4
144.401
144.401
144.401
144.401
144.401
144.401
144.401
144.401
144.401
144.401
144.402
144.402
144.402
144.402
144.402
144.403
144.403
144.403
144.404
144.404
144.405
144.405
144.406
144.407
144.408
144.408
144.409
144.411
144.412
144.413
144.415
144.417
144.419
144.421
144.423
144.426
144.429
144.433
144.437
144.441
144.446
144.452
144.458
144.465
144.473
144.482
144.493
144.504
144.517
144.531
144.547
144.565
144.585
144.607
144.632
144.66
144.691
144.727
144.766
144.811
144.861
144.918
144.982
145.053
145.133
145.223
145.323
145.434
145.559
145.698
145.854
146.028
146.225
146.445
146.695
146.977
147.296
147.656
148.063
148.521
149.034
149.607
150.243
150.947
151.723
152.577
153.518
154.556
155.706
156.986
158.419
160.03
161.849
163.907
166.231
168.851
171.785
175.047
178.642
182.564
186.799
191.331
196.146
201.237
206.616
212.319
218.41
224.986
232.173
240.127
249.014
259.013
270.272
282.918
296.981
312.439
329.109
346.776
365.042
383.569
401.861
419.62
436.421
452.141
466.54
479.703
491.569
502.348
512.102
521.012
529.119
536.5
543.207
549.213
554.607
559.29
563.445
566.955
570.069
572.863
574.971
144.4
144.4
144.4
144.4
144.4
144.4
144.4
144.4
144.4
144.4
144.4
144.4
144.4
144.4
144.4
144.4
144.4
144.4
144.4
144.4
144.4
144.4
144.4
144.4
144.4
144.4
144.4
144.4
144.4
144.4
144.4
144.4
144.4
144.4
144.4
144.4
144.4
144.4
144.4
144.4
144.4
144.4
144.4
144.4
144.401
144.401
144.401
144.401
144.401
144.401
144.401
144.401
144.401
144.402
144.402
144.402
144.402
144.402
144.403
144.403
144.403
144.404
144.404
144.405
144.405
144.406
144.407
144.408
144.408
144.409
144.411
144.412
144.413
144.415
144.417
144.419
144.421
144.424
144.427
144.43
144.434
144.438
144.442
144.448
144.453
144.46
144.467
144.476
144.485
144.496
144.508
144.521
144.536
144.553
144.572
144.593
144.617
144.644
144.674
144.708
144.746
144.789
144.837
144.891
144.952
145.02
145.098
145.185
145.283
145.393
145.517
145.655
145.809
145.982
146.176
146.394
146.639
146.915
147.227
147.58
147.979
148.431
148.941
149.515
150.16
150.879
151.68
152.567
153.548
154.632
155.829
157.154
158.629
160.276
162.124
164.206
166.555
169.205
172.186
175.522
179.229
183.312
187.766
192.578
197.732
203.218
209.033
215.199
221.762
228.8
236.423
244.772
254.006
264.292
275.783
288.596
302.782
318.302
335.017
352.681
370.962
389.472
407.802
425.575
442.469
458.257
472.801
486.071
498.099
508.98
518.825
527.759
535.859
543.167
549.707
555.491
560.548
564.898
568.618
571.774
574.499
576.901
579.136
581.303
583.505
585.969
588.544
591.065
593.539
595.99
598.451
600.877
603.313
605.708
608.113
610.477
612.88
615.199
618
144.4
144.4
144.4
144.4
144.4
144.4
144.4
144.4
144.4
144.4
144.4
144.4
144.4
144.4
144.4
144.4
144.4
144.4
144.4
144.4
144.4
144.4
144.4
144.401
144.401
144.401
144.401
144.401
144.401
144.401
144.401
144.401
144.402
144.402
144.402
144.402
144.402
144.403
144.403
144.403
144.404
144.404
144.405
144.406
144.406
144.407
144.408
144.409
144.41
144.411
144.413
144.414
144.416
144.418
144.42
144.423
144.425
144.429
144.432
144.436
144.441
144.446
144.451
144.458
144.465
144.473
144.482
144.492
144.504
144.517
144.531
144.548
144.567
144.588
144.611
144.638
144.668
144.702
144.739
144.782
144.83
144.884
144.944
145.013
145.09
145.177
145.276
145.387
145.512
145.653
145.811
145.988
146.187
146.411
146.662
146.944
147.262
147.621
148.028
148.487
149.008
149.597
150.262
151.009
151.847
152.782
153.822
154.975
156.252
157.666
159.233
160.978
162.926
165.11
167.565
170.331
173.441
176.93
180.821
185.128
189.856
194.996
200.536
206.462
212.768
219.467
226.595
234.22
242.441
251.388
261.211
272.066
284.098
297.408
312.034
327.921
344.914
362.755
381.106
399.58
417.785
435.36
452.012
467.537
481.823
494.847
506.653
517.321
526.943
535.611
543.398
550.339
556.453
561.763
566.31
570.155
573.386
576.116
578.471
580.592
582.606
584.614
586.681
588.96
591.34
593.685
595.971
598.241
600.489
602.719
604.929
607.128
609.315
611.507
613.692
615.875
618.028
620.172
622.079
623.838
625.645
627.578
629.621
631.768
633.995
636.313
638.685
641.126
643.596
646.121
648.574
651.55
144.4
144.4
144.4
144.4
144.4
144.4
144.4
144.4
144.401
144.401
144.401
144.401
144.401
144.401
144.401
144.401
144.401
144.402
144.402
144.402
144.402
144.403
144.403
144.403
144.404
144.404
144.405
144.405
144.406
144.407
144.408
144.409
144.41
144.411
144.412
144.414
144.416
144.418
144.42
144.423
144.425
144.429
144.432
144.436
144.441
144.446
144.452
144.458
144.465
144.474
144.483
144.494
144.505
144.519
144.534
144.551
144.57
144.591
144.616
144.643
144.675
144.71
144.749
144.794
144.844
144.9
144.963
145.035
145.116
145.207
145.31
145.427
145.559
145.708
145.876
146.065
146.278
146.517
146.786
147.089
147.43
147.814
148.247
148.738
149.294
149.923
150.635
151.439
152.344
153.359
154.494
155.757
157.159
158.715
160.44
162.357
164.492
166.879
169.554
172.558
175.931
179.711
183.926
188.598
193.734
199.331
205.377
211.86
218.773
226.129
233.962
242.338
251.356
261.14
271.832
283.574
296.486
310.638
326.026
342.55
360.008
378.108
396.493
414.78
432.603
449.644
465.667
480.52
494.138
506.524
517.73
527.83
536.895
544.983
552.146
558.421
563.836
568.438
572.296
575.504
578.179
580.451
582.456
584.328
586.17
588.052
590.004
592.135
594.301
596.422
598.499
600.553
602.587
604.608
606.619
608.63
610.645
612.661
614.657
616.624
618.572
620.364
622.036
623.738
625.552
627.474
629.49
631.588
633.757
635.984
638.253
640.55
642.857
645.169
647.495
649.834
652.212
654.749
657.433
660.234
663.129
666.129
669.21
672.382
675.621
678.946
682.33
685.819
689.303
693.539
144.401
144.401
144.401
144.401
144.402
144.402
144.402
144.402
144.403
144.403
144.403
144.404
144.404
144.405
144.405
144.406
144.407
144.408
144.409
144.41
144.411
144.412
144.414
144.416
144.418
144.42
144.423
144.426
144.429
144.433
144.438
144.442
144.448
144.454
144.461
144.469
144.479
144.489
144.5
144.513
144.528
144.544
144.563
144.584
144.607
144.634
144.664
144.698
144.737
144.78
144.829
144.885
144.947
145.017
145.096
145.186
145.287
145.402
145.531
145.678
145.843
146.031
146.243
146.481
146.751
147.054
147.395
147.78
148.213
148.703
149.256
149.882
150.592
151.394
152.302
153.326
154.477
155.766
157.206
158.808
160.587
162.562
164.756
167.198
169.923
172.972
176.386
180.209
184.481
189.233
194.484
200.243
206.504
213.257
220.491
228.205
236.415
245.168
254.538
264.631
275.57
287.486
300.494
314.665
330.007
346.434
363.766
381.729
399.982
418.156
435.893
452.884
468.894
483.773
497.448
509.909
521.191
531.351
540.445
548.518
555.61
561.761
567.022
571.452
575.134
578.172
580.69
582.818
584.69
586.431
588.141
589.883
591.682
593.562
595.523
597.471
599.376
601.252
603.114
604.965
606.815
608.67
610.527
612.372
614.18
615.959
617.719
619.344
620.921
622.545
624.273
626.1
628.011
629.993
632.031
634.109
636.212
638.323
640.448
642.598
644.764
646.97
649.311
651.8
654.399
657.095
659.882
662.752
665.697
668.712
671.796
674.953
678.19
681.528
684.978
688.562
692.294
696.172
700.164
704.268
708.471
712.787
717.199
721.731
726.362
731.131
736.008
741.052
746.164
751.931
144.405
144.406
144.407
144.408
144.41
144.411
144.413
144.414
144.416
144.418
144.42
144.423
144.426
144.429
144.433
144.437
144.441
144.447
144.453
144.46
144.467
144.476
144.486
144.497
144.51
144.525
144.542
144.561
144.582
144.607
144.634
144.666
144.701
144.742
144.787
144.839
144.897
144.962
145.036
145.12
145.214
145.32
145.439
145.575
145.728
145.901
146.098
146.32
146.571
146.855
147.176
147.538
147.946
148.406
148.925
149.511
150.173
150.923
151.772
152.732
153.818
155.042
156.419
157.962
159.684
161.601
163.732
166.098
168.727
171.652
174.914
178.556
182.624
187.162
192.206
197.784
203.909
210.581
217.792
225.528
233.786
242.577
251.938
261.935
272.661
284.227
296.748
310.319
324.989
340.74
357.461
374.95
392.919
411.026
428.912
446.244
462.747
478.226
492.565
505.717
517.684
528.497
538.203
546.842
554.449
561.06
566.718
571.489
575.457
578.725
581.411
583.641
585.543
587.241
588.847
590.441
592.07
593.742
595.452
597.223
598.989
600.734
602.46
604.176
605.892
607.614
609.34
611.05
612.718
614.351
615.96
617.532
619.04
620.557
622.147
623.834
625.601
627.432
629.311
631.222
633.147
635.084
637.048
639.04
641.056
643.13
645.335
647.673
650.112
652.639
655.246
657.925
660.67
663.481
666.361
669.321
672.376
675.539
678.825
682.251
685.817
689.499
693.285
697.173
701.164
705.26
709.463
713.782
718.222
722.793
727.502
732.353
737.347
742.481
747.744
753.131
758.632
764.257
769.996
775.867
781.85
787.98
794.218
800.623
807.123
813.798
820.61
827.261
144.424
144.428
144.433
144.438
144.444
144.451
144.458
144.465
144.474
144.484
144.494
144.506
144.52
144.535
144.552
144.572
144.594
144.619
144.647
144.68
144.717
144.759
144.807
144.862
144.925
144.996
145.077
145.169
145.274
145.393
145.527
145.68
145.853
146.05
146.272
146.524
146.809
147.131
147.496
147.906
148.369
148.891
149.479
150.143
150.892
151.739
152.697
153.781
155.006
156.388
157.943
159.687
161.637
163.811
166.227
168.91
171.888
175.197
178.878
182.978
187.542
192.617
198.24
204.437
211.22
218.588
226.53
235.035
244.1
253.74
263.996
274.936
286.651
299.24
312.792
327.363
342.948
359.463
376.732
394.493
412.425
430.178
447.423
463.883
479.354
493.715
506.913
518.943
529.827
539.598
548.293
555.942
562.578
568.248
573.014
576.963
580.207
582.867
585.065
586.923
588.557
590.074
591.557
593.057
594.589
596.144
597.715
599.321
600.934
602.538
604.135
605.736
607.345
608.952
610.529
612.059
613.554
615.029
616.502
617.944
619.404
620.92
622.519
624.187
625.906
627.656
629.421
631.2
633.01
634.85
636.723
638.636
640.637
642.766
645.003
647.322
649.715
652.174
654.695
657.279
659.933
662.67
665.501
668.436
671.489
674.675
677.989
681.413
684.934
688.552
692.27
696.09
700.019
704.064
708.234
712.537
716.975
721.553
726.267
731.112
736.077
741.161
746.366
751.694
757.15
762.736
768.457
774.316
780.312
786.447
792.714
799.112
805.632
812.272
819.023
825.89
832.865
839.957
847.151
854.464
861.87
869.402
877.004
884.757
892.537
900.476
908.663
914.907
144.51
144.528
144.549
144.573
144.599
144.628
144.661
144.697
144.737
144.781
144.831
144.887
144.949
145.02
145.1
145.191
145.294
145.411
145.545
145.697
145.87
146.067
146.292
146.549
146.842
147.176
147.558
147.992
148.485
149.045
149.679
150.397
151.208
152.126
153.163
154.336
155.659
157.152
158.832
160.716
162.824
165.175
167.788
170.687
173.901