/*--------------------------------*- C++ -*----------------------------------*\
| =========                 |                                                 |
| \\      /  F ield         | OpenFOAM: The Open Source CFD Toolbox           |
|  \\    /   O peration     | Version:  v1706                                 |
|   \\  /    A nd           | Web:      www.OpenFOAM.com                      |
|    \\/     M anipulation  |                                                 |
\*---------------------------------------------------------------------------*/
FoamFile
{
    version     2.0;
    format      ascii;
    class       volVectorField;
    location    "7e-06";
    object      U;
}
// * * * * * * * * * * * * * * * * * * * * * * * * * * * * * * * * * * * * * //

dimensions      [0 1 -1 0 0 0 0];


internalField   nonuniform List<vector> 
30104
(
(2764.5 -4.66536e-11 3.65255e-15)
(2764.5 -4.40204e-11 5.81922e-15)
(2764.5 -4.1525e-11 4.57781e-15)
(2764.5 -4.10014e-11 2.0292e-15)
(2764.5 -4.07343e-11 3.75047e-15)
(2764.5 -4.06842e-11 4.15068e-15)
(2764.5 -4.28419e-11 3.8611e-16)
(2764.5 -4.39014e-11 1.75734e-15)
(2764.5 -4.41068e-11 3.89979e-15)
(2764.5 -4.43278e-11 3.85905e-15)
(2764.5 -4.33814e-11 3.52219e-15)
(2764.5 -4.20481e-11 3.86259e-15)
(2764.5 -4.06374e-11 1.53906e-15)
(2764.5 -4.03943e-11 2.89642e-15)
(2764.5 -3.89526e-11 4.16173e-15)
(2764.5 -3.73879e-11 4.7926e-15)
(2764.5 -3.68655e-11 4.66218e-15)
(2764.5 -5.77507e-11 2.56939e-15)
(2764.5 -5.63671e-11 3.79676e-15)
(2764.5 -5.17383e-11 3.56474e-15)
(2764.5 -4.53324e-11 3.33561e-15)
(2764.5 -3.38808e-11 3.10878e-15)
(2764.5 -2.32085e-11 3.21912e-15)
(2764.5 -1.41416e-11 2.1636e-15)
(2764.5 -1.06989e-11 3.82502e-15)
(2764.5 -7.81456e-12 3.37146e-15)
(2764.5 -4.05075e-12 1.96098e-15)
(2764.5 1.98245e-13 2.73012e-15)
(2764.5 1.73252e-12 1.89966e-15)
(2764.5 2.87279e-12 4.73274e-15)
(2764.5 6.77923e-12 3.21764e-15)
(2764.5 6.16169e-12 8.07541e-16)
(2764.5 5.69173e-12 1.75376e-15)
(2764.5 3.72783e-12 2.01681e-15)
(2764.5 3.41538e-13 2.41413e-15)
(2764.5 -3.00368e-12 3.17455e-15)
(2764.5 -6.32097e-12 1.51124e-15)
(2764.5 -1.44147e-11 2.98658e-15)
(2764.5 -2.58277e-11 3.28345e-15)
(2764.5 -3.50122e-11 1.61977e-15)
(2764.5 -4.43016e-11 1.27701e-15)
(2764.5 -5.24285e-11 1.18715e-15)
(2764.5 -5.80685e-11 1.00292e-15)
(2764.5 -6.87316e-11 1.14081e-15)
(2764.5 -7.43768e-11 1.3797e-15)
(2764.5 -7.92229e-11 1.44462e-15)
(2764.5 -8.90738e-11 2.58851e-15)
(2764.5 -9.57811e-11 6.07229e-16)
(2764.5 -9.85404e-11 2.3668e-15)
(2764.5 -1.0189e-10 3.28654e-15)
(2764.5 -1.03161e-10 2.19976e-15)
(2764.5 -1.04805e-10 1.8126e-15)
(2764.5 -1.05602e-10 6.59776e-16)
(2764.5 -1.04735e-10 4.24866e-15)
(2764.5 -1.02455e-10 1.76172e-15)
(2764.5 -9.9123e-11 2.74743e-15)
(2764.5 -9.29294e-11 3.67286e-15)
(2764.5 -8.60404e-11 2.14463e-15)
(2764.5 -7.62816e-11 2.72554e-15)
(2764.5 -5.79403e-11 2.35432e-15)
(2764.5 -4.24115e-11 3.82872e-15)
(2764.5 -3.34766e-11 4.54164e-15)
(2764.5 -1.96245e-11 2.76891e-15)
(2764.5 -6.93719e-12 2.97996e-15)
(2764.5 4.56619e-12 2.61808e-15)
(2764.5 8.44768e-12 3.78824e-15)
(2764.5 2.01438e-11 1.41853e-15)
(2764.5 3.33809e-11 4.97672e-15)
(2764.5 4.2228e-11 3.16632e-15)
(2764.5 5.50952e-11 6.142e-16)
(2764.5 6.71442e-11 1.76348e-15)
(2764.5 7.68574e-11 2.87348e-15)
(2764.5 7.94216e-11 4.88427e-16)
(2764.5 7.69004e-11 2.8142e-15)
(2764.5 8.26238e-11 3.61694e-15)
(2764.5 8.24838e-11 1.48961e-15)
(2764.5 8.54349e-11 1.14198e-15)
(2764.5 7.81712e-11 2.67808e-16)
(2764.5 6.6223e-11 2.01064e-15)
(2764.5 5.71838e-11 2.33913e-15)
(2764.5 4.6025e-11 1.43097e-15)
(2764.5 3.0148e-11 3.24606e-15)
(2764.5 1.41937e-11 2.72268e-15)
(2764.5 -8.35187e-13 1.72551e-15)
(2764.5 -1.78116e-11 2.80924e-15)
(2764.5 -3.75179e-11 1.84779e-15)
(2764.5 -5.36041e-11 2.16667e-15)
(2764.5 -7.18518e-11 1.53339e-15)
(2764.5 -8.58235e-11 7.77566e-16)
(2764.5 -1.02915e-10 1.97334e-15)
(2764.5 -1.24291e-10 -8.51623e-16)
(2764.5 -1.33921e-10 1.65507e-15)
(2764.5 -1.46938e-10 2.29104e-15)
(2764.5 -1.6177e-10 2.13562e-15)
(2764.5 -1.85011e-10 2.33281e-16)
(2764.5 -2.03402e-10 -2.73483e-15)
(2764.5 -2.12044e-10 1.81354e-15)
(2764.5 -2.33189e-10 1.75297e-16)
(2764.5 -2.50545e-10 1.47215e-15)
(2764.5 -2.59789e-10 5.01843e-16)
(2764.5 -2.60454e-10 -4.96969e-16)
(2764.5 -2.69524e-10 3.49466e-15)
(2764.5 -2.69424e-10 3.5621e-15)
(2764.5 -2.66757e-10 2.90874e-15)
(2764.5 -2.61293e-10 1.83582e-15)
(2764.5 -2.55723e-10 1.66819e-15)
(2764.5 -2.42348e-10 2.33002e-15)
(2764.5 -2.25362e-10 2.39015e-15)
(2764.5 -2.15493e-10 2.13537e-15)
(2764.5 -1.97356e-10 3.19074e-15)
(2764.5 -1.83033e-10 3.03713e-15)
(2764.5 -1.59496e-10 7.66024e-16)
(2764.5 -1.36148e-10 3.42057e-15)
(2764.5 -1.09181e-10 1.63919e-15)
(2764.5 -7.99691e-11 5.14705e-16)
(2764.5 -5.20683e-11 2.77024e-15)
(2764.5 -2.65217e-11 3.13476e-15)
(2764.5 2.54019e-12 2.92913e-15)
(2764.5 2.8839e-11 2.94521e-15)
(2764.5 6.53822e-11 2.54195e-15)
(2764.5 9.87306e-11 2.71027e-15)
(2764.5 1.18674e-10 2.23707e-15)
(2764.5 1.5365e-10 2.64812e-15)
(2764.5 1.76308e-10 1.90353e-15)
(2764.5 2.04281e-10 3.58163e-16)
(2764.5 2.28146e-10 2.5593e-15)
(2764.5 2.64413e-10 3.92584e-15)
(2764.5 3.00161e-10 3.72853e-15)
(2764.5 3.22849e-10 2.78717e-15)
(2764.5 3.47135e-10 2.09471e-15)
(2764.5 3.6582e-10 2.51982e-15)
(2764.5 3.76663e-10 7.92215e-16)
(2764.5 3.83808e-10 1.47976e-15)
(2764.5 3.86607e-10 2.36715e-15)
(2764.5 3.86981e-10 1.79051e-15)
(2764.5 3.90406e-10 1.84447e-15)
(2764.5 3.7383e-10 1.45107e-15)
(2764.5 3.63044e-10 1.85986e-15)
(2764.5 3.40897e-10 1.10014e-15)
(2764.5 3.14883e-10 2.59341e-15)
(2764.5 2.90377e-10 3.77373e-15)
(2764.5 2.65719e-10 2.13391e-16)
(2764.5 2.3937e-10 -5.42858e-16)
(2764.5 2.01979e-10 3.87959e-16)
(2764.5 1.63686e-10 7.11559e-16)
(2764.5 1.25656e-10 1.47862e-15)
(2764.5 7.15471e-11 1.0072e-15)
(2764.5 1.9943e-11 7.61509e-16)
(2764.5 -3.13673e-11 1.66238e-15)
(2764.5 -9.04321e-11 1.17164e-15)
(2764.5 -1.43105e-10 1.96884e-15)
(2764.5 -1.94178e-10 4.41768e-16)
(2764.5 -2.42893e-10 1.56145e-15)
(2764.5 -2.85423e-10 -3.40585e-16)
(2764.5 -3.21134e-10 1.00462e-15)
(2764.5 -3.52818e-10 1.03303e-15)
(2764.5 -3.71416e-10 -2.07317e-16)
(2764.5 -3.89113e-10 1.25664e-15)
(2764.5 -4.05704e-10 1.94187e-15)
(2764.5 -4.29964e-10 1.28122e-15)
(2764.5 -4.5143e-10 1.45736e-15)
(2764.5 -4.73189e-10 1.18409e-16)
(2764.5 -5.00598e-10 1.83169e-16)
(2764.5 -5.18567e-10 1.70145e-15)
(2764.5 -5.36459e-10 1.85357e-15)
(2764.5 -5.66433e-10 -8.5005e-17)
(2764.5 -5.96533e-10 -4.41089e-16)
(2764.5 -6.12126e-10 1.90714e-15)
(2764.5 -6.32541e-10 -1.38199e-16)
(2764.5 -6.55806e-10 7.26477e-16)
(2764.5 -6.52022e-10 -1.57213e-16)
(2764.5 -6.63919e-10 2.12505e-16)
(2764.5 -6.78932e-10 9.89516e-16)
(2764.5 -6.98977e-10 6.98497e-16)
(2764.5 -7.00932e-10 1.66223e-15)
(2764.5 -6.93657e-10 1.21363e-15)
(2764.5 -6.72218e-10 8.02493e-16)
(2764.5 -6.54726e-10 5.18888e-16)
(2764.5 -6.42854e-10 1.82817e-15)
(2764.5 -5.99045e-10 3.1574e-16)
(2764.5 -5.3682e-10 1.85284e-15)
(2764.5 -4.70666e-10 1.78344e-15)
(2764.5 -3.78569e-10 1.69377e-15)
(2764.5 -2.71843e-10 3.47163e-15)
(2764.5 -1.59536e-10 2.33092e-15)
(2764.5 -3.37301e-11 2.15014e-15)
(2764.5 9.70965e-11 1.65249e-15)
(2764.5 1.76874e-10 3.16842e-15)
(2764.5 2.03073e-10 3.01977e-15)
(2764.5 2.30528e-10 2.54268e-15)
(2764.5 2.48274e-10 2.50556e-15)
(2764.5 2.67222e-10 2.06754e-15)
(2764.5 2.85394e-10 1.9313e-15)
(2764.5 2.96298e-10 3.04964e-15)
(2764.5 3.12978e-10 2.72227e-15)
(2764.5 3.33748e-10 2.03335e-15)
(2764.5 3.74201e-10 2.38893e-15)
(2764.5 4.21324e-10 1.97095e-15)
(2764.5 4.53646e-10 2.37269e-15)
(2764.5 4.7518e-10 3.21847e-15)
(2764.5 5.17035e-10 2.44253e-15)
(2764.5 5.49998e-10 2.99847e-15)
(2764.5 5.72266e-10 2.48604e-15)
(2764.5 6.00591e-10 2.01137e-15)
(2764.5 6.34354e-10 2.90714e-15)
(2764.5 6.67003e-10 3.05771e-15)
(2764.5 7.24415e-10 3.14359e-15)
(2764.5 7.6688e-10 2.98945e-15)
(2764.5 8.26563e-10 3.02239e-15)
(2764.5 8.62733e-10 2.61278e-15)
(2764.5 -1.27904e-10 1.32675e-14)
(2764.5 -1.30179e-10 1.27543e-14)
(2764.5 -1.29056e-10 1.06214e-14)
(2764.5 -1.27342e-10 1.01015e-14)
(2764.5 -1.26093e-10 1.05574e-14)
(2764.5 -1.23404e-10 1.05339e-14)
(2764.5 -1.20899e-10 9.91882e-15)
(2764.5 -1.22809e-10 9.94268e-15)
(2764.5 -1.23754e-10 1.51327e-14)
(2764.5 -1.25769e-10 1.28285e-14)
(2764.5 -1.2638e-10 1.17107e-14)
(2764.5 -1.29302e-10 1.40124e-14)
(2764.5 -1.2824e-10 1.7024e-14)
(2764.5 -1.25221e-10 1.6174e-14)
(2764.5 -1.28415e-10 1.45775e-14)
(2764.5 -1.283e-10 1.42818e-14)
(2764.5 -1.27319e-10 1.08473e-14)
(2764.5 -5.68641e-11 4.23708e-15)
(2764.5 -5.9231e-11 5.83074e-15)
(2764.5 -6.36915e-11 7.98964e-15)
(2764.5 -6.96388e-11 7.80595e-15)
(2764.5 -8.17457e-11 7.30565e-15)
(2764.5 -8.63277e-11 7.64925e-15)
(2764.5 -8.9568e-11 6.6826e-15)
(2764.5 -9.30152e-11 7.34639e-15)
(2764.5 -1.02571e-10 9.01387e-15)
(2764.5 -1.13562e-10 6.90622e-15)
(2764.5 -1.31211e-10 3.77746e-15)
(2764.5 -1.41389e-10 5.84374e-15)
(2764.5 -1.57524e-10 6.60407e-15)
(2764.5 -1.80413e-10 5.96786e-15)
(2764.5 -1.92441e-10 3.45117e-15)
(2764.5 -2.08495e-10 3.60476e-15)
(2764.5 -2.15939e-10 6.35764e-15)
(2764.5 -2.19522e-10 5.50198e-15)
(2764.5 -2.29144e-10 9.61757e-15)
(2764.5 -2.32486e-10 8.82354e-15)
(2764.5 -2.17055e-10 9.80336e-15)
(2764.5 -2.11086e-10 1.04204e-14)
(2764.5 -2.09136e-10 1.01696e-14)
(2764.5 -1.94829e-10 1.00843e-14)
(2764.5 -1.86129e-10 9.81532e-15)
(2764.5 -1.64865e-10 9.45506e-15)
(2764.5 -1.45042e-10 9.19389e-15)
(2764.5 -1.2057e-10 8.71417e-15)
(2764.5 -1.05971e-10 8.26724e-15)
(2764.5 -8.45435e-11 9.18914e-15)
(2764.5 -6.51763e-11 7.28453e-15)
(2764.5 -4.28247e-11 9.76193e-15)
(2764.5 -2.63568e-11 9.76642e-15)
(2764.5 -5.08696e-12 9.08697e-15)
(2764.5 1.34672e-11 6.78589e-15)
(2764.5 2.98415e-11 6.76419e-15)
(2764.5 4.84844e-11 9.9967e-15)
(2764.5 6.22896e-11 6.62683e-15)
(2764.5 8.04561e-11 6.47474e-15)
(2764.5 7.98153e-11 8.42927e-15)
(2764.5 9.23632e-11 8.93133e-15)
(2764.5 8.49582e-11 9.66924e-15)
(2764.5 8.46361e-11 8.01008e-15)
(2764.5 8.78922e-11 5.63765e-15)
(2764.5 7.98097e-11 9.68505e-15)
(2764.5 6.07252e-11 8.43532e-15)
(2764.5 4.33067e-11 5.36563e-15)
(2764.5 2.69967e-11 3.1105e-15)
(2764.5 1.8071e-12 6.30731e-15)
(2764.5 -2.56294e-11 3.18885e-15)
(2764.5 -5.78612e-11 5.0476e-15)
(2764.5 -8.77025e-11 5.45473e-15)
(2764.5 -1.30193e-10 4.85903e-15)
(2764.5 -1.70997e-10 6.04867e-15)
(2764.5 -2.14424e-10 4.04933e-15)
(2764.5 -2.49904e-10 1.94573e-15)
(2764.5 -2.85054e-10 5.2223e-15)
(2764.5 -3.22711e-10 4.00713e-15)
(2764.5 -3.52692e-10 7.98734e-15)
(2764.5 -3.86252e-10 6.82087e-15)
(2764.5 -4.06254e-10 4.74833e-15)
(2764.5 -4.11532e-10 5.42939e-15)
(2764.5 -4.28504e-10 5.46079e-15)
(2764.5 -4.3427e-10 4.73301e-15)
(2764.5 -4.29943e-10 7.119e-15)
(2764.5 -4.37343e-10 8.68394e-15)
(2764.5 -4.33712e-10 6.98771e-15)
(2764.5 -4.12733e-10 4.64825e-15)
(2764.5 -3.98984e-10 8.1389e-15)
(2764.5 -3.86915e-10 6.7131e-15)
(2764.5 -3.63229e-10 7.31287e-15)
(2764.5 -3.35548e-10 6.91416e-15)
(2764.5 -3.08037e-10 7.22416e-15)
(2764.5 -2.69068e-10 5.74911e-15)
(2764.5 -2.2863e-10 9.3784e-15)
(2764.5 -2.03676e-10 9.09206e-15)
(2764.5 -1.52551e-10 7.13116e-15)
(2764.5 -9.13216e-11 6.62024e-15)
(2764.5 -2.6678e-11 5.7808e-15)
(2764.5 1.72658e-11 6.54001e-15)
(2764.5 7.75081e-11 4.26585e-15)
(2764.5 1.50306e-10 4.86255e-15)
(2764.5 2.09432e-10 5.38476e-15)
(2764.5 2.47113e-10 7.26761e-15)
(2764.5 3.01278e-10 8.60981e-15)
(2764.5 3.38934e-10 8.77293e-15)
(2764.5 3.73461e-10 7.33822e-15)
(2764.5 4.08454e-10 5.764e-15)
(2764.5 4.4889e-10 8.18961e-15)
(2764.5 4.70656e-10 8.7882e-15)
(2764.5 4.99347e-10 9.53462e-15)
(2764.5 5.256e-10 9.1407e-15)
(2764.5 5.43471e-10 8.66137e-15)
(2764.5 5.57464e-10 7.33129e-15)
(2764.5 5.49356e-10 3.79543e-15)
(2764.5 5.42835e-10 7.6186e-15)
(2764.5 5.19611e-10 3.9033e-15)
(2764.5 5.11255e-10 3.85667e-15)
(2764.5 5.01395e-10 7.17815e-15)
(2764.5 4.79541e-10 4.674e-15)
(2764.5 4.45644e-10 5.85069e-15)
(2764.5 4.03437e-10 4.49274e-15)
(2764.5 3.44999e-10 4.30327e-15)
(2764.5 2.78047e-10 4.8947e-15)
(2764.5 2.12841e-10 5.40421e-15)
(2764.5 1.46441e-10 4.39442e-15)
(2764.5 8.48588e-11 3.4893e-15)
(2764.5 -1.78411e-12 4.68301e-15)
(2764.5 -8.50885e-11 4.7541e-15)
(2764.5 -1.85524e-10 2.54358e-15)
(2764.5 -2.8133e-10 5.00255e-15)
(2764.5 -3.80761e-10 7.95996e-15)
(2764.5 -4.61694e-10 4.44153e-15)
(2764.5 -5.43367e-10 3.80131e-15)
(2764.5 -6.13565e-10 4.27233e-15)
(2764.5 -6.95579e-10 1.95415e-15)
(2764.5 -7.74839e-10 4.01574e-15)
(2764.5 -8.26224e-10 7.67736e-15)
(2764.5 -8.70195e-10 4.61373e-15)
(2764.5 -9.12871e-10 5.53643e-15)
(2764.5 -9.34429e-10 2.55001e-15)
(2764.5 -9.52725e-10 8.06838e-16)
(2764.5 -9.82859e-10 5.2752e-15)
(2764.5 -9.92168e-10 5.1492e-15)
(2764.5 -1.01212e-09 2.82912e-15)
(2764.5 -1.01117e-09 2.82381e-15)
(2764.5 -1.00652e-09 2.50932e-15)
(2764.5 -9.84394e-10 2.38102e-15)
(2764.5 -9.52441e-10 2.06412e-15)
(2764.5 -9.18465e-10 2.1774e-15)
(2764.5 -8.69306e-10 5.05389e-15)
(2764.5 -8.22779e-10 2.60954e-15)
(2764.5 -7.59368e-10 2.39971e-15)
(2764.5 -6.76614e-10 3.04716e-15)
(2764.5 -5.92269e-10 4.2829e-15)
(2764.5 -4.96618e-10 6.79531e-15)
(2764.5 -3.64069e-10 5.4417e-15)
(2764.5 -2.51418e-10 4.39095e-15)
(2764.5 -1.25572e-10 4.69911e-15)
(2764.5 7.61238e-12 7.16005e-15)
(2764.5 1.54162e-10 7.65527e-15)
(2764.5 2.90349e-10 7.77077e-15)
(2764.5 3.36798e-10 7.75918e-15)
(2764.5 3.73847e-10 7.47422e-15)
(2764.5 4.11463e-10 8.06603e-15)
(2764.5 4.56164e-10 7.77495e-15)
(2764.5 5.14498e-10 6.09453e-15)
(2764.5 5.81067e-10 7.6697e-15)
(2764.5 6.31202e-10 6.97777e-15)
(2764.5 6.79307e-10 5.88377e-15)
(2764.5 7.14653e-10 7.2055e-15)
(2764.5 7.83606e-10 6.72273e-15)
(2764.5 8.55888e-10 8.4329e-15)
(2764.5 9.15025e-10 8.4353e-15)
(2764.5 9.88977e-10 7.49285e-15)
(2764.5 1.07474e-09 7.85892e-15)
(2764.5 1.15407e-09 6.81523e-15)
(2764.5 1.24981e-09 8.22968e-15)
(2764.5 1.34157e-09 8.13711e-15)
(2764.5 1.42426e-09 6.02548e-15)
(2764.5 1.53064e-09 7.61609e-15)
(2764.5 1.63762e-09 6.71988e-15)
(2764.5 1.73526e-09 5.85292e-15)
(2764.5 1.8055e-09 6.50653e-15)
(2764.5 1.86158e-09 4.88261e-15)
(2764.5 1.91887e-09 5.30551e-15)
(2764.5 1.97177e-09 7.11349e-15)
(2764.5 1.98298e-09 6.7738e-15)
(2764.5 1.99163e-09 6.18608e-15)
(2764.5 1.9981e-09 6.49149e-15)
(2764.5 2.04291e-09 6.01992e-15)
(2764.5 2.15451e-09 3.89182e-15)
(2764.5 2.28156e-09 5.87966e-15)
(2764.5 2.41291e-09 6.49432e-15)
(2764.5 2.55469e-09 4.98261e-15)
(2764.5 2.69885e-09 5.25866e-15)
(2764.5 2.83182e-09 5.30876e-15)
(2764.5 2.95109e-09 5.29422e-15)
(2764.5 3.04854e-09 4.97402e-15)
(2764.5 3.12439e-09 5.03179e-15)
(2764.5 3.16369e-09 5.02758e-15)
(2764.5 3.1611e-09 4.94478e-15)
(2764.5 3.10881e-09 5.03052e-15)
(2764.5 2.92759e-09 5.07217e-15)
(2764.5 2.6942e-09 4.24269e-15)
(2764.5 2.33861e-09 3.84654e-15)
(2764.5 1.96563e-09 5.78366e-15)
(2764.5 1.47168e-09 5.93775e-15)
(2764.5 1.01801e-09 6.32474e-15)
(2764.5 5.83631e-10 6.61907e-15)
(2764.5 1.84426e-10 6.05568e-15)
(2764.5 3.49343e-11 5.22047e-15)
(2764.5 -6.47984e-10 4.81988e-15)
(2764.5 -2.07236e-10 1.97036e-14)
(2764.5 -2.08905e-10 2.06528e-14)
(2764.5 -2.10397e-10 1.70777e-14)
(2764.5 -2.11459e-10 2.18151e-14)
(2764.5 -2.11585e-10 2.36755e-14)
(2764.5 -2.09757e-10 2.06049e-14)
(2764.5 -2.07044e-10 1.88022e-14)
(2764.5 -2.03653e-10 2.03434e-14)
(2764.5 -2.01548e-10 2.35539e-14)
(2764.5 -2.02581e-10 2.26692e-14)
(2764.5 -2.00915e-10 1.99466e-14)
(2764.5 -2.02565e-10 2.2405e-14)
(2764.5 -2.03738e-10 1.82973e-14)
(2764.5 -2.04362e-10 1.61617e-14)
(2764.5 -2.06147e-10 2.26595e-14)
(2764.5 -2.101e-10 1.86018e-14)
(2764.5 -2.64264e-10 1.18025e-14)
(2764.5 -2.72967e-10 1.32657e-14)
(2764.5 -2.87806e-10 1.32719e-14)
(2764.5 -2.99459e-10 1.40611e-14)
(2764.5 -3.13291e-10 1.37464e-14)
(2764.5 -3.35294e-10 1.49967e-14)
(2764.5 -3.44676e-10 1.19848e-14)
(2764.5 -3.33196e-10 1.58247e-14)
(2764.5 -3.33025e-10 1.40151e-14)
(2764.5 -3.19739e-10 1.30398e-14)
(2764.5 -3.03267e-10 1.53358e-14)
(2764.5 -2.76847e-10 1.41293e-14)
(2764.5 -2.51813e-10 1.52743e-14)
(2764.5 -2.33943e-10 1.65201e-14)
(2764.5 -2.09428e-10 1.26469e-14)
(2764.5 -1.72607e-10 1.29697e-14)
(2764.5 -1.48771e-10 1.25153e-14)
(2764.5 -1.25955e-10 1.41384e-14)
(2764.5 -9.77012e-11 1.58277e-14)
(2764.5 -6.49025e-11 1.22373e-14)
(2764.5 -4.15623e-11 1.45732e-14)
(2764.5 -1.28041e-11 1.54398e-14)
(2764.5 1.31626e-11 1.33718e-14)
(2764.5 3.73663e-11 1.3214e-14)
(2764.5 5.08995e-11 1.38404e-14)
(2764.5 5.72009e-11 1.34208e-14)
(2764.5 6.56517e-11 1.278e-14)
(2764.5 5.58552e-11 1.3269e-14)
(2764.5 4.9366e-11 1.09993e-14)
(2764.5 5.14935e-11 1.22541e-14)
(2764.5 4.73951e-11 1.0348e-14)
(2764.5 2.97188e-11 1.09369e-14)
(2764.5 -1.67555e-12 1.02888e-14)
(2764.5 -2.9882e-11 1.09632e-14)
(2764.5 -6.79814e-11 9.09486e-15)
(2764.5 -1.05366e-10 1.32357e-14)
(2764.5 -1.46038e-10 9.2836e-15)
(2764.5 -2.02527e-10 9.09719e-15)
(2764.5 -2.63865e-10 9.63114e-15)
(2764.5 -3.03905e-10 1.05732e-14)
(2764.5 -3.47306e-10 9.28372e-15)
(2764.5 -3.95611e-10 1.36606e-14)
(2764.5 -4.48891e-10 9.15517e-15)
(2764.5 -4.87175e-10 1.10838e-14)
(2764.5 -5.05201e-10 1.00858e-14)
(2764.5 -5.29215e-10 9.21932e-15)
(2764.5 -5.51235e-10 1.10981e-14)
(2764.5 -5.59865e-10 1.29135e-14)
(2764.5 -5.57116e-10 1.21021e-14)
(2764.5 -5.52303e-10 1.10619e-14)
(2764.5 -5.57711e-10 1.01303e-14)
(2764.5 -5.52062e-10 1.07599e-14)
(2764.5 -5.26966e-10 1.00806e-14)
(2764.5 -4.936e-10 8.90774e-15)
(2764.5 -4.67516e-10 1.03822e-14)
(2764.5 -4.30829e-10 1.40834e-14)
(2764.5 -3.78362e-10 1.14254e-14)
(2764.5 -3.25593e-10 1.06274e-14)
(2764.5 -2.76075e-10 1.34721e-14)
(2764.5 -2.33865e-10 1.28402e-14)
(2764.5 -1.8324e-10 1.37849e-14)
(2764.5 -1.24125e-10 1.30395e-14)
(2764.5 -6.98408e-11 1.48145e-14)
(2764.5 -6.81214e-12 1.47431e-14)
(2764.5 6.71219e-11 1.2304e-14)
(2764.5 1.1416e-10 1.03152e-14)
(2764.5 1.69953e-10 1.49621e-14)
(2764.5 2.22349e-10 1.40201e-14)
(2764.5 2.84597e-10 1.17337e-14)
(2764.5 3.31207e-10 1.51343e-14)
(2764.5 3.71128e-10 1.30827e-14)
(2764.5 3.98959e-10 1.14606e-14)
(2764.5 4.32896e-10 1.35098e-14)
(2764.5 4.64371e-10 1.41153e-14)
(2764.5 4.75935e-10 1.20285e-14)
(2764.5 4.85669e-10 9.29112e-15)
(2764.5 4.66344e-10 1.31318e-14)
(2764.5 4.47806e-10 1.13077e-14)
(2764.5 4.33252e-10 9.51444e-15)
(2764.5 4.18141e-10 8.71292e-15)
(2764.5 3.85833e-10 8.35008e-15)
(2764.5 3.3046e-10 9.57474e-15)
(2764.5 2.74046e-10 1.02302e-14)
(2764.5 2.12103e-10 9.50565e-15)
(2764.5 1.44121e-10 8.59548e-15)
(2764.5 6.00809e-11 9.00284e-15)
(2764.5 -2.80641e-11 7.55998e-15)
(2764.5 -1.23659e-10 6.53995e-15)
(2764.5 -2.18202e-10 6.12707e-15)
(2764.5 -3.10629e-10 6.69693e-15)
(2764.5 -4.19711e-10 9.37954e-15)
(2764.5 -5.19951e-10 7.84374e-15)
(2764.5 -6.25062e-10 6.32052e-15)
(2764.5 -7.10401e-10 7.243e-15)
(2764.5 -7.9899e-10 5.95069e-15)
(2764.5 -8.88836e-10 5.93995e-15)
(2764.5 -9.51493e-10 5.66872e-15)
(2764.5 -1.01524e-09 7.5857e-15)
(2764.5 -1.07346e-09 5.71555e-15)
(2764.5 -1.13922e-09 4.41651e-15)
(2764.5 -1.16847e-09 5.09811e-15)
(2764.5 -1.21694e-09 6.44035e-15)
(2764.5 -1.24504e-09 5.21696e-15)
(2764.5 -1.26421e-09 7.9889e-15)
(2764.5 -1.27363e-09 8.99411e-15)
(2764.5 -1.27672e-09 6.2339e-15)
(2764.5 -1.27791e-09 5.23322e-15)
(2764.5 -1.26194e-09 8.54031e-15)
(2764.5 -1.23227e-09 7.71616e-15)
(2764.5 -1.18517e-09 1.03543e-14)
(2764.5 -1.13254e-09 1.07429e-14)
(2764.5 -1.07469e-09 1.04303e-14)
(2764.5 -9.85128e-10 8.28337e-15)
(2764.5 -8.75042e-10 9.06364e-15)
(2764.5 -7.4013e-10 9.37243e-15)
(2764.5 -5.82525e-10 1.02491e-14)
(2764.5 -4.27978e-10 9.73289e-15)
(2764.5 -2.76471e-10 1.16457e-14)
(2764.5 -1.30916e-10 1.06309e-14)
(2764.5 -2.89205e-12 1.14934e-14)
(2764.5 7.50333e-11 1.2203e-14)
(2764.5 1.42621e-10 1.11074e-14)
(2764.5 2.0908e-10 1.14607e-14)
(2764.5 2.96156e-10 1.12868e-14)
(2764.5 3.85993e-10 1.11575e-14)
(2764.5 4.83803e-10 1.12084e-14)
(2764.5 5.82905e-10 1.0392e-14)
(2764.5 6.57088e-10 1.11319e-14)
(2764.5 7.79945e-10 9.41938e-15)
(2764.5 8.87318e-10 9.32552e-15)
(2764.5 1.00229e-09 1.02683e-14)
(2764.5 1.13791e-09 9.5321e-15)
(2764.5 1.25757e-09 1.21866e-14)
(2764.5 1.33847e-09 1.16992e-14)
(2764.5 1.41434e-09 1.06172e-14)
(2764.5 1.48213e-09 1.07926e-14)
(2764.5 1.52257e-09 1.0988e-14)
(2764.5 1.55026e-09 1.10345e-14)
(2764.5 1.54823e-09 1.26777e-14)
(2764.5 1.49913e-09 1.077e-14)
(2764.5 1.44868e-09 1.00824e-14)
(2764.5 1.43644e-09 9.78592e-15)
(2764.5 1.5244e-09 1.0256e-14)
(2764.5 1.66038e-09 1.02493e-14)
(2764.5 1.81267e-09 9.65766e-15)
(2764.5 2.03037e-09 9.23748e-15)
(2764.5 2.30811e-09 1.01335e-14)
(2764.5 2.62516e-09 1.10464e-14)
(2764.5 2.97649e-09 1.05415e-14)
(2764.5 3.37358e-09 9.19078e-15)
(2764.5 3.77733e-09 1.04834e-14)
(2764.5 4.18005e-09 9.87968e-15)
(2764.5 4.56068e-09 1.06778e-14)
(2764.5 4.90458e-09 9.51971e-15)
(2764.5 5.24265e-09 8.90213e-15)
(2764.5 5.5949e-09 1.03361e-14)
(2764.5 5.90859e-09 9.9234e-15)
(2764.5 6.19536e-09 1.05924e-14)
(2764.5 6.47283e-09 9.7442e-15)
(2764.5 6.72555e-09 9.60252e-15)
(2764.5 6.96123e-09 9.42576e-15)
(2764.5 7.14587e-09 7.83318e-15)
(2764.5 7.25621e-09 7.46781e-15)
(2764.5 7.27755e-09 8.19908e-15)
(2764.5 7.17492e-09 8.75459e-15)
(2764.5 6.90571e-09 8.542e-15)
(2764.5 6.45894e-09 8.29826e-15)
(2764.5 5.81515e-09 7.68338e-15)
(2764.5 4.98414e-09 9.9478e-15)
(2764.5 4.02079e-09 8.04937e-15)
(2764.5 2.96745e-09 7.01626e-15)
(2764.5 1.92557e-09 8.52441e-15)
(2764.5 9.85654e-10 8.92023e-15)
(2764.5 2.26678e-10 8.17962e-15)
(2764.5 -2.39021e-10 7.44286e-15)
(2764.5 -3.32835e-10 6.98889e-15)
(2764.5 8.24314e-11 8.14912e-15)
(2764.5 1.109e-09 8.4816e-15)
(2764.5 2.93784e-09 7.11597e-15)
(2764.5 5.74057e-09 6.39935e-15)
(2764.5 9.6825e-09 7.20102e-15)
(2764.5 1.49421e-08 7.1664e-15)
(2764.5 2.14244e-08 7.31633e-15)
(2764.5 2.94661e-08 7.69484e-15)
(2764.5 3.86934e-08 7.57866e-15)
(2764.5 4.95104e-08 8.60358e-15)
(2764.5 6.07703e-08 7.47836e-15)
(2764.5 7.2507e-08 6.31881e-15)
(2764.5 8.37435e-08 8.60221e-15)
(2764.5 9.36282e-08 7.60206e-15)
(2764.5 1.03411e-07 7.28935e-15)
(2764.5 1.10962e-07 8.34139e-15)
(2764.5 1.20749e-07 7.83763e-15)
(2764.5 -2.85454e-10 2.86151e-14)
(2764.5 -2.87562e-10 2.65762e-14)
(2764.5 -2.89779e-10 2.42967e-14)
(2764.5 -2.92252e-10 2.84342e-14)
(2764.5 -2.9558e-10 3.00866e-14)
(2764.5 -2.95001e-10 2.27301e-14)
(2764.5 -2.93493e-10 2.63259e-14)
(2764.5 -2.91831e-10 2.70915e-14)
(2764.5 -2.89439e-10 2.67808e-14)
(2764.5 -2.90344e-10 2.3866e-14)
(2764.5 -2.88697e-10 3.03692e-14)
(2764.5 -2.8757e-10 3.14733e-14)
(2764.5 -2.84129e-10 2.83119e-14)
(2764.5 -2.82709e-10 2.61803e-14)
(2764.5 -2.82467e-10 2.76191e-14)
(2764.5 -2.80562e-10 2.72989e-14)
(2764.5 -3.0561e-10 2.01344e-14)
(2764.5 -2.88528e-10 1.75619e-14)
(2764.5 -2.76272e-10 1.90184e-14)
(2764.5 -2.54694e-10 1.71286e-14)
(2764.5 -2.23689e-10 2.01719e-14)
(2764.5 -2.03181e-10 2.22234e-14)
(2764.5 -1.80475e-10 1.94242e-14)
(2764.5 -1.6399e-10 1.96769e-14)
(2764.5 -1.38113e-10 2.13557e-14)
(2764.5 -1.18415e-10 2.2591e-14)
(2764.5 -1.0894e-10 1.82952e-14)
(2764.5 -9.55682e-11 2.033e-14)
(2764.5 -7.30182e-11 1.73447e-14)
(2764.5 -6.14715e-11 1.65602e-14)
(2764.5 -5.87978e-11 1.80183e-14)
(2764.5 -6.10688e-11 1.7145e-14)
(2764.5 -7.25969e-11 1.65351e-14)
(2764.5 -9.60765e-11 1.44738e-14)
(2764.5 -1.08493e-10 1.2849e-14)
(2764.5 -1.40731e-10 1.3623e-14)
(2764.5 -1.72499e-10 1.4698e-14)
(2764.5 -2.0961e-10 1.69664e-14)
(2764.5 -2.43704e-10 1.78143e-14)
(2764.5 -2.82916e-10 1.68518e-14)
(2764.5 -3.2164e-10 1.49642e-14)
(2764.5 -3.68417e-10 1.44706e-14)
(2764.5 -4.14591e-10 1.56002e-14)
(2764.5 -4.54694e-10 1.3389e-14)
(2764.5 -4.89886e-10 1.79648e-14)
(2764.5 -5.29336e-10 1.72315e-14)
(2764.5 -5.5701e-10 1.35437e-14)
(2764.5 -5.75466e-10 1.59898e-14)
(2764.5 -5.89248e-10 1.46199e-14)
(2764.5 -5.91431e-10 1.43884e-14)
(2764.5 -5.86399e-10 1.59175e-14)
(2764.5 -5.75305e-10 1.6097e-14)
(2764.5 -5.67321e-10 1.62064e-14)
(2764.5 -5.51907e-10 1.90536e-14)
(2764.5 -5.32103e-10 1.85333e-14)
(2764.5 -5.12635e-10 1.48145e-14)
(2764.5 -4.8873e-10 1.90081e-14)
(2764.5 -4.5116e-10 1.72196e-14)
(2764.5 -4.20715e-10 1.71921e-14)
(2764.5 -3.85127e-10 1.90423e-14)
(2764.5 -3.34648e-10 1.98788e-14)
(2764.5 -2.80714e-10 1.94448e-14)
(2764.5 -2.23464e-10 1.91268e-14)
(2764.5 -1.53055e-10 1.78405e-14)
(2764.5 -9.91076e-11 2.00494e-14)
(2764.5 -3.6596e-11 1.72711e-14)
(2764.5 2.93336e-11 1.54054e-14)
(2764.5 9.19957e-11 1.91061e-14)
(2764.5 1.50121e-10 1.84617e-14)
(2764.5 1.8575e-10 1.75422e-14)
(2764.5 2.25995e-10 1.87651e-14)
(2764.5 2.6411e-10 1.92345e-14)
(2764.5 3.0155e-10 1.67179e-14)
(2764.5 3.34909e-10 1.65686e-14)
(2764.5 3.4851e-10 1.68538e-14)
(2764.5 3.37259e-10 1.64071e-14)
(2764.5 3.19262e-10 1.86741e-14)
(2764.5 3.03917e-10 1.78143e-14)
(2764.5 2.77228e-10 1.60456e-14)
(2764.5 2.22174e-10 1.63208e-14)
(2764.5 1.71155e-10 1.42042e-14)
(2764.5 1.23175e-10 1.26479e-14)
(2764.5 4.74148e-11 1.57932e-14)
(2764.5 -3.93153e-11 1.46376e-14)
(2764.5 -1.27291e-10 1.44264e-14)
(2764.5 -2.29632e-10 1.44333e-14)
(2764.5 -3.28216e-10 1.42387e-14)
(2764.5 -4.32656e-10 1.26012e-14)
(2764.5 -5.37028e-10 1.29664e-14)
(2764.5 -6.14681e-10 1.21995e-14)
(2764.5 -7.02178e-10 1.24277e-14)
(2764.5 -7.86154e-10 1.19974e-14)
(2764.5 -8.71029e-10 1.30213e-14)
(2764.5 -9.34421e-10 1.1643e-14)
(2764.5 -9.95957e-10 1.19189e-14)
(2764.5 -1.06164e-09 1.15908e-14)
(2764.5 -1.11198e-09 1.37107e-14)
(2764.5 -1.15625e-09 1.17913e-14)
(2764.5 -1.17277e-09 1.12543e-14)
(2764.5 -1.17809e-09 1.1447e-14)
(2764.5 -1.18287e-09 1.31165e-14)
(2764.5 -1.17791e-09 1.32187e-14)
(2764.5 -1.15513e-09 1.17994e-14)
(2764.5 -1.12063e-09 1.13246e-14)
(2764.5 -1.08095e-09 9.32301e-15)
(2764.5 -1.0084e-09 1.20796e-14)
(2764.5 -9.10724e-10 1.49718e-14)
(2764.5 -7.87243e-10 1.34504e-14)
(2764.5 -6.54846e-10 1.37512e-14)
(2764.5 -5.01857e-10 1.52903e-14)
(2764.5 -3.3691e-10 1.48044e-14)
(2764.5 -2.08384e-10 1.42587e-14)
(2764.5 -1.58022e-10 1.43608e-14)
(2764.5 -1.27307e-10 1.48518e-14)
(2764.5 -7.39333e-11 1.56671e-14)
(2764.5 -2.70763e-11 1.40326e-14)
(2764.5 3.06845e-11 1.53542e-14)
(2764.5 1.13492e-10 1.50713e-14)
(2764.5 2.24986e-10 1.51801e-14)
(2764.5 3.07289e-10 1.63852e-14)
(2764.5 3.82674e-10 1.57716e-14)
(2764.5 4.83466e-10 1.42945e-14)
(2764.5 5.89372e-10 1.67131e-14)
(2764.5 6.92446e-10 1.67687e-14)
(2764.5 8.07385e-10 1.55275e-14)
(2764.5 9.17958e-10 1.42873e-14)
(2764.5 1.02808e-09 1.5312e-14)
(2764.5 1.141e-09 1.78468e-14)
(2764.5 1.23517e-09 1.5183e-14)
(2764.5 1.31442e-09 1.51453e-14)
(2764.5 1.37879e-09 1.52743e-14)
(2764.5 1.44399e-09 1.36341e-14)
(2764.5 1.49563e-09 1.44403e-14)
(2764.5 1.50032e-09 1.47681e-14)
(2764.5 1.46731e-09 1.53694e-14)
(2764.5 1.46967e-09 1.7635e-14)
(2764.5 1.51924e-09 1.563e-14)
(2764.5 1.55709e-09 1.42017e-14)
(2764.5 1.60372e-09 1.5228e-14)
(2764.5 1.68734e-09 1.54376e-14)
(2764.5 1.78611e-09 1.46536e-14)
(2764.5 1.88732e-09 1.54042e-14)
(2764.5 2.03843e-09 1.34503e-14)
(2764.5 2.23463e-09 1.37314e-14)
(2764.5 2.50925e-09 1.55911e-14)
(2764.5 2.88064e-09 1.44939e-14)
(2764.5 3.35831e-09 1.38302e-14)
(2764.5 3.95825e-09 1.30773e-14)
(2764.5 4.63748e-09 1.28442e-14)
(2764.5 5.39538e-09 1.30119e-14)
(2764.5 6.24679e-09 1.28044e-14)
(2764.5 7.17611e-09 1.27048e-14)
(2764.5 8.14536e-09 1.41937e-14)
(2764.5 9.13963e-09 1.43904e-14)
(2764.5 1.01176e-08 1.33745e-14)
(2764.5 1.10312e-08 1.26084e-14)
(2764.5 1.19443e-08 1.16104e-14)
(2764.5 1.28244e-08 1.23938e-14)
(2764.5 1.36403e-08 1.29289e-14)
(2764.5 1.44035e-08 1.28811e-14)
(2764.5 1.51018e-08 1.21621e-14)
(2764.5 1.57107e-08 1.39634e-14)
(2764.5 1.61722e-08 1.35029e-14)
(2764.5 1.64421e-08 1.35823e-14)
(2764.5 1.64742e-08 1.33717e-14)
(2764.5 1.62055e-08 1.25894e-14)
(2764.5 1.55733e-08 1.34376e-14)
(2764.5 1.45465e-08 1.1437e-14)
(2764.5 1.31363e-08 1.21114e-14)
(2764.5 1.14204e-08 1.15911e-14)
(2764.5 9.53694e-09 1.20597e-14)
(2764.5 7.65244e-09 1.153e-14)
(2764.5 5.9462e-09 1.2005e-14)
(2764.5 4.57124e-09 1.27619e-14)
(2764.5 3.75527e-09 1.25626e-14)
(2764.5 3.76341e-09 1.15181e-14)
(2764.5 4.88341e-09 1.26016e-14)
(2764.5 7.46189e-09 1.15989e-14)
(2764.5 1.18596e-08 1.2143e-14)
(2764.5 1.84387e-08 1.00377e-14)
(2764.5 2.75995e-08 1.10657e-14)
(2764.5 3.9607e-08 1.13616e-14)
(2764.5 5.46572e-08 1.07571e-14)
(2764.5 7.27833e-08 1.01785e-14)
(2764.5 9.38878e-08 1.06282e-14)
(2764.5 1.17444e-07 9.12542e-15)
(2764.5 1.42463e-07 1.22605e-14)
(2764.5 1.67794e-07 1.03587e-14)
(2764.5 1.92485e-07 1.10003e-14)
(2764.5 2.15867e-07 1.21562e-14)
(2764.5 2.37682e-07 1.11193e-14)
(2764.5 2.5796e-07 1.05858e-14)
(2764.5 2.77003e-07 1.17342e-14)
(2764.5 2.94989e-07 1.11117e-14)
(2764.5 3.12003e-07 1.06017e-14)
(2764.5 3.27925e-07 1.04764e-14)
(2764.5 3.42322e-07 1.13363e-14)
(2764.5 3.54537e-07 1.07661e-14)
(2764.5 3.63669e-07 1.04558e-14)
(2764.5 3.68512e-07 1.07272e-14)
(2764.5 3.69824e-07 1.05786e-14)
(2764.5 3.61602e-07 1.02988e-14)
(2764.5 3.48149e-07 9.27011e-15)
(2764.5 3.20266e-07 8.90494e-15)
(2764.5 2.85036e-07 1.04772e-14)
(2764.5 2.43798e-07 1.06976e-14)
(2764.5 1.78297e-07 1.08549e-14)
(2764.5 1.48915e-07 1.08088e-14)
(2764.5 -4.53441e-09 1.00979e-14)
(2764.5 -3.66206e-10 3.38496e-14)
(2764.5 -3.65077e-10 3.43964e-14)
(2764.5 -3.65289e-10 3.72262e-14)
(2764.5 -3.67471e-10 3.93969e-14)
(2764.5 -3.72859e-10 3.6406e-14)
(2764.5 -3.76565e-10 3.3943e-14)
(2764.5 -3.8076e-10 3.65347e-14)
(2764.5 -3.78549e-10 3.64893e-14)
(2764.5 -3.76637e-10 3.58888e-14)
(2764.5 -3.75529e-10 3.79234e-14)
(2764.5 -3.75354e-10 3.94515e-14)
(2764.5 -3.77248e-10 3.48531e-14)
(2764.5 -3.78271e-10 3.68825e-14)
(2764.5 -3.75062e-10 3.33756e-14)
(2764.5 -3.72005e-10 3.34705e-14)
(2764.5 -1.76323e-10 2.6217e-14)
(2764.5 -1.85536e-10 2.38319e-14)
(2764.5 -2.08756e-10 2.27763e-14)
(2764.5 -2.3267e-10 2.09124e-14)
(2764.5 -2.63828e-10 2.38139e-14)
(2764.5 -3.01365e-10 2.27091e-14)
(2764.5 -3.33025e-10 2.14196e-14)
(2764.5 -3.61487e-10 2.37713e-14)
(2764.5 -4.0505e-10 2.29298e-14)
(2764.5 -4.43375e-10 2.43273e-14)
(2764.5 -4.91495e-10 2.35841e-14)
(2764.5 -5.35134e-10 2.409e-14)
(2764.5 -5.56716e-10 2.54318e-14)
(2764.5 -5.72863e-10 2.60843e-14)
(2764.5 -5.88073e-10 2.10597e-14)
(2764.5 -5.91773e-10 2.33978e-14)
(2764.5 -5.95126e-10 2.50388e-14)
(2764.5 -6.03683e-10 2.27918e-14)
(2764.5 -6.02021e-10 2.4912e-14)
(2764.5 -5.85723e-10 2.32408e-14)