/*--------------------------------*- C++ -*----------------------------------*\
| =========                 |                                                 |
| \\      /  F ield         | OpenFOAM: The Open Source CFD Toolbox           |
|  \\    /   O peration     | Version:  v1706                                 |
|   \\  /    A nd           | Web:      www.OpenFOAM.com                      |
|    \\/     M anipulation  |                                                 |
\*---------------------------------------------------------------------------*/
FoamFile
{
    version     2.0;
    format      ascii;
    class       volScalarField;
    location    "7e-06";
    object      wallHeatFlux;
}
// * * * * * * * * * * * * * * * * * * * * * * * * * * * * * * * * * * * * * //

dimensions      [1 0 -3 0 0 0 0];


internalField   uniform 0;

boundaryField
{
    cone
    {
        type            calculated;
        value           nonuniform List<scalar> 
119
(
-2490.62
-2569.41
-2624.85
-2663.54
-2690.31
-2708.68
-2721.19
-2729.61
-2735.23
-2738.94
-2741.34
-2742.87
-2743.81
-2744.35
-2744.64
-2744.76
-2744.76
-2744.7
-2744.59
-2744.44
-2744.28
-2744.11
-2743.93
-2743.75
-2743.57
-2743.38
-2743.19
-2743
-2742.82
-2742.63
-2742.44
-2742.26
-2742.07
-2741.88
-2741.7
-2741.51
-2741.33
-2741.14
-2740.96
-2740.78
-2740.59
-2740.41
-2740.23
-2740.05
-2739.86
-2739.68
-2739.5
-2739.32
-2739.14
-2738.96
-2738.78
-2738.61
-2738.43
-2738.25
-2738.07
-2737.9
-2737.72
-2737.54
-2737.37
-2737.19
-2737.02
-2736.84
-2736.67
-2736.5
-2736.32
-2736.15
-2735.98
-2735.8
-2735.63
-2735.46
-2735.29
-2735.12
-2734.95
-2734.78
-2734.61
-2734.44
-2734.27
-2734.11
-2733.94
-2733.77
-2733.6
-2733.44
-2733.27
-2733.1
-2732.94
-2732.77
-2732.61
-2732.45
-2732.28
-2732.12
-2731.95
-2731.79
-2731.63
-2731.47
-2731.31
-2731.14
-2730.98
-2730.82
-2730.66
-2730.51
-2730.35
-2730.21
-2730.09
-2730.01
-2729.99
-2730.08
-2730.31
-2730.72
-2731.32
-2732.09
-2733.09
-2734.55
-2737.09
-2742.1
-2752.23
-2772.17
-2809.95
-2880.66
-2997.84
)
;
    }
    inlet
    {
        type            calculated;
        value           uniform 0;
    }
    rWedge
    {
        type            wedge;
    }
    lWedge
    {
        type            wedge;
    }
    outlet
    {
        type            calculated;
        value           uniform 0;
    }
    procBoundary0to1
    {
        type            processor;
        value           uniform 0;
    }
    procBoundary0to2
    {
        type            processor;
        value           uniform 0;
    }
}


// ************************************************************************* //
