/*--------------------------------*- C++ -*----------------------------------*\
| =========                 |                                                 |
| \\      /  F ield         | OpenFOAM: The Open Source CFD Toolbox           |
|  \\    /   O peration     | Version:  v1706                                 |
|   \\  /    A nd           | Web:      www.OpenFOAM.com                      |
|    \\/     M anipulation  |                                                 |
\*---------------------------------------------------------------------------*/
FoamFile
{
    version     2.0;
    format      ascii;
    class       volScalarField;
    location    "9e-06";
    object      Tt;
}
// * * * * * * * * * * * * * * * * * * * * * * * * * * * * * * * * * * * * * //

dimensions      [0 0 0 1 0 0 0];


internalField   nonuniform List<scalar> 
29871
(
144.4
144.4
144.4
144.4
144.4
144.4
144.4
144.4
144.4
144.4
144.4
144.4
144.4
144.4
144.4
144.4
144.4
144.4
144.4
144.4
144.4
144.4
144.4
144.4
144.4
144.4
144.4
144.4
144.4
144.4
144.4
144.4
144.4
144.4
144.4
144.4
144.4
144.4
144.4
144.4
144.4
144.4
144.4
144.4
144.4
144.4
144.4
144.4
144.4
144.4
144.4
144.4
144.4
144.4
144.4
144.4
144.4
144.4
144.4
144.4
144.4
144.4
144.4
144.4
144.4
144.4
144.4
144.4
144.4
144.4
144.4
144.4
144.4
144.4
144.4
144.4
144.4
144.4
144.4
144.4
144.4
144.4
144.4
144.4
144.4
144.4
144.4
144.4
144.4
144.4
144.4
144.4
144.4
144.4
144.4
144.4
144.4
144.4
144.4
144.4
144.4
144.4
144.4
144.4
144.4
144.4
144.4
144.4
144.4
144.4
144.4
144.4
144.4
144.4
144.4
144.4
144.4
144.4
144.4
144.4
144.4
144.4
144.4
144.4
144.4
144.4
144.4
144.4
144.4
144.4
144.4
144.4
144.4
144.4
144.4
144.4
144.4
144.4
144.4
144.4
144.4
144.4
144.4
144.4
144.4
144.4
144.4
144.4
144.4
144.4
144.4
144.4
144.4
144.4
144.4
144.4
144.4
144.4
144.4
144.4
144.4
144.4
144.4
144.4
144.4
144.4
144.4
144.4
144.4
144.4
144.4
144.4
144.4
144.4
144.4
144.4
144.4
144.4
144.4
144.4
144.4
144.4
144.4
144.4
144.4
144.4
144.4
144.4
144.4
144.4
144.4
144.4
144.4
144.4
144.4
144.4
144.4
144.4
144.4
144.4
144.4
144.4
144.4
144.4
144.4
144.4
144.4
144.4
144.4
144.4
144.4
144.4
144.4
144.4
144.4
144.4
144.4
144.4
144.4
144.4
144.4
144.4
144.4
144.4
144.4
144.4
144.4
144.4
144.4
144.4
144.4
144.4
144.4
144.4
144.4
144.4
144.4
144.4
144.4
144.4
144.4
144.4
144.4
144.4
144.4
144.4
144.4
144.4
144.4
144.4
144.4
144.4
144.4
144.4
144.4
144.4
144.4
144.4
144.4
144.4
144.4
144.4
144.4
144.4
144.4
144.4
144.4
144.4
144.4
144.4
144.4
144.4
144.4
144.4
144.4
144.4
144.4
144.4
144.4
144.4
144.4
144.4
144.4
144.4
144.4
144.4
144.4
144.4
144.4
144.4
144.4
144.4
144.4
144.4
144.4
144.4
144.4
144.4
144.4
144.4
144.4
144.4
144.4
144.4
144.4
144.4
144.4
144.4
144.4
144.4
144.4
144.4
144.4
144.4
144.4
144.4
144.4
144.4
144.4
144.4
144.4
144.4
144.4
144.4
144.4
144.4
144.4
144.4
144.4
144.4
144.4
144.4
144.4
144.4
144.4
144.4
144.4
144.4
144.4
144.4
144.4
144.4
144.4
144.4
144.4
144.4
144.4
144.4
144.4
144.4
144.4
144.4
144.4
144.4
144.4
144.4
144.4
144.4
144.4
144.4
144.4
144.4
144.4
144.4
144.4
144.4
144.4
144.4
144.4
144.4
144.4
144.4
144.4
144.4
144.4
144.4
144.4
144.4
144.4
144.4
144.4
144.4
144.4
144.4
144.4
144.4
144.4
144.4
144.4
144.4
144.4
144.4
144.4
144.4
144.4
144.4
144.4
144.4
144.4
144.4
144.4
144.4
144.4
144.4
144.4
144.4
144.4
144.4
144.4
144.4
144.4
144.4
144.4
144.4
144.4
144.4
144.4
144.4
144.4
144.4
144.4
144.4
144.4
144.4
144.4
144.4
144.4
144.4
144.4
144.4
144.4
144.4
144.4
144.4
144.4
144.4
144.4
144.4
144.4
144.4
144.4
144.4
144.4
144.4
144.4
144.4
144.4
144.4
144.4
144.4
144.4
144.4
144.4
144.4
144.4
144.4
144.4
144.4
144.4
144.4
144.4
144.4
144.4
144.4
144.4
144.4
144.4
144.4
144.4
144.4
144.4
144.4
144.4
144.4
144.4
144.4
144.4
144.4
144.4
144.4
144.4
144.4
144.4
144.4
144.4
144.4
144.4
144.4
144.4
144.4
144.4
144.4
144.4
144.4
144.4
144.4
144.4
144.4
144.4
144.4
144.4
144.4
144.4
144.4
144.4
144.4
144.4
144.4
144.4
144.4
144.4
144.4
144.4
144.4
144.4
144.4
144.4
144.4
144.4
144.4
144.4
144.4
144.4
144.4
144.4
144.4
144.4
144.4
144.4
144.4
144.4
144.4
144.4
144.4
144.4
144.4
144.4
144.4
144.4
144.4
144.4
144.4
144.4
144.4
144.4
144.4
144.4
144.4
144.4
144.4
144.4
144.4
144.4
144.4
144.4
144.4
144.4
144.4
144.4
144.4
144.4
144.4
144.4
144.4
144.4
144.4
144.4
144.4
144.4
144.4
144.4
144.4
144.4
144.4
144.4
144.4
144.4
144.4
144.4
144.4
144.4
144.4
144.4
144.4
144.4
144.4
144.4
144.4
144.4
144.4
144.4
144.4
144.4
144.4
144.4
144.4
144.4
144.4
144.4
144.4
144.4
144.4
144.4
144.4
144.4
144.4
144.4
144.4
144.4
144.4
144.4
144.4
144.4
144.4
144.4
144.4
144.4
144.4
144.4
144.4
144.4
144.4
144.4
144.4
144.4
144.4
144.4
144.4
144.4
144.4
144.4
144.4
144.4
144.4
144.4
144.4
144.4
144.4
144.4
144.4
144.4
144.4
144.4
144.4
144.4
144.4
144.4
144.4
144.4
144.4
144.4
144.4
144.4
144.4
144.4
144.4
144.4
144.4
144.4
144.4
144.4
144.4
144.4
144.4
144.4
144.4
144.4
144.4
144.4
144.4
144.4
144.4
144.4
144.4
144.4
144.4
144.4
144.4
144.4
144.4
144.4
144.4
144.4
144.4
144.4
144.4
144.4
144.4
144.4
144.4
144.4
144.4
144.4
144.4
144.4
144.4
144.4
144.4
144.4
144.4
144.4
144.4
144.4
144.4
144.4
144.4
144.4
144.4
144.4
144.4
144.4
144.4
144.4
144.4
144.4
144.4
144.4
144.4
144.4
144.4
144.4
144.4
144.4
144.4
144.4
144.4
144.4
144.4
144.4
144.4
144.4
144.4
144.4
144.4
144.4
144.4
144.4
144.4
144.4
144.4
144.4
144.4
144.4
144.4
144.4
144.4
144.4
144.4
144.4
144.4
144.4
144.4
144.4
144.4
144.4
144.4
144.4
144.4
144.4
144.4
144.4
144.4
144.4
144.4
144.4
144.4
144.4
144.4
144.4
144.4
144.4
144.4
144.4
144.4
144.4
144.4
144.4
144.4
144.4
144.4
144.4
144.4
144.4
144.4
144.4
144.4
144.4
144.4
144.4
144.4
144.4
144.4
144.4
144.4
144.4
144.4
144.4
144.4
144.4
144.4
144.4
144.4
144.4
144.4
144.4
144.4
144.4
144.4
144.4
144.4
144.4
144.4
144.4
144.4
144.4
144.4
144.4
144.4
144.4
144.4
144.4
144.4
144.4
144.4
144.4
144.4
144.4
144.4
144.4
144.4
144.4
144.4
144.4
144.4
144.4
144.4
144.4
144.4
144.4
144.4
144.4
144.4
144.4
144.4
144.4
144.4
144.4
144.4
144.4
144.4
144.4
144.4
144.4
144.4
144.4
144.4
144.4
144.4
144.4
144.4
144.4
144.4
144.4
144.4
144.4
144.4
144.4
144.4
144.4
144.4
144.4
144.4
144.4
144.4
144.4
144.4
144.4
144.4
144.4
144.4
144.4
144.4
144.4
144.4
144.4
144.4
144.4
144.4
144.4
144.4
144.4
144.4
144.4
144.4
144.4
144.4
144.4
144.4
144.4
144.4
144.4
144.4
144.4
144.4
144.4
144.4
144.4
144.4
144.4
144.4
144.4
144.4
144.4
144.4
144.4
144.4
144.4
144.4
144.4
144.4
144.4
144.4
144.4
144.4
144.4
144.4
144.4
144.4
144.4
144.4
144.4
144.4
144.4
144.4
144.4
144.4
144.4
144.4
144.4
144.4
144.4
144.4
144.4
144.4
144.4
144.4
144.4
144.4
144.4
144.4
144.4
144.4
144.4
144.4
144.4
144.4
144.4
144.4
144.4
144.4
144.4
144.4
144.4
144.4
144.4
144.4
144.4
144.4
144.4
144.4
144.4
144.4
144.4
144.4
144.4
144.4
144.4
144.4
144.4
144.4
144.4
144.4
144.4
144.4
144.4
144.4
144.4
144.4
144.4
144.4
144.4
144.4
144.4
144.4
144.4
144.4
144.4
144.4
144.4
144.4
144.4
144.4
144.4
144.4
144.4
144.4
144.4
144.4
144.4
144.4
144.4
144.4
144.4
144.4
144.4
144.4
144.4
144.4
144.4
144.4
144.4
144.4
144.4
144.4
144.4
144.4
144.4
144.4
144.4
144.4
144.4
144.4
144.4
144.4
144.4
144.4
144.4
144.4
144.4
144.4
144.4
144.4
144.4
144.4
144.4
144.4
144.4
144.4
144.4
144.4
144.4
144.4
144.4
144.4
144.4
144.4
144.4
144.4
144.4
144.4
144.4
144.4
144.4
144.4
144.4
144.4
144.4
144.4
144.4
144.4
144.4
144.4
144.4
144.4
144.4
144.4
144.4
144.4
144.4
144.4
144.4
144.4
144.4
144.4
144.4
144.4
144.4
144.4
144.4
144.4
144.4
144.4
144.4
144.4
144.4
144.4
144.4
144.4
144.4
144.4
144.4
144.4
144.4
144.4
144.4
144.4
144.4
144.4
144.4
144.4
144.4
144.4
144.4
144.4
144.4
144.4
144.4
144.4
144.4
144.4
144.4
144.4
144.4
144.4
144.4
144.4
144.4
144.4
144.4
144.4
144.4
144.4
144.4
144.4
144.4
144.4
144.4
144.4
144.4
144.4
144.4
144.4
144.4
144.4
144.4
144.4
144.4
144.4
144.4
144.4
144.4
144.4
144.4
144.4
144.4
144.4
144.4
144.4
144.4
144.4
144.4
144.4
144.4
144.4
144.4
144.4
144.4
144.4
144.4
144.4
144.4
144.4
144.4
144.4
144.4
144.4
144.4
144.4
144.4
144.4
144.4
144.4
144.4
144.4
144.4
144.4
144.4
144.4
144.4
144.4
144.4
144.4
144.4
144.4
144.4
144.4
144.4
144.4
144.4
144.4
144.4
144.4
144.4
144.4
144.4
144.4
144.4
144.4
144.4
144.4
144.4
144.4
144.4
144.4
144.4
144.4
144.4
144.4
144.4
144.4
144.4
144.4
144.4
144.4
144.4
144.4
144.4
144.4
144.4
144.4
144.4
144.4
144.4
144.4
144.4
144.4
144.4
144.4
144.4
144.4
144.4
144.4
144.4
144.4
144.4
144.4
144.4
144.4
144.4
144.4
144.4
144.4
144.4
144.4
144.4
144.4
144.4
144.4
144.4
144.4
144.4
144.4
144.4
144.4
144.4
144.4
144.4
144.4
144.4
144.4
144.4
144.4
144.4
144.4
144.4
144.4
144.4
144.4
144.4
144.4
144.4
144.4
144.4
144.4
144.4
144.4
144.4
144.4
144.4
144.4
144.4
144.4
144.4
144.4
144.4
144.4
144.4
144.4
144.4
144.4
144.4
144.4
144.4
144.4
144.4
144.4
144.4
144.4
144.4
144.4
144.4
144.4
144.4
144.4
144.4
144.4
144.4
144.4
144.4
144.4
144.4
144.4
144.4
144.4
144.4
144.4
144.4
144.4
144.4
144.4
144.4
144.4
144.4
144.4
144.4
144.4
144.4
144.4
144.4
144.4
144.4
144.4
144.4
144.4
144.4
144.4
144.4
144.4
144.4
144.4
144.4
144.4
144.4
144.4
144.4
144.4
144.4
144.4
144.4
144.4
144.4
144.4
144.4
144.4
144.4
144.4
144.4
144.4
144.4
144.4
144.4
144.4
144.4
144.4
144.4
144.4
144.4
144.4
144.4
144.4
144.4
144.4
144.4
144.4
144.4
144.4
144.4
144.4
144.4
144.4
144.4
144.4
144.4
144.4
144.4
144.4
144.4
144.4
144.4
144.4
144.4
144.4
144.4
144.4
144.4
144.4
144.4
144.4
144.4
144.4
144.4
144.4
144.4
144.4
144.4
144.4
144.4
144.4
144.4
144.4
144.4
144.4
144.4
144.4
144.4
144.4
144.4
144.4
144.4
144.4
144.4
144.4
144.4
144.4
144.4
144.4
144.4
144.4
144.4
144.4
144.4
144.4
144.4
144.4
144.4
144.4
144.4
144.4
144.4
144.4
144.4
144.4
144.4
144.4
144.4
144.4
144.4
144.4
144.4
144.4
144.4
144.4
144.4
144.4
144.4
144.4
144.4
144.4
144.4
144.4
144.4
144.4
144.4
144.4
144.4
144.4
144.4
144.4
144.4
144.4
144.4
144.4
144.4
144.4
144.4
144.4
144.4
144.4
144.4
144.4
144.4
144.4
144.4
144.4
144.4
144.4
144.4
144.4
144.4
144.4
144.4
144.4
144.4
144.4
144.4
144.4
144.4
144.4
144.4
144.4
144.4
144.4
144.4
144.4
144.4
144.4
144.4
144.4
144.4
144.4
144.4
144.4
144.4
144.402
144.402
144.402
144.402
144.401
144.401
144.401
144.401
144.401
144.401
144.401
144.401
144.401
144.401
144.401
144.401
144.401
144.4
144.4
144.4
144.4
144.4
144.4
144.4
144.4
144.4
144.4
144.4
144.4
144.4
144.4
144.4
144.4
144.4
144.4
144.4
144.4
144.4
144.4
144.4
144.4
144.4
144.4
144.4
144.4
144.4
144.4
144.4
144.4
144.4
144.4
144.4
144.4
144.4
144.4
144.4
144.4
144.4
144.4
144.4
144.4
144.4
144.4
144.4
144.4
144.4
144.4
144.4
144.4
144.4
144.4
144.4
144.4
144.4
144.4
144.4
144.4
144.4
144.4
144.4
144.4
144.4
144.4
144.4
144.4
144.4
144.4
144.4
144.4
144.4
144.4
144.4
144.4
144.4
144.4
144.4
144.4
144.4
144.4
144.4
144.4
144.4
144.4
144.4
144.4
144.4
144.4
144.4
144.4
144.4
144.4
144.4
144.4
144.4
144.4
144.412
144.412
144.412
144.411
144.411
144.41
144.41
144.409
144.409
144.408
144.408
144.407
144.406
144.406
144.405
144.404
144.404
144.403
144.403
144.403
144.402
144.402
144.401
144.401
144.401
144.401
144.401
144.401
144.4
144.4
144.4
144.4
144.4
144.4
144.4
144.4
144.4
144.4
144.4
144.4
144.4
144.4
144.4
144.4
144.4
144.4
144.4
144.4
144.4
144.4
144.4
144.4
144.4
144.4
144.4
144.4
144.4
144.4
144.4
144.4
144.4
144.4
144.4
144.4
144.4
144.4
144.4
144.4
144.4
144.4
144.4
144.4
144.4
144.4
144.4
144.4
144.4
144.4
144.4
144.4
144.4
144.4
144.4
144.4
144.4
144.4
144.4
144.4
144.4
144.4
144.4
144.4
144.4
144.4
144.4
144.4
144.4
144.4
144.4
144.4
144.4
144.4
144.4
144.4
144.4
144.4
144.4
144.4
144.4
144.4
144.4
144.4
144.4
144.4
144.4
144.4
144.48
144.483
144.485
144.487
144.488
144.489
144.489
144.488
144.487
144.485
144.482
144.48
144.476
144.473
144.469
144.464
144.46
144.455
144.451
144.446
144.441
144.437
144.433
144.429
144.425
144.422
144.419
144.416
144.413
144.411
144.409
144.407
144.406
144.405
144.404
144.403
144.402
144.402
144.401
144.401
144.401
144.401
144.4
144.4
144.4
144.4
144.4
144.4
144.4
144.4
144.4
144.4
144.4
144.4
144.4
144.4
144.4
144.4
144.4
144.4
144.4
144.4
144.4
144.4
144.4
144.4
144.4
144.4
144.4
144.4
144.4
144.4
144.4
144.4
144.4
144.4
144.4
144.4
144.4
144.4
144.4
144.4
144.4
144.4
144.4
144.4
144.4
144.4
144.4
144.4
144.4
144.4
144.4
144.4
144.4
144.4
144.4
144.4
144.4
144.4
144.4
144.4
144.4
144.4
144.4
144.4
144.4
144.4
144.4
144.4
144.4
144.4
144.4
144.4
144.4
144.4
144.4
144.4
144.4
144.4
144.4
144.4
144.4
144.964
144.984
145.001
145.014
145.023
145.027
145.027
145.023
145.015
145.003
144.986
144.967
144.943
144.917
144.889
144.859
144.827
144.795
144.762
144.729
144.697
144.666
144.636
144.608
144.581
144.557
144.534
144.514
144.495
144.479
144.466
144.454
144.444
144.435
144.428
144.422
144.417
144.413
144.41
144.408
144.406
144.404
144.403
144.402
144.402
144.401
144.401
144.401
144.4
144.4
144.4
144.4
144.4
144.4
144.4
144.4
144.4
144.4
144.4
144.4
144.4
144.4
144.4
144.4
144.4
144.4
144.4
144.4
144.4
144.4
144.4
144.4
144.4
144.4
144.4
144.4
144.4
144.4
144.4
144.4
144.4
144.4
144.4
144.4
144.4
144.4
144.4
144.4
144.4
144.4
144.4
144.4
144.4
144.4
144.4
144.4
144.4
144.4
144.4
144.4
144.4
144.4
144.4
144.4
144.4
144.4
144.4
144.4
144.4
144.4
144.4
144.4
144.4
144.4
144.4
144.4
144.4
144.4
144.4
144.4
144.4
144.4
144.4
148.246
148.383
148.499
148.591
148.658
148.693
148.695
148.672
148.62
148.539
148.432
148.299
148.143
147.968
147.775
147.569
147.354
147.132
146.907
146.684
146.465
146.251
146.047
145.852
145.668
145.497
145.339
145.197
145.069
144.957
144.86
144.777
144.706
144.647
144.597
144.555
144.521
144.493
144.471
144.453
144.44
144.43
144.422
144.416
144.411
144.408
144.406
144.404
144.403
144.402
144.401
144.401
144.401
144.4
144.4
144.4
144.4
144.4
144.4
144.4
144.4
144.4
144.4
144.4
144.4
144.4
144.4
144.4
144.4
144.4
144.4
144.4
144.4
144.4
144.4
144.4
144.4
144.4
144.4
144.4
144.4
144.4
144.4
144.4
144.4
144.4
144.4
144.4
144.4
144.4
144.4
144.4
144.4
144.4
144.4
144.4
144.4
144.4
144.4
144.4
144.4
144.4
144.4
144.4
144.4
144.4
144.4
144.4
144.4
144.4
144.4
144.4
144.4
144.4
144.4
144.4
144.4
144.4
144.4
144.4
144.4
144.4
144.4
168.689
169.529
170.241
170.811
171.229
171.464
171.488
171.37
171.085
170.627
170.005
169.227
168.307
167.259
166.1
164.848
163.525
162.152
160.754
159.352
157.966
156.616
155.313
154.067
152.883
151.769
150.735
149.789
148.937
148.182
147.524
146.96
146.481
146.078
145.74
145.458
145.225
145.035
144.884
144.766
144.674
144.603
144.549
144.508
144.477
144.455
144.438
144.426
144.418
144.412
144.408
144.405
144.404
144.402
144.401
144.401
144.401
144.4
144.4
144.4
144.4
144.4
144.4
144.4
144.4
144.4
144.4
144.4
144.4
144.4
144.4
144.4
144.4
144.4
144.4
144.4
144.4
144.4
144.4
144.4
144.4
144.4
144.4
144.4
144.4
144.4
144.4
144.4
144.4
144.4
144.4
144.4
144.4
144.4
144.4
144.4
144.4
144.4
144.4
144.4
144.4
144.4
144.4
144.4
144.4
144.4
144.4
144.4
144.4
144.4
144.4
144.4
144.4
144.4
144.4
144.4
144.4
144.4
144.4
144.4
144.4
144.4
144.4
144.4
144.4
265.124
268.583
271.504
273.844
275.57
276.602
276.745
276.369
275.329
273.6
271.201
268.156
264.491
260.242
255.452
250.178
244.483
238.445
232.151
225.696
219.177
212.689
206.31
200.092
194.056
188.225
182.651
177.404
172.546
168.131
164.192
160.744
157.778
155.259
153.131
151.338
149.837
148.601
147.607
146.824
146.217
145.75
145.392
145.119
144.915
144.764
144.655
144.577
144.521
144.482
144.455
144.436
144.423
144.415
144.41
144.406
144.404
144.402
144.401
144.401
144.4
144.4
144.4
144.4
144.4
144.4
144.4
144.4
144.4
144.4
144.4
144.4
144.4
144.4
144.4
144.4
144.4
144.4
144.4
144.4
144.4
144.4
144.4
144.4
144.4
144.4
144.4
144.4
144.4
144.4
144.4
144.4
144.4
144.4
144.4
144.4
144.4
144.4
144.4
144.4
144.4
144.4
144.4
144.4
144.4
144.4
144.4
144.4
144.4
144.4
144.4
144.4
144.4
144.4
144.4
144.4
144.4
144.4
144.4
144.4
144.4
144.4
144.4
144.4
144.4
529.394
536.747
542.883
547.761
551.344
553.544
553.937
553.245
551.233
547.831
543.044
536.88
529.33
520.397
510.104
498.487
485.592
471.494
456.295
440.131
423.179
405.644
387.764
369.768
351.709
333.479
315.13
296.868
278.964
261.71
245.406
230.335
216.722
204.671
194.115
184.875
176.824
169.928
164.178
159.523
155.845
152.975
150.744
149.023
147.718
146.751
146.05
145.545
145.185
144.932
144.755
144.635
144.553
144.498
144.463
144.439
144.424
144.415
144.409
144.405
144.403
144.402
144.401
144.401
144.4
144.4
144.4
144.4
144.4
144.4
144.4
144.4
144.4
144.4
144.4
144.4
144.4
144.4
144.4
144.4
144.4
144.4
144.4
144.4
144.4
144.4
144.4
144.4
144.4
144.4
144.4
144.4
144.4
144.4
144.4
144.4
144.4
144.4
144.4
144.4
144.4
144.4
144.4
144.4
144.4
144.4
144.4
144.4
144.4
144.4
144.4
144.4
144.4
144.4
144.4
144.4
144.4
144.4
144.4
144.4
144.4
144.4
144.4
144.4
144.4
907.611
917.964
926.79
934.08
939.828
944.003
946.671
947.343
946.644
944.425
940.598
935.236
928.302
919.681
909.273
897.034
882.907
866.827
848.746
828.641
806.547
782.594
757.004
730.155
702.691
675.17
646.458
616.03
583.922
550.375
515.764
480.58
445.424
410.997
378.095
347.294
318.4
291.185
265.845
242.902
222.88
206.02
192.129
180.773
171.579
164.301
158.721
154.564
151.52
149.315
147.74
146.638
145.881
145.368
145.024
144.798
144.65
144.555
144.495
144.457
144.434
144.42
144.412
144.407
144.404
144.402
144.401
144.401
144.4
144.4
144.4
144.4
144.4
144.4
144.4
144.4
144.4
144.4
144.4
144.4
144.4
144.4
144.4
144.4
144.4
144.4
144.4
144.4
144.4
144.4
144.4
144.4
144.4
144.4
144.4
144.4
144.4
144.4
144.4
144.4
144.4
144.4
144.4
144.4
144.4
144.4
144.4
144.4
144.4
144.4
144.4
144.4
144.4
144.4
144.4
144.4
144.4
144.4
144.4
144.4
144.4
144.4
144.4
144.4
144.4
144.4
1212.63
1216.12
1218.79
1220.66
1221.8
1221.91
1221.49
1220.38
1218.58
1216.22
1213.06
1209.01
1204.35
1198.93
1192.72
1185.69
1177.73
1168.76
1158.74
1147.56
1135.05
1121.08
1105.49
1088.02
1068.32
1046.08
1021.12
993.203
961.984
927.159
888.591
846.293
800.571
752.378
703.578
656.818
610.744
563.689
515.552
467.314
420.455
376.619
336.862
301.053
268.992
240.973
217.48
198.59
183.809
172.453
163.928
157.721
153.33
150.289
148.222
146.843
145.94
145.357
144.987
144.755
144.612
144.524
144.472
144.441
144.423
144.413
144.407
144.404
144.402
144.401
144.4
144.4
144.4
144.4
144.4
144.4
144.4
144.4
144.4
144.4
144.4
144.4
144.4
144.4
144.4
144.4
144.4
144.4
144.4
144.4
144.4
144.4
144.4
144.4
144.4
144.4
144.4
144.4
144.4
144.4
144.4
144.4
144.4
144.4
144.4
144.4
144.4
144.4
144.4
144.4
144.4
144.4
144.4
144.4
144.4
144.4
144.4
144.4
144.4
144.4
144.4
144.4
144.4
144.4
144.4
144.4
144.4
144.4
1334.95
1334.77
1334.27
1333.41
1332.18
1330.54
1328.54
1326.22
1323.62
1320.78
1317.58
1314.19
1309.98
1305.17
1300.24
1295.02
1289.32
1283.1
1276.52
1269.59
1262.07
1253.81
1245
1235.72
1225.75
1214.95
1203.2
1190.49
1176.48
1160.69
1142.83
1122.67
1099.76
1073.69
1043.69
1008.78
968.749
923.314
871.951
814.613
752.628
689.587
629.778
571.466
513.292
455.809
401
351.186
307.241
269.196
237.206
211.454
191.589
176.769
166.053
158.554
153.464
150.095
147.916
146.535
145.677
145.153
144.837
144.65
144.54
144.478
144.442
144.423
144.412
144.406
144.403
144.402
144.401
144.4
144.4
144.4
144.4
144.4
144.4
144.4
144.4
144.4
144.4
144.4
144.4
144.4
144.4
144.4
144.4
144.4
144.4
144.4
144.4
144.4
144.4
144.4
144.4
144.4
144.4
144.4
144.4
144.4
144.4
144.4
144.4
144.4
144.4
144.4
144.4
144.4
144.4
144.4
144.4
144.4
144.4
144.4
144.4
144.4
144.4
144.4
144.4
144.4
144.4
144.4
144.4
144.4
144.4
144.4
1397.39
1395.92
1394.23
1392.32
1390.17
1387.76
1385.1
1382.23
1379.15
1375.87
1372.35
1368.58
1364.4
1359.86
1355.07
1350.08
1344.88
1339.24
1333.4
1327.4
1321.47
1314.4
1307.12
1299.94
1292.83
1284.52
1275.99
1267.45
1258.23
1247.92
1236.59
1224.58
1211.76
1197.95
1182.8
1166.47
1148.92
1129.53
1107.27
1080.98
1049.56
1012.02
967.131
914.579
854.159
786.123
713.079
641.472
572.726
505.681
440.858
380.571
327.024
281.113
243.242
213.475
191.153
175.085
163.967
156.561
151.788
148.797
146.968
145.874
145.232
144.862
144.652
144.535
144.471
144.437
144.419
144.409
144.404
144.402
144.401
144.4
144.4
144.4
144.4
144.4
144.4
144.4
144.4
144.4
144.4
144.4
144.4
144.4
144.4
144.4
144.4
144.4
144.4
144.4
144.4
144.4
144.4
144.4
144.4
144.4
144.4
144.4
144.4
144.4
144.4
144.4
144.4
144.4
144.4
144.4
144.4
144.4
144.4
144.4
144.4
144.4
144.4
144.4
144.4
144.4
144.4
144.4
144.4
144.4
144.4
144.4
144.4
144.4
1447.03
1445.18
1443.1
1440.79
1438.25
1435.48
1432.48
1429.29
1425.89
1422.29
1418.48
1414.39
1410.02
1405.34
1400.4
1395.28
1389.99
1384.3
1378.39
1372.35
1366.46
1359.43
1352.19
1345.04
1337.93
1329.59
1320.88
1311.99
1302.73
1293.15
1283.18
1273.08
1263.58
1253.23
1241.87
1231.16
1220.04
1207.85
1194.53
1179.75
1163.15
1144.63
1124.06
1101.52
1075.99
1045.21
1006.85
958.863
900.441
831.874
754.591
673.815
595.579
519.923
447.451
380.669
322.003
272.702
233.357
203.696
182.481
168.024
158.609
152.716
149.151
147.057
145.858
145.185
144.814
144.615
144.509
144.454
144.426
144.412
144.406
144.403
144.401
144.4
144.4
144.4
144.4
144.4
144.4
144.4
144.4
144.4
144.4
144.4
144.4
144.4
144.4
144.4
144.4
144.4
144.4
144.4
144.4
144.4
144.4
144.4
144.4
144.4
144.4
144.4
144.4
144.4
144.4
144.4
144.4
144.4
144.4
144.4
144.4
144.4
144.4
144.4
144.4
144.4
144.4
144.4
144.4
144.4
144.4
144.4
144.4
144.4
144.4
144.4
144.4
1486.29
1483.96
1481.4
1478.6
1475.57
1472.31
1468.84
1465.16
1461.27
1457.12
1452.73
1448.06
1443.12
1437.95
1432.55
1426.97
1421.13
1414.99
1408.65
1402.25
1395.4
1388.16
1380.7
1373.2
1365.2
1356.79
1348.19
1339.72
1331.05
1322.03
1312.74
1304.08
1294.5
1283.92
1273.82
1262.99
1250.88
1238.36
1225.83
1214.01
1201.36
1187.37
1173.71
1159.17
1142.53
1123.14
1100.86
1075.63
1046.5
1010.74
964.964
906.438
834.621
751.606
664.393
579.577
497.898
420.959
351.951
293.257
246.206
210.854
185.891
169.266
158.775
152.455
148.793
146.74
145.619
145.021
144.71
144.551
144.471
144.433
144.415
144.406
144.403
144.401
144.4
144.4
144.4
144.4
144.4
144.4
144.4
144.4
144.4
144.4
144.4
144.4
144.4
144.4
144.4
144.4
144.4
144.4
144.4
144.4
144.4
144.4
144.4
144.4
144.4
144.4
144.4
144.4
144.4
144.4
144.4
144.4
144.4
144.4
144.4
144.4
144.4
144.4
144.4
144.4
144.4
144.4
144.4
144.4
144.4
144.4
144.4
144.4
144.4
144.4
1525.2
1522.83
1520.19
1517.3
1514.14
1510.73
1507.07
1503.16
1499
1494.58
1489.87
1484.88
1479.6
1474.06
1468.25
1462.2
1455.89
1449.31
1442.47
1435.44
1428.11
1420.47
1412.58
1404.54
1396.34
1387.92
1379.31
1370.8
1362.34
1353.66
1344.74
1335.96
1326.72
1316.9
1306.83
1296.37
1285.39
1274.19
1263.18
1252.74
1241.54
1228.77
1215.46
1201.54
1187.88
1174.49
1159.51
1143.99
1127.59
1108.82
1086.94
1061.54
1031.14
993.058
943.525
879.263
799.542
708.38
616.016
526.556
441.914
365.455
300.282
248.436
210.179
183.91
167.052
156.872
151.033
147.824
146.121
145.243
144.802
144.586
144.483
144.436
144.415
144.406
144.402
144.401
144.4
144.4
144.4
144.4
144.4
144.4
144.4
144.4
144.4
144.4
144.4
144.401
144.401
144.401
144.401
144.401
144.401
144.401
144.401
144.401
144.401
144.401
144.401
144.401
144.401
144.402
144.402
144.402
144.402
144.402
144.402
144.402
144.402
144.402
144.402
144.402
144.402
144.402
144.402
144.402
144.402
144.402
144.402
144.402
144.402
144.401
144.401
144.401
1562.31
1559.45
1556.32
1552.92
1549.26
1545.33
1541.13
1536.67
1531.93
1526.91
1521.6
1515.99
1510.11
1503.94
1497.51
1490.83
1483.9
1476.72
1469.3
1461.67
1453.79
1445.7
1437.46
1429.1
1420.58
1411.9
1403.13
1394.25
1385.14
1375.8
1366.27
1356.42
1346.13
1335.5
1324.74
1314
1303.35
1292.99
1282.97
1272.41
1260.84
1248.5
1236.03
1224.05
1212.42
1199.17
1184.41
1169.11
1154.4
1139.99
1123.9
1106.23
1086.1
1062.78
1035.59
1001.61
956.731
896.438
818.348
725.039
627.114
531.317
440.833
359.715
291.637
238.928
201.448
176.892
161.98
153.503
148.939
146.589
145.421
144.861
144.6
144.483
144.433
144.412
144.404
144.402
144.401
144.401
144.401
144.401
144.401
144.401
144.401
144.401
144.402
144.402
144.402
144.402
144.403
144.403
144.403
144.403
144.404
144.404
144.404
144.404
144.405
144.405
144.405
144.405
144.406
144.406
144.406
144.406
144.406
144.406
144.407
144.407
144.407
144.407
144.407
144.407
144.407
144.407
144.406
144.406
144.406
144.406
144.406
144.406
144.406
144.405
144.405
1598.06
1594.61
1590.89
1586.9
1582.64
1578.11
1573.3
1568.23
1562.88
1557.24
1551.32
1545.13
1538.66
1531.93
1524.95
1517.74
1510.31
1502.67
1494.82
1486.77
1478.54
1470.15
1461.61
1452.9
1444.02
1434.95
1425.69
1416.19
1406.45
1396.48
1386.23
1375.71
1364.98
1354.22
1343.51
1332.86
1322.24
1311.51
1300.29
1288.38
1276.07
1263.98
1252.69
1241.72
1229.78
1216.65
1203.12
1190.17
1177.65
1162.74
1146.24
1130.29
1115.25
1098.53
1079.23
1056.49
1030.06
997.235
953.305
892.876
812.424
714.736
611.84
511.112
417.196
334.925
268.412
219.499
186.815
166.879
155.672
149.789
146.867
145.482
144.854
144.581
144.468
144.425
144.409
144.404
144.403
144.403
144.403
144.404
144.404
144.405
144.405
144.406
144.407
144.408
144.408
144.409
144.41
144.411
144.412
144.413
144.414
144.415
144.416
144.417
144.418
144.419
144.42
144.421
144.422
144.422
144.423
144.423
144.424
144.424
144.424
144.424
144.424
144.424
144.424
144.424
144.424
144.423
144.423
144.422
144.422
144.421
144.421
144.42
144.42
144.419
144.418
144.418
1634.96
1631.16
1627.08
1622.73
1618.11
1613.22
1608.07
1602.65
1596.96
1591
1584.77
1578.28
1571.53
1564.54
1557.31
1549.85
1542.2
1534.35
1526.3
1518.08
1509.67
1501.09
1492.34
1483.41
1474.29
1464.96
1455.43
1445.68
1435.72
1425.55
1415.2
1404.68
1394.06
1383.4
1372.74
1362
1351.11
1339.94
1328.34
1316.35
1304.19
1292.24
1280.65
1269
1256.7
1243.75
1230.84
1218.77
1206.82
1193.47
1179.13
1165.17
1151.88
1136.19
1119.21
1103.35
1086.58
1067.2
1044.21
1017.39
983.364
936.585
870.816
782.76
678.391
570.517
466.572
372.613
294.134
234.855
194.709
170.291
156.834
150.018
146.799
145.368
144.769
144.534
144.448
144.42
144.413
144.412
144.412
144.413
144.415
144.417
144.42
144.423
144.425
144.428
144.431
144.435
144.438
144.442
144.445
144.449
144.452
144.456
144.46
144.463
144.467
144.47
144.473
144.476
144.478
144.481
144.483
144.484
144.486
144.487
144.488
144.488
144.488
144.488
144.487
144.486
144.485
144.484
144.482
144.481
144.479
144.477
144.475
144.473
144.47
144.468
144.466
144.464
1669.24
1665.07
1660.62
1655.89
1650.9
1645.64
1640.13
1634.35
1628.32
1622.03
1615.5
1608.71
1601.68
1594.43
1586.96
1579.28
1571.39
1563.33
1555.09
1546.67
1538.08
1529.31
1520.37
1511.25
1501.95
1492.47
1482.81
1472.96
1462.95
1452.79
1442.49
1432.09
1421.6
1411.04
1400.39
1389.57
1378.53
1367.2
1355.56
1343.73
1331.85
1320.07
1308.34
1296.37
1283.92
1271.11
1258.36
1245.92
1233.3
1220.01
1206.43
1193.5
1180.82
1166.83
1152.14
1138.15
1122.62
1105.39
1088.71
1071.34
1051.01
1026.94
998.16
959.842
905.344
827.945
727.176
615.255
503.516
399.999
311.721
244.084
198.252
170.864
156.327
149.375
146.335
145.108
144.651
144.497
144.454
144.446
144.447
144.45
144.455
144.463
144.473
144.482
144.492
144.503
144.514
144.526
144.538
144.55
144.563
144.576
144.589
144.602
144.614
144.627
144.638
144.65
144.66
144.67
144.679
144.687
144.694
144.7
144.705
144.708
144.711
144.712
144.712
144.711
144.709
144.706
144.702
144.697
144.692
144.686
144.679
144.672
144.665
144.657
144.649
144.641
144.633
144.625
1695.7
1690.86
1685.74
1680.36
1674.72
1668.84
1662.7
1656.32
1649.7
1642.85
1635.76
1628.46
1620.94
1613.22
1605.31
1597.23
1588.96
1580.51
1571.91
1563.16
1554.24
1545.17
1535.94
1526.55
1517.01
1507.33
1497.5
1487.55
1477.48
1467.31
1457.04
1446.67
1436.19
1425.57
1414.77
1403.75
1392.51
1381.08
1369.55
1357.98
1346.39
1334.68
1322.69
1310.37
1297.85
1285.31
1272.76
1259.94
1246.71
1233.38
1220.27
1207.03
1193.24
1179.48
1166.25
1152.16
1137.23
1122.53
1106.06
1088.89
1071.95
1053.18
1030.78
1004.55
970.995
923.512
853.886
757.539
643.105
524.789
413.245
317.338
244.07
195.459
167.693
153.969
148.003
145.683
144.873
144.628
144.576
144.575
144.582
144.601
144.628
144.661
144.695
144.731
144.769
144.808
144.849
144.891
144.935
144.979
145.024
145.068
145.113
145.156
145.198
145.238
145.277
145.313
145.346
145.376
145.403
145.427
145.447
145.462
145.474
145.482
145.486
145.485
145.481
145.474
145.463
145.449
145.433
145.414
145.393
145.37
145.346
145.321
145.295
145.268
145.241
145.213
145.186
1722.69
1717.41
1711.87
1706.09
1700.05
1693.78
1687.27
1680.53
1673.57
1666.39
1659.01
1651.42
1643.64
1635.68
1627.55
1619.26
1610.82
1602.21
1593.45
1584.56
1575.54
1566.39
1557.11
1547.71
1538.18
1528.54
1518.79
1508.94
1499
1488.96
1478.83
1468.59
1458.23
1447.72
1437.06
1426.23
1415.24
1404.14
1392.95
1381.7
1370.36
1358.83
1347.06
1335.06
1322.91
1310.68
1298.29
1285.64
1272.73
1259.71
1246.62
1233.27
1219.64
1206
1192.32
1178.23
1164.14
1150.27
1135.44
1120.37
1105.2
1087.69
1069.93
1051.72
1030.34
1005.49
974.354
930.367
864.56
769.832
652.28
527.464
408.81
307.624
232.614
185.731
161.336
150.673
146.674
145.386
145.07
145.042
145.06
145.116
145.208
145.32
145.441
145.566
145.695
145.83
145.97
146.114
146.262
146.412
146.563
146.714
146.863
147.009
147.15
147.285
147.412
147.532
147.642
147.742
147.831
147.908
147.973
148.024
148.062
148.087
148.096
148.094
148.08
148.053
148.016
147.968
147.913
147.849
147.78
147.704
147.623
147.539
147.452
147.362
147.272
147.181
147.092
147.005
146.92
1745.77
1740.03
1734.05
1727.83
1721.37
1714.7
1707.8
1700.7
1693.39
1685.89
1678.2
1670.33
1662.29
1654.1
1645.76
1637.28
1628.67
1619.92
1611.04
1602.03
1592.94
1583.76
1574.47
1565.09
1555.61
1546.05
1536.4
1526.67
1516.86
1506.96
1496.98
1486.91
1476.72
1466.42
1455.99
1445.45
1434.81
1424.07
1413.26
1402.36
1391.33
1380.12
1368.72
1357.16
1345.46
1333.64
1321.62
1309.39
1296.94
1284.34
1271.54
1258.48
1245.21
1231.8
1218.17
1204.29
1190.35
1176.15
1161.55
1147.23
1132.83
1117.28
1101.43
1083.96
1066.08
1048.05
1026.87
1002.5
972.014
928.579
862.224
764.253
640.396
507.685
382.875
280.629
210.633
171.963
154.842
148.68
146.951
146.701
146.739
146.9
147.196
147.571
147.98
148.401
148.835
149.282
149.744
150.219
150.703
151.192
151.681
152.167
152.646
153.111
153.559
153.986
154.387
154.761
155.105
155.416
155.692
155.93
156.129
156.283
156.396
156.47
156.494
156.483
156.433
156.345
156.223
156.071
155.894
155.695
155.475
155.237
154.984
154.719