/*--------------------------------*- C++ -*----------------------------------*\
| =========                 |                                                 |
| \\      /  F ield         | OpenFOAM: The Open Source CFD Toolbox           |
|  \\    /   O peration     | Version:  v1706                                 |
|   \\  /    A nd           | Web:      www.OpenFOAM.com                      |
|    \\/     M anipulation  |                                                 |
\*---------------------------------------------------------------------------*/
FoamFile
{
    version     2.0;
    format      ascii;
    class       volScalarField;
    location    "9e-06";
    object      Tv;
}
// * * * * * * * * * * * * * * * * * * * * * * * * * * * * * * * * * * * * * //

dimensions      [0 0 0 1 0 0 0];


internalField   nonuniform List<scalar> 
29871
(
144.4
144.4
144.4
144.4
144.4
144.4
144.4
144.4
144.4
144.4
144.4
144.4
144.4
144.4
144.4
144.4
144.4
144.4
144.4
144.4
144.4
144.4
144.4
144.4
144.4
144.4
144.4
144.4
144.4
144.4
144.4
144.4
144.4
144.4
144.4
144.4
144.4
144.4
144.4
144.4
144.4
144.4
144.4
144.4
144.4
144.4
144.4
144.4
144.4
144.4
144.4
144.4
144.4
144.4
144.4
144.4
144.4
144.4
144.4
144.4
144.4
144.4
144.4
144.4
144.4
144.4
144.4
144.4
144.4
144.4
144.4
144.4
144.4
144.4
144.4
144.4
144.4
144.4
144.4
144.4
144.4
144.4
144.4
144.4
144.4
144.4
144.4
144.4
144.4
144.4
144.4
144.4
144.4
144.4
144.4
144.4
144.4
144.4
144.4
144.4
144.4
144.4
144.4
144.4
144.4
144.4
144.4
144.4
144.4
144.4
144.4
144.4
144.4
144.4
144.4
144.4
144.4
144.4
144.4
144.4
144.4
144.4
144.4
144.4
144.4
144.4
144.4
144.4
144.4
144.4
144.4
144.4
144.4
144.4
144.4
144.4
144.4
144.4
144.4
144.4
144.4
144.4
144.4
144.4
144.4
144.4
144.4
144.4
144.4
144.4
144.4
144.4
144.4
144.4
144.4
144.4
144.4
144.4
144.4
144.4
144.4
144.4
144.4
144.4
144.4
144.4
144.4
144.4
144.4
144.4
144.4
144.4
144.4
144.4
144.4
144.4
144.4
144.4
144.4
144.4
144.4
144.4
144.4
144.4
144.4
144.4
144.4
144.4
144.4
144.4
144.4
144.4
144.4
144.4
144.4
144.4
144.4
144.4
144.4
144.4
144.4
144.4
144.4
144.4
144.4
144.4
144.4
144.4
144.4
144.4
144.4
144.4
144.4
144.4
144.4
144.4
144.4
144.4
144.4
144.4
144.4
144.4
144.4
144.4
144.4
144.4
144.4
144.4
144.4
144.4
144.4
144.4
144.4
144.4
144.4
144.4
144.4
144.4
144.4
144.4
144.4
144.4
144.4
144.4
144.4
144.4
144.4
144.4
144.4
144.4
144.4
144.4
144.4
144.4
144.4
144.4
144.4
144.4
144.4
144.4
144.4
144.4
144.4
144.4
144.4
144.4
144.4
144.4
144.4
144.4
144.4
144.4
144.4
144.4
144.4
144.4
144.4
144.4
144.4
144.4
144.4
144.4
144.4
144.4
144.4
144.4
144.4
144.4
144.4
144.4
144.4
144.4
144.4
144.4
144.4
144.4
144.4
144.4
144.4
144.4
144.4
144.4
144.4
144.4
144.4
144.4
144.4
144.4
144.4
144.4
144.4
144.4
144.4
144.4
144.4
144.4
144.4
144.4
144.4
144.4
144.4
144.4
144.4
144.4
144.4
144.4
144.4
144.4
144.4
144.4
144.4
144.4
144.4
144.4
144.4
144.4
144.4
144.4
144.4
144.4
144.4
144.4
144.4
144.4
144.4
144.4
144.4
144.4
144.4
144.4
144.4
144.4
144.4
144.4
144.4
144.4
144.4
144.4
144.4
144.4
144.4
144.4
144.4
144.4
144.4
144.4
144.4
144.4
144.4
144.4
144.4
144.4
144.4
144.4
144.4
144.4
144.4
144.4
144.4
144.4
144.4
144.4
144.4
144.4
144.4
144.4
144.4
144.4
144.4
144.4
144.4
144.4
144.4
144.4
144.4
144.4
144.4
144.4
144.4
144.4
144.4
144.4
144.4
144.4
144.4
144.4
144.4
144.4
144.4
144.4
144.4
144.4
144.4
144.4
144.4
144.4
144.4
144.4
144.4
144.4
144.4
144.4
144.4
144.4
144.4
144.4
144.4
144.4
144.4
144.4
144.4
144.4
144.4
144.4
144.4
144.4
144.4
144.4
144.4
144.4
144.4
144.4
144.4
144.4
144.4
144.4
144.4
144.4
144.4
144.4
144.4
144.4
144.4
144.4
144.4
144.4
144.4
144.4
144.4
144.4
144.4
144.4
144.4
144.4
144.4
144.4
144.4
144.4
144.4
144.4
144.4
144.4
144.4
144.4
144.4
144.4
144.4
144.4
144.4
144.4
144.4
144.4
144.4
144.4
144.4
144.4
144.4
144.4
144.4
144.4
144.4
144.4
144.4
144.4
144.4
144.4
144.4
144.4
144.4
144.4
144.4
144.4
144.4
144.4
144.4
144.4
144.4
144.4
144.4
144.4
144.4
144.4
144.4
144.4
144.4
144.4
144.4
144.4
144.4
144.4
144.4
144.4
144.4
144.4
144.4
144.4
144.4
144.4
144.4
144.4
144.4
144.4
144.4
144.4
144.4
144.4
144.4
144.4
144.4
144.4
144.4
144.4
144.4
144.4
144.4
144.4
144.4
144.4
144.4
144.4
144.4
144.4
144.4
144.4
144.4
144.4
144.4
144.4
144.4
144.4
144.4
144.4
144.4
144.4
144.4
144.4
144.4
144.4
144.4
144.4
144.4
144.4
144.4
144.4
144.4
144.4
144.4
144.4
144.4
144.4
144.4
144.4
144.4
144.4
144.4
144.4
144.4
144.4
144.4
144.4
144.4
144.4
144.4
144.4
144.4
144.4
144.4
144.4
144.4
144.4
144.4
144.4
144.4
144.4
144.4
144.4
144.4
144.4
144.4
144.4
144.4
144.4
144.4
144.4
144.4
144.4
144.4
144.4
144.4
144.4
144.4
144.4
144.4
144.4
144.4
144.4
144.4
144.4
144.4
144.4
144.4
144.4
144.4
144.4
144.4
144.4
144.4
144.4
144.4
144.4
144.4
144.4
144.4
144.4
144.4
144.4
144.4
144.4
144.4
144.4
144.4
144.4
144.4
144.4
144.4
144.4
144.4
144.4
144.4
144.4
144.4
144.4
144.4
144.4
144.4
144.4
144.4
144.4
144.4
144.4
144.4
144.4
144.4
144.4
144.4
144.4
144.4
144.4
144.4
144.4
144.4
144.4
144.4
144.4
144.4
144.4
144.4
144.4
144.4
144.4
144.4
144.4
144.4
144.4
144.4
144.4
144.4
144.4
144.4
144.4
144.4
144.4
144.4
144.4
144.4
144.4
144.4
144.4
144.4
144.4
144.4
144.4
144.4
144.4
144.4
144.4
144.4
144.4
144.4
144.4
144.4
144.4
144.4
144.4
144.4
144.4
144.4
144.4
144.4
144.4
144.4
144.4
144.4
144.4
144.4
144.4
144.4
144.4
144.4
144.4
144.4
144.4
144.4
144.4
144.4
144.4
144.4
144.4
144.4
144.4
144.4
144.4
144.4
144.4
144.4
144.4
144.4
144.4
144.4
144.4
144.4
144.4
144.4
144.4
144.4
144.4
144.4
144.4
144.4
144.4
144.4
144.4
144.4
144.4
144.4
144.4
144.4
144.4
144.4
144.4
144.4
144.4
144.4
144.4
144.4
144.4
144.4
144.4
144.4
144.4
144.4
144.4
144.4
144.4
144.4
144.4
144.4
144.4
144.4
144.4
144.4
144.4
144.4
144.4
144.4
144.4
144.4
144.4
144.4
144.4
144.4
144.4
144.4
144.4
144.4
144.4
144.4
144.4
144.4
144.4
144.4
144.4
144.4
144.4
144.4
144.4
144.4
144.4
144.4
144.4
144.4
144.4
144.4
144.4
144.4
144.4
144.4
144.4
144.4
144.4
144.4
144.4
144.4
144.4
144.4
144.4
144.4
144.4
144.4
144.4
144.4
144.4
144.4
144.4
144.4
144.4
144.4
144.4
144.4
144.4
144.4
144.4
144.4
144.4
144.4
144.4
144.4
144.4
144.4
144.4
144.4
144.4
144.4
144.4
144.4
144.4
144.4
144.4
144.4
144.4
144.4
144.4
144.4
144.4
144.4
144.4
144.4
144.4
144.4
144.4
144.4
144.4
144.4
144.4
144.4
144.4
144.4
144.4
144.4
144.4
144.4
144.4
144.4
144.4
144.4
144.4
144.4
144.4
144.4
144.4
144.4
144.4
144.4
144.4
144.4
144.4
144.4
144.4
144.4
144.4
144.4
144.4
144.4
144.4
144.4
144.4
144.4
144.4
144.4
144.4
144.4
144.4
144.4
144.4
144.4
144.4
144.4
144.4
144.4
144.4
144.4
144.4
144.4
144.4
144.4
144.4
144.4
144.4
144.4
144.4
144.4
144.4
144.4
144.4
144.4
144.4
144.4
144.4
144.4
144.4
144.4
144.4
144.4
144.4
144.4
144.4
144.4
144.4
144.4
144.4
144.4
144.4
144.4
144.4
144.4
144.4
144.4
144.4
144.4
144.4
144.4
144.4
144.4
144.4
144.4
144.4
144.4
144.4
144.4
144.4
144.4
144.4
144.4
144.4
144.4
144.4
144.4
144.4
144.4
144.4
144.4
144.4
144.4
144.4
144.4
144.4
144.4
144.4
144.4
144.4
144.4
144.4
144.4
144.4
144.4
144.4
144.4
144.4
144.4
144.4
144.4
144.4
144.4
144.4
144.4
144.4
144.4
144.4
144.4
144.4
144.4
144.4
144.4
144.4
144.4
144.4
144.4
144.4
144.4
144.4
144.4
144.4
144.4
144.4
144.4
144.4
144.4
144.4
144.4
144.4
144.4
144.4
144.4
144.4
144.4
144.4
144.4
144.4
144.4
144.4
144.4
144.4
144.4
144.4
144.4
144.4
144.4
144.4
144.4
144.4
144.4
144.4
144.4
144.4
144.4
144.4
144.4
144.4
144.4
144.4
144.4
144.4
144.4
144.4
144.4
144.4
144.4
144.4
144.4
144.4
144.4
144.4
144.4
144.4
144.4
144.4
144.4
144.4
144.4
144.4
144.4
144.4
144.4
144.4
144.4
144.4
144.4
144.4
144.4
144.4
144.4
144.4
144.4
144.4
144.4
144.4
144.4
144.4
144.4
144.4
144.4
144.4
144.4
144.4
144.4
144.4
144.4
144.4
144.4
144.4
144.4
144.4
144.4
144.4
144.4
144.4
144.4
144.4
144.4
144.4
144.4
144.4
144.4
144.4
144.4
144.4
144.4
144.4
144.4
144.4
144.4
144.4
144.4
144.4
144.4
144.4
144.4
144.4
144.4
144.4
144.4
144.4
144.4
144.4
144.4
144.4
144.4
144.4
144.4
144.4
144.4
144.4
144.4
144.4
144.4
144.4
144.4
144.4
144.4
144.4
144.4
144.4
144.4
144.4
144.4
144.4
144.4
144.4
144.4
144.4
144.4
144.4
144.4
144.4
144.4
144.4
144.4
144.4
144.4
144.4
144.4
144.4
144.4
144.4
144.4
144.4
144.4
144.4
144.4
144.4
144.4
144.4
144.4
144.4
144.4
144.4
144.4
144.4
144.4
144.4
144.4
144.4
144.4
144.4
144.4
144.4
144.4
144.4
144.4
144.4
144.4
144.4
144.4
144.4
144.4
144.4
144.4
144.4
144.4
144.4
144.4
144.4
144.4
144.4
144.4
144.4
144.4
144.4
144.4
144.4
144.4
144.4
144.4
144.4
144.4
144.4
144.4
144.4
144.4
144.4
144.4
144.4
144.4
144.4
144.4
144.4
144.4
144.4
144.4
144.4
144.4
144.4
144.4
144.4
144.4
144.4
144.4
144.4
144.4
144.4
144.4
144.4
144.4
144.4
144.4
144.4
144.4
144.4
144.4
144.4
144.4
144.4
144.4
144.4
144.4
144.4
144.4
144.4
144.4
144.4
144.4
144.4
144.4
144.4
144.4
144.4
144.4
144.4
144.4
144.4
144.4
144.4
144.4
144.4
144.4
144.4
144.4
144.4
144.4
144.4
144.4
144.4
144.4
144.4
144.4
144.4
144.4
144.4
144.4
144.4
144.4
144.4
144.4
144.4
144.4
144.4
144.4
144.4
144.4
144.4
144.4
144.4
144.4
144.4
144.4
144.4
144.4
144.4
144.4
144.4
144.4
144.4
144.4
144.4
144.4
144.4
144.4
144.4
144.4
144.4
144.4
144.4
144.4
144.4
144.4
144.4
144.4
144.4
144.4
144.4
144.4
144.4
144.4
144.4
144.4
144.4
144.4
144.4
144.4
144.4
144.4
144.4
144.4
144.4
144.4
144.4
144.4
144.4
144.4
144.4
144.4
144.4
144.4
144.4
144.4
144.4
144.4
144.4
144.4
144.4
144.4
144.4
144.4
144.4
144.4
144.4
144.4
144.4
144.4
144.4
144.4
144.4
144.4
144.4
144.4
144.4
144.4
144.4
144.4
144.4
144.4
144.4
144.4
144.4
144.4
144.4
144.4
144.4
144.4
144.4
144.4
144.4
144.4
144.4
144.4
144.4
144.4
144.4
144.4
144.4
144.4
144.4
144.4
144.4
144.4
144.4
144.4
144.4
144.4
144.4
144.4
144.4
144.4
144.4
144.4
144.4
144.4
144.4
144.4
144.4
144.4
144.4
144.4
144.4
144.4
144.4
144.4
144.4
144.4
144.4
144.4
144.4
144.4
144.4
144.4
144.4
144.4
144.4
144.4
144.4
144.4
144.4
144.4
144.4
144.4
144.4
144.4
144.4
144.4
144.4
144.4
144.4
144.4
144.4
144.4
144.4
144.4
144.4
144.4
144.4
144.4
144.4
144.4
144.4
144.4
144.4
144.4
144.4
144.4
144.4
144.4
144.4
144.4
144.4
144.4
144.4
144.4
144.4
144.4
144.4
144.4
144.4
144.4
144.401
144.401
144.4
144.4
144.4
144.4
144.4
144.4
144.4
144.4
144.4
144.4
144.4
144.4
144.4
144.4
144.4
144.4
144.4
144.4
144.4
144.4
144.4
144.4
144.4
144.4
144.4
144.4
144.4
144.4
144.4
144.4
144.4
144.4
144.4
144.4
144.4
144.4
144.4
144.4
144.4
144.4
144.4
144.4
144.4
144.4
144.4
144.4
144.4
144.4
144.4
144.4
144.4
144.4
144.4
144.4
144.4
144.4
144.4
144.4
144.4
144.4
144.4
144.4
144.4
144.4
144.4
144.4
144.4
144.4
144.4
144.4
144.4
144.4
144.4
144.4
144.4
144.4
144.4
144.4
144.4
144.4
144.4
144.4
144.4
144.4
144.4
144.4
144.4
144.4
144.4
144.4
144.4
144.4
144.4
144.4
144.4
144.4
144.4
144.4
144.4
144.4
144.4
144.4
144.4
144.4
144.4
144.4
144.4
144.4
144.4
144.4
144.4
144.4
144.4
144.407
144.406
144.406
144.406
144.405
144.405
144.404
144.404
144.404
144.403
144.403
144.402
144.402
144.402
144.401
144.401
144.401
144.401
144.401
144.401
144.4
144.4
144.4
144.4
144.4
144.4
144.4
144.4
144.4
144.4
144.4
144.4
144.4
144.4
144.4
144.4
144.4
144.4
144.4
144.4
144.4
144.4
144.4
144.4
144.4
144.4
144.4
144.4
144.4
144.4
144.4
144.4
144.4
144.4
144.4
144.4
144.4
144.4
144.4
144.4
144.4
144.4
144.4
144.4
144.4
144.4
144.4
144.4
144.4
144.4
144.4
144.4
144.4
144.4
144.4
144.4
144.4
144.4
144.4
144.4
144.4
144.4
144.4
144.4
144.4
144.4
144.4
144.4
144.4
144.4
144.4
144.4
144.4
144.4
144.4
144.4
144.4
144.4
144.4
144.4
144.4
144.4
144.4
144.4
144.4
144.4
144.4
144.4
144.4
144.4
144.4
144.4
144.4
144.4
144.4
144.4
144.481
144.483
144.484
144.484
144.483
144.482
144.48
144.477
144.474
144.47
144.466
144.462
144.457
144.452
144.447
144.442
144.437
144.433
144.429
144.425
144.421
144.418
144.415
144.412
144.41
144.408
144.406
144.405
144.404
144.403
144.402
144.402
144.401
144.401
144.401
144.4
144.4
144.4
144.4
144.4
144.4
144.4
144.4
144.4
144.4
144.4
144.4
144.4
144.4
144.4
144.4
144.4
144.4
144.4
144.4
144.4
144.4
144.4
144.4
144.4
144.4
144.4
144.4
144.4
144.4
144.4
144.4
144.4
144.4
144.4
144.4
144.4
144.4
144.4
144.4
144.4
144.4
144.4
144.4
144.4
144.4
144.4
144.4
144.4
144.4
144.4
144.4
144.4
144.4
144.4
144.4
144.4
144.4
144.4
144.4
144.4
144.4
144.4
144.4
144.4
144.4
144.4
144.4
144.4
144.4
144.4
144.4
144.4
144.4
144.4
144.4
144.4
144.4
144.4
144.4
144.4
144.4
144.4
144.4
144.4
144.4
144.4
144.4
145.268
145.284
145.294
145.296
145.291
145.279
145.259
145.233
145.2
145.162
145.119
145.072
145.023
144.971
144.919
144.868
144.817
144.768
144.721
144.677
144.637
144.6
144.567
144.538
144.513
144.491
144.472
144.457
144.444
144.434
144.426
144.419
144.414
144.41
144.407
144.405
144.404
144.403
144.402
144.401
144.401
144.4
144.4
144.4
144.4
144.4
144.4
144.4
144.4
144.4
144.4
144.4
144.4
144.4
144.4
144.4
144.4
144.4
144.4
144.4
144.4
144.4
144.4
144.4
144.4
144.4
144.4
144.4
144.4
144.4
144.4
144.4
144.4
144.4
144.4
144.4
144.4
144.4
144.4
144.4
144.4
144.4
144.4
144.4
144.4
144.4
144.4
144.4
144.4
144.4
144.4
144.4
144.4
144.4
144.4
144.4
144.4
144.4
144.4
144.4
144.4
144.4
144.4
144.4
144.4
144.4
144.4
144.4
144.4
144.4
144.4
144.4
144.4
144.4
144.4
144.4
144.4
144.4
144.4
144.4
144.4
144.4
144.4
150.644
150.728
150.778
150.792
150.772
150.714
150.616
150.482
150.313
150.111
149.878
149.617
149.331
149.024
148.7
148.363
148.019
147.671
147.326
146.99
146.666
146.359
146.072
145.809
145.57
145.357
145.172
145.014
144.881
144.771
144.683
144.613
144.559
144.516
144.484
144.46
144.442
144.429
144.42
144.413
144.409
144.406
144.404
144.402
144.401
144.401
144.401
144.4
144.4
144.4
144.4
144.4
144.4
144.4
144.4
144.4
144.4
144.4
144.4
144.4
144.4
144.4
144.4
144.4
144.4
144.4
144.4
144.4
144.4
144.4
144.4
144.4
144.4
144.4
144.4
144.4
144.4
144.4
144.4
144.4
144.4
144.4
144.4
144.4
144.4
144.4
144.4
144.4
144.4
144.4
144.4
144.4
144.4
144.4
144.4
144.4
144.4
144.4
144.4
144.4
144.4
144.4
144.4
144.4
144.4
144.4
144.4
144.4
144.4
144.4
144.4
144.4
144.4
144.4
144.4
144.4
144.4
144.4
144.4
144.4
144.4
144.4
144.4
164.529
164.673
164.756
164.778
164.741
164.639
164.467
164.23
163.929
163.566
163.14
162.653
162.106
161.499
160.836
160.118
159.347
158.529
157.668
156.769
155.841
154.89
153.925
152.952
151.982
151.025
150.096
149.213
148.392
147.647
146.991
146.428
145.959
145.576
145.271
145.031
144.848
144.712
144.613
144.544
144.496
144.463
144.44
144.425
144.416
144.41
144.406
144.403
144.402
144.401
144.401
144.4
144.4
144.4
144.4
144.4
144.4
144.4
144.4
144.4
144.4
144.4
144.4
144.4
144.4
144.4
144.4
144.4
144.4
144.4
144.4
144.4
144.4
144.4
144.4
144.4
144.4
144.4
144.4
144.4
144.4
144.4
144.4
144.4
144.4
144.4
144.4
144.4
144.4
144.4
144.4
144.4
144.4
144.4
144.4
144.4
144.4
144.4
144.4
144.4
144.4
144.4
144.4
144.4
144.4
144.4
144.4
144.4
144.4
144.4
144.4
144.4
144.4
144.4
144.4
144.4
144.4
144.4
144.4
144.4
144.4
144.4
144.4
144.4
144.4
182.457
182.585
182.644
182.638
182.567
182.422
182.201
181.908
181.545
181.112
180.609
180.035
179.392
178.677
177.891
177.033
176.104
175.103
174.032
172.892
171.688
170.421
169.095
167.711
166.266
164.759
163.193
161.576
159.922
158.248
156.577
154.936
153.354
151.86
150.473
149.213
148.099
147.154
146.388
145.797
145.359
145.043
144.822
144.67
144.569
144.503
144.462
144.437
144.422
144.412
144.407
144.404
144.402
144.401
144.401
144.4
144.4
144.4
144.4
144.4
144.4
144.4
144.4
144.4
144.4
144.4
144.4
144.4
144.4
144.4
144.4
144.4
144.4
144.4
144.4
144.4
144.4
144.4
144.4
144.4
144.4
144.4
144.4
144.4
144.4
144.4
144.4
144.4
144.4
144.4
144.4
144.4
144.4
144.4
144.4
144.4
144.4
144.4
144.4
144.4
144.4
144.4
144.4
144.4
144.4
144.4
144.4
144.4
144.4
144.4
144.4
144.4
144.4
144.4
144.4
144.4
144.4
144.4
144.4
144.4
144.4
144.4
144.4
144.4
144.4
199.96
200.013
200.004
199.937
199.805
199.605
199.337
199.002
198.601
198.136
197.606
197.011
196.35
195.622
194.825
193.959
193.022
192.013
190.932
189.778
188.551
187.254
185.888
184.454
182.947
181.357
179.676
177.904
176.042
174.093
172.065
169.971
167.828
165.655
163.461
161.244
159.009
156.784
154.625
152.599
150.769
149.178
147.845
146.781
145.979
145.41
145.028
144.78
144.625
144.529
144.473
144.44
144.422
144.412
144.406
144.403
144.402
144.401
144.4
144.4
144.4
144.4
144.4
144.4
144.4
144.4
144.4
144.4
144.4
144.4
144.4
144.4
144.4
144.4
144.4
144.4
144.4
144.4
144.4
144.4
144.4
144.4
144.4
144.4
144.4
144.4
144.4
144.4
144.4
144.4
144.4
144.4
144.4
144.4
144.4
144.4
144.4
144.4
144.4
144.4
144.4
144.4
144.4
144.4
144.4
144.4
144.4
144.4
144.4
144.4
144.4
144.4
144.4
144.4
144.4
144.4
144.4
144.4
144.4
144.4
144.4
144.4
144.4
144.4
144.4
215.189
215.211
215.187
215.108
214.97
214.776
214.523
214.212
213.84
213.41
212.922
212.377
211.775
211.115
210.395
209.615
208.774
207.87
206.901
205.868
204.767
203.6
202.364
201.061
199.695
198.269
196.767
195.179
193.499
191.725
189.855
187.888
185.828
183.684
181.466
179.183
176.816
174.342
171.755
169.072
166.332
163.583
160.857
158.174
155.563
153.096
150.877
148.999
147.505
146.392
145.617
145.113
144.804
144.623
144.519
144.463
144.432
144.416
144.408
144.404
144.402
144.401
144.4
144.4
144.4
144.4
144.4
144.4
144.4
144.4
144.4
144.4
144.4
144.4
144.4
144.4
144.4
144.4
144.4
144.4
144.4
144.4
144.4
144.4
144.4
144.4
144.4
144.4
144.4
144.4
144.4
144.4
144.4
144.4
144.4
144.4
144.4
144.4
144.4
144.4
144.4
144.4
144.4
144.4
144.4
144.4
144.4
144.4
144.4
144.4
144.4
144.4
144.4
144.4
144.4
144.4
144.4
144.4
144.4
144.4
144.4
144.4
144.4
144.4
144.4
144.4
228.425
228.391
228.307
228.17
227.98
227.738
227.444
227.097
226.694
226.234
225.722
225.158
224.543
223.874
223.151
222.373
221.541
220.652
219.707
218.704
217.642
216.522
215.343
214.105
212.809
211.455
210.032
208.536
206.963
205.31
203.577
201.76
199.861
197.876
195.811
193.683
191.473
189.149
186.692
184.102
181.396
178.604
175.743
172.796
169.741
166.585
163.384
160.216
157.145
154.24
151.601
149.354
147.595
146.335
145.507
145.004
144.717
144.561
144.48
144.438
144.418
144.408
144.404
144.402
144.401
144.4
144.4
144.4
144.4
144.4
144.4
144.4
144.4
144.4
144.4
144.4
144.4
144.4
144.4
144.4
144.4
144.4
144.4
144.4
144.4
144.4
144.4
144.4
144.4
144.4
144.4
144.4
144.4
144.4
144.4
144.4
144.4
144.4
144.4
144.4
144.4
144.4
144.4
144.4
144.4
144.4
144.4
144.4
144.4
144.4
144.4
144.4
144.4
144.4
144.4
144.4
144.4
144.4
144.4
144.4
144.4
144.4
144.4
144.4
144.4
144.4
144.4
144.4
240.392
240.307
240.173
239.988
239.754
239.471
239.139
238.758
238.323
237.834
237.293
236.702
236.062
235.373
234.634
233.843
233.001
232.105
231.158
230.158
229.103
227.993
226.831
225.616
224.345
223.018
221.629
220.178
218.663
217.079
215.427
213.708
211.921
210.066
208.145
206.162
204.103
201.95
199.687
197.311
194.827
192.249
189.602
186.853
183.961
180.91
177.72
174.435
171.067
167.608
164.074
160.535
157.095
153.876
151.023
148.69
146.967
145.828
145.147
144.772
144.579
144.483
144.437
144.416
144.407
144.403
144.401
144.4
144.4
144.4
144.4
144.4
144.4
144.4
144.4
144.4
144.4
144.4
144.4
144.4
144.4
144.4
144.4
144.4
144.4
144.4
144.4
144.4
144.4
144.4
144.4
144.4
144.4
144.4
144.4
144.4
144.4
144.4
144.4
144.4
144.4
144.4
144.4
144.4
144.4
144.4
144.4
144.4
144.4
144.4
144.4
144.4
144.4
144.4
144.4
144.4
144.4
144.4
144.4
144.4
144.4
144.4
144.4
144.4
144.4
144.4
144.4
144.4
251.385
251.248
251.063
250.83
250.55
250.224
249.851
249.431
248.961
248.44
247.867
247.245
246.576
245.86
245.098
244.288
243.428
242.518
241.561
240.554
239.493
238.382
237.223
236.014
234.751
233.437
232.068
230.646
229.165
227.617
226.007
224.338
222.608
220.82
218.973
217.067
215.097
213.051
210.916
208.688
206.373
203.985
201.532
198.991
196.332
193.538
190.608
187.582
184.453
181.18
177.74
174.156
170.46
166.675
162.833
159.021
155.375
152.073
149.32
147.272
145.934
145.161
144.757
144.56
144.469
144.429
144.412
144.405
144.402
144.401
144.4
144.4
144.4
144.4
144.4
144.4
144.4
144.4
144.4
144.4
144.4
144.4
144.4
144.4
144.4
144.4
144.4
144.4
144.4
144.4
144.4
144.4
144.4
144.4
144.4
144.4
144.4
144.4
144.4
144.4
144.4
144.4
144.4
144.4
144.4
144.4
144.4
144.4
144.4
144.4
144.4
144.4
144.4
144.4
144.4
144.4
144.4
144.4
144.4
144.4
144.4
144.4
144.4
144.4
144.4
144.4
144.4
144.4
261.48
261.289
261.051
260.768
260.44
260.067
259.649
259.186
258.677
258.119
257.512
256.858
256.157
255.411
254.621
253.786
252.905
251.978
251.005
249.986
248.915
247.797
246.635
245.426
244.166
242.857
241.498
240.091
238.627
237.101
235.521
233.89
232.2
230.459
228.665
226.814
224.909
222.939
220.887
218.75
216.534
214.257
211.922
209.519
207.024
204.415
201.697
198.896
196.007
193.002
189.851
186.558
183.143
179.582
175.851
171.971
167.972
163.889
159.799
155.851
152.26
149.283
147.117
145.764
145.03
144.673
144.513
144.445
144.417
144.406
144.402
144.401
144.4
144.4
144.4
144.4
144.4
144.4
144.4
144.4
144.4
144.4
144.4
144.4
144.4
144.4
144.4
144.4
144.4
144.4
144.4
144.4
144.4
144.4
144.4
144.4
144.4
144.4
144.4
144.4
144.4
144.4
144.4
144.4
144.4
144.4
144.4
144.4
144.4
144.4
144.4
144.4
144.4
144.4
144.4
144.4
144.4
144.4
144.4
144.4
144.4
144.4
144.4
144.4
144.4
144.4
144.4
144.4
144.4
270.49
270.2
269.865
269.487
269.066
268.601
268.093
267.54
266.942
266.298
265.608
264.874
264.095
263.274
262.41
261.503
260.553
259.56
258.522
257.437
256.308
255.136
253.92
252.657
251.345
249.986
248.582
247.126
245.616
244.061
242.459
240.803
239.1
237.35
235.548
233.692
231.774
229.783
227.718
225.583
223.394
221.153
218.857
216.479
213.991
211.403
208.745
206.024
203.215
200.284
197.233
194.077
190.8
187.379
183.813
180.107
176.231
172.177
167.98
163.685
159.379
155.235
151.52
148.553
146.532
145.377
144.811
144.562
144.461
144.422
144.407
144.402
144.401
144.4
144.4
144.4
144.4
144.4
144.4
144.4
144.4
144.4
144.4
144.4
144.4
144.4
144.4
144.4
144.4
144.4
144.4
144.4
144.4
144.4
144.4
144.4
144.4
144.4
144.4
144.4
144.4
144.4
144.4
144.4
144.4
144.4
144.4
144.4
144.4
144.4
144.4
144.4
144.4
144.4
144.4
144.4
144.4
144.4
144.4
144.4
144.4
144.4
144.4
144.4
144.4
144.4
144.4
144.4
278.889
278.546
278.159
277.729
277.258
276.744
276.188
275.59
274.948
274.263
273.535
272.764
271.95
271.095
270.199
269.262
268.284
267.265
266.205
265.102
263.956
262.769
261.54
260.268
258.95
257.589
256.186
254.737
253.242
251.706
250.127
248.5
246.827
245.111
243.346
241.526
239.645
237.703
235.701
233.639
231.529
229.37
227.157
224.862
222.467
219.989
217.457
214.877
212.217
209.433
206.536
203.559
200.496
197.315
194.011
190.587
187.022
183.295
179.42
175.374
171.14
166.748
162.254
157.781
153.564
149.959
147.319
145.729
144.94
144.602
144.471
144.423
144.407
144.402
144.401
144.4
144.4
144.4
144.4
144.4
144.4
144.4
144.4
144.4
144.4
144.4
144.4
144.4
144.4
144.4
144.4
144.4
144.4
144.4
144.4
144.4
144.4
144.4
144.4
144.4
144.4
144.4
144.4
144.4
144.4
144.4
144.4
144.4
144.4
144.4
144.4
144.4
144.4
144.4
144.4
144.4
144.4
144.4
144.4
144.4
144.4
144.4
144.4
144.4
144.4
144.4
144.4
144.4
286.127
285.685
285.201
284.676
284.111
283.505
282.858
282.17
281.441
280.671
279.86
279.008
278.117
277.186
276.217
275.209
274.161
273.075
271.949
270.784
269.58
268.336
267.052
265.728
264.364
262.961
261.518
260.034
258.51
256.946
255.34
253.69
251.997
250.259
248.469
246.626
244.73
242.785
240.789
238.747
236.655
234.503
232.275
229.966
227.593
225.176
222.709
220.156
217.486
214.724
211.909
209.024
206.018
202.888
199.665
196.337
192.877
189.288
185.555
181.654
177.59
173.344
168.901
164.303
159.637
155.099
151.046
147.924
145.979
145.013
144.614
144.469
144.42
144.406
144.401
144.4
144.4
144.4
144.4
144.4
144.4
144.4
144.4
144.4
144.4
144.4
144.4
144.4
144.4
144.4
144.4
144.4
144.4
144.4
144.4
144.4
144.4
144.4
144.4
144.4
144.4
144.4
144.4
144.4
144.4
144.4
144.4
144.4
144.4
144.4
144.4
144.4
144.4
144.4
144.4
144.4
144.4
144.4
144.4
144.4
144.4
144.4
144.4
144.4
144.4
144.4
144.4
292.474
291.933
291.352
290.732
290.073
289.374
288.637
287.861
287.045
286.192
285.3
284.37
283.403
282.399
281.358
280.281
279.167
278.017
276.831
275.608
274.349
273.053
271.721
270.352
268.948
267.506
266.028
264.512
262.959
261.367
259.734
258.061
256.345
254.584
252.776
250.924
249.028
247.086
245.099
243.06
240.963
238.801
236.576
234.3
231.98
229.599
227.132
224.571
221.942
219.269
216.519
213.648
210.672
207.634
204.502
201.237
197.852
194.353
190.72
186.951
183.024
178.917
174.636
170.156
165.484
160.688
155.94
151.595
148.171
146.026
144.991
144.588
144.454
144.414
144.403
144.401
144.4
144.4
144.4
144.4
144.4
144.4
144.4
144.4
144.4
144.4
144.4
144.4
144.4
144.4
144.4
144.4
144.4
144.4
144.4
144.4
144.4
144.4
144.4
144.4
144.4
144.4
144.4
144.4
144.4
144.4
144.4
144.4
144.4
144.4
144.4
144.4
144.4
144.4
144.4
144.4
144.4
144.4
144.4
144.4
144.4
144.4
144.4
144.4
144.4
144.4
144.4
144.4
298.554
297.952
297.312
296.635
295.919
295.167
294.378
293.552
292.689
291.79
290.855
289.885
288.88
287.839
286.765
285.657
284.514
283.339
282.129
280.887
279.611
278.302
276.96
275.584
274.175
272.733
271.256
269.745
268.2
266.618
265
263.344
261.65
259.916
258.142
256.328
254.474
252.577
250.636
248.645
246.602
244.505
242.357
240.162
237.919
235.613
233.232
230.778
228.271
225.711
223.068
220.323
217.497
214.615
211.639
208.537
205.343
202.055
198.631
195.078
191.393
187.561
183.583
179.431
175.087
170.546
165.794
160.887
155.99
151.482
147.954
145.821
144.864
144.529
144.431
144.406
144.401
144.4
144.4
144.4
144.4
144.4
144.4
144.4
144.4
144.4
144.4
144.4
144.4
144.4
144.4
144.4
144.4
144.4
144.4
144.4
144.4
144.4
144.4
144.4
144.4
144.4
144.4
144.4
144.4
144.4
144.4
144.4
144.4
144.4
144.4
144.4
144.4
144.4
144.4
144.4
144.4
144.4
144.4
144.4
144.4
144.4
144.4
144.4
144.4
144.4
144.4
144.4
303.95
303.285
302.584
301.846
301.073
300.264
299.421
298.543
297.631
296.685
295.705
294.692
293.647
292.569
291.46
290.319
289.147
287.945
286.711
285.447
284.153
282.829
281.474
280.089
278.674
277.228
275.751
274.242
272.702
271.13
269.524
267.885
266.212
264.503
262.759
260.978
259.16
257.302
255.402
253.458
251.468
249.432
247.352
245.226
243.05
240.815
238.519
236.165
233.759
231.294
228.752
226.128
223.439
220.688
217.845
214.898
211.876
208.758
205.512
202.166
198.702
195.094
191.346
187.448
183.391
179.162
174.73
170.092
165.237
160.212
155.205
150.659
147.262
145.4
144.675
144.462
144.411
144.402
144.4
144.4
144.4
144.4
144.4
144.4
144.4
144.4
144.4
144.4
144.4
144.4
144.4
144.4
144.4
144.4
144.4
144.4
144.4
144.4
144.4
144.4
144.4
144.4
144.4
144.4
144.4
144.4
144.4
144.4
144.4
144.4
144.4
144.4
144.4
144.4
144.4
144.4
144.4
144.4
144.4
144.4
144.4
144.4
144.4
144.4
144.4
144.4
144.4
144.4
307.956
307.191
306.392
305.559
304.693
303.794
302.863
301.9
300.905
299.879
298.822
297.736
296.619
295.474
294.299
293.097
291.866
290.607
289.321
288.007
286.665
285.297
283.901
282.477
281.026
279.547
278.039
276.503
274.938
273.344
271.719
270.064
268.378
266.659
264.908
263.121
261.299
259.438
257.539
255.599
253.619
251.598
249.533
247.42
245.256
243.04
240.774
238.455
236.077
233.632
231.121
228.551
225.913
223.194
220.392
217.517
214.548
211.472
208.311
205.032
201.623
198.102
194.437
190.615
186.629
182.463
178.118
173.566
168.793
163.795
158.631
153.552
149.152
146.228
144.91
144.507
144.417
144.402
144.4
144.4
144.4
144.4
144.4
144.4
144.4
144.4
144.4
144.4
144.4
144.4
144.4
144.4
144.4
144.4
144.4
144.4
144.4
144.4
144.4
144.4
144.4
144.4
144.4
144.4
144.4
144.4
144.4
144.4
144.4
144.4
144.4
144.4
144.4
144.4
144.4
144.4
144.4
144.4
144.4
144.4
144.4
144.4
144.4
144.4
144.4
144.4
144.4
311.994
311.164
310.302
309.408
308.483
307.527
306.542
305.526
304.482
303.408
302.307
301.178
300.022
298.839
297.63
296.396
295.136
293.85
292.54
291.205
289.846
288.462
287.053
285.62
284.163
282.68
281.172
279.639
278.08
276.495
274.883
273.243
271.576
269.88
268.153
266.396
264.606
262.782
260.923
259.03
257.099
255.131
253.122
251.07
248.973
246.83
244.641
242.401
240.107
237.755
235.346
232.879
230.347
227.743
225.07
222.324
219.492
216.574
213.571
210.457
207.238
203.916
200.454
196.861
193.113
189.189
185.083
180.781
176.283
171.562
166.597
161.394
156.066
151.038
147.191
145.198
144.558
144.423
144.403
144.4
144.4
144.4
144.4
144.4
144.4
144.4
144.4
144.4
144.4
144.4
144.4
144.401
144.401
144.401
144.401
144.401
144.401
144.401
144.401
144.401
144.401
144.401
144.401
144.401
144.401
144.401
144.401
144.401
144.401
144.401
144.401
144.401
144.401
144.401
144.401
144.401
144.401
144.401
144.401
144.401
144.401
144.401
144.401
144.401
144.401
144.4
144.4
144.4
144.4
315.426
314.531
313.605
312.65
311.665
310.652
309.611
308.542
307.447
306.326
305.179
304.007
302.811
301.591
300.346
299.079
297.789
296.477
295.142
293.785
292.407
291.007
289.585
288.141
286.676
285.188
283.679
282.147
280.592
279.014
277.412
275.786
274.134
272.457
270.753
269.021
267.26
265.47
263.648
261.795
259.909
257.988
256.031
254.035
251.999
249.923
247.803
245.637
243.422
241.156
238.838
236.465
234.032
231.537
228.977
226.349
223.645
220.865
218.001
215.042
211.992
208.841
205.572
202.187
198.646
194.951
191.088
187.035
182.778
178.297
173.583
168.606
163.352
157.873
152.469
147.984
145.436
144.593
144.425
144.403
144.401
144.401
144.401
144.401
144.401
144.401
144.402
144.402
144.402
144.402
144.402
144.403
144.403
144.403
144.403
144.404
144.404
144.404
144.404
144.404
144.404
144.405
144.405
144.405
144.405
144.405
144.405
144.405
144.405
144.405
144.405
144.405
144.404
144.404
144.404
144.404
144.404
144.404
144.403
144.403
144.403
144.403
144.403
144.403
144.402
144.402
144.402
144.402
144.402
317.323
316.333
315.315
314.27
313.199
312.103
310.981
309.835
308.666
307.473
306.258
305.021
303.762
302.483
301.182
299.862
298.522
297.162
295.783
294.385
292.968
291.532
290.077
288.603
287.11
285.597
284.065
282.512
280.939
279.345
277.729
276.091
274.43
272.745
271.036
269.301
267.539
265.75
263.933
262.086
260.207
258.296
256.351
254.371
252.353
250.296
248.197
246.055
243.867
241.631
239.345
237.004
234.607
232.151
229.631
227.044
224.386
221.65
218.832
215.929
212.933
209.836
206.623
203.274
199.791
196.144
192.331
188.326
184.101
179.624
174.866
169.814
164.449
158.809
153.151
148.315
145.502
144.593
144.426
144.407
144.405
144.405
144.406
144.406
144.407
144.408
144.409
144.41
144.411