/*--------------------------------*- C++ -*----------------------------------*\
| =========                 |                                                 |
| \\      /  F ield         | OpenFOAM: The Open Source CFD Toolbox           |
|  \\    /   O peration     | Version:  v1706                                 |
|   \\  /    A nd           | Web:      www.OpenFOAM.com                      |
|    \\/     M anipulation  |                                                 |
\*---------------------------------------------------------------------------*/
FoamFile
{
    version     2.0;
    format      ascii;
    class       volVectorField;
    location    "9e-06";
    object      U;
}
// * * * * * * * * * * * * * * * * * * * * * * * * * * * * * * * * * * * * * //

dimensions      [0 1 -1 0 0 0 0];


internalField   nonuniform List<vector> 
29871
(
(2764.5 -4.48526e-11 5.95126e-15)
(2764.5 -4.50373e-11 4.57093e-15)
(2764.5 -4.42203e-11 4.66806e-15)
(2764.5 -4.33837e-11 3.74304e-15)
(2764.5 -4.27301e-11 1.95037e-15)
(2764.5 -4.09575e-11 1.88806e-15)
(2764.5 -3.85873e-11 3.05951e-15)
(2764.5 -3.45691e-11 3.00418e-15)
(2764.5 -3.33918e-11 3.63552e-15)
(2764.5 -3.40136e-11 3.6765e-15)
(2764.5 -3.50409e-11 3.92602e-15)
(2764.5 -3.70909e-11 6.08746e-15)
(2764.5 -3.98136e-11 4.50864e-15)
(2764.5 -4.08394e-11 4.81142e-15)
(2764.5 -4.1241e-11 3.93661e-15)
(2764.5 -4.16177e-11 2.55177e-15)
(2764.5 -4.15117e-11 2.94452e-15)
(2764.5 -4.10484e-11 3.30312e-15)
(2764.5 -4.09405e-11 5.16169e-15)
(2764.5 -4.07353e-11 4.74821e-15)
(2764.5 -4.12839e-11 2.66686e-15)
(2764.5 -4.23191e-11 3.32629e-15)
(2764.5 -4.35864e-11 1.36826e-15)
(2764.5 -4.49631e-11 2.55043e-15)
(2764.5 -4.64741e-11 4.50075e-15)
(2764.5 -4.73334e-11 4.38693e-15)
(2764.5 -4.7522e-11 5.65573e-15)
(2764.5 -4.54573e-11 3.49782e-15)
(2764.5 -4.249e-11 1.47175e-15)
(2764.5 -4.22051e-11 3.9697e-15)
(2764.5 -4.24594e-11 4.16186e-15)
(2764.5 -4.12836e-11 2.56689e-15)
(2764.5 -4.1688e-11 2.73043e-15)
(2764.5 -4.32776e-11 7.05459e-15)
(2764.5 -4.60369e-11 3.29913e-15)
(2764.5 -4.76917e-11 8.10312e-16)
(2764.5 -4.84254e-11 5.94606e-16)
(2764.5 -4.79867e-11 2.8838e-15)
(2764.5 -4.67207e-11 3.27672e-15)
(2764.5 -4.6254e-11 3.62478e-15)
(2764.5 -4.43455e-11 5.33326e-15)
(2764.5 -4.32688e-11 5.82407e-15)
(2764.5 -4.06518e-11 6.31673e-15)
(2764.5 -3.88849e-11 3.43069e-15)
(2764.5 -3.96554e-11 3.36007e-15)
(2764.5 -3.9704e-11 3.65167e-15)
(2764.5 -3.80404e-11 2.46189e-15)
(2764.5 -3.81054e-11 4.88536e-16)
(2764.5 -3.85309e-11 3.70476e-16)
(2764.5 -3.54446e-11 5.19874e-15)
(2764.5 -2.91876e-11 3.72105e-15)
(2764.5 -2.72496e-11 1.94497e-15)
(2764.5 -2.83995e-11 2.62102e-15)
(2764.5 -2.99927e-11 4.04505e-15)
(2764.5 -3.39089e-11 2.82008e-15)
(2764.5 -3.72378e-11 3.82285e-15)
(2764.5 -3.7894e-11 4.55009e-15)
(2764.5 -3.89191e-11 5.20783e-15)
(2764.5 -4.1084e-11 4.62763e-15)
(2764.5 -4.22513e-11 3.2616e-15)
(2764.5 -4.18469e-11 1.91332e-15)
(2764.5 -4.1457e-11 1.63994e-15)
(2764.5 -4.15077e-11 1.87646e-15)
(2764.5 -4.11567e-11 4.69474e-16)
(2764.5 -3.90075e-11 3.9267e-15)
(2764.5 -3.76443e-11 5.22094e-15)
(2764.5 -3.66672e-11 3.14801e-15)
(2764.5 -3.63658e-11 2.16181e-15)
(2764.5 -3.55157e-11 1.55468e-15)
(2764.5 -3.54516e-11 1.91148e-15)
(2764.5 -3.79556e-11 3.36288e-15)
(2764.5 -4.15247e-11 3.29553e-15)
(2764.5 -4.41973e-11 1.44087e-15)
(2764.5 -4.25564e-11 2.21549e-15)
(2764.5 -4.14227e-11 2.65012e-15)
(2764.5 -4.11139e-11 3.62395e-15)
(2764.5 -4.1627e-11 1.40755e-15)
(2764.5 -4.27687e-11 1.81439e-15)
(2764.5 -4.39581e-11 2.67497e-15)
(2764.5 -4.35482e-11 3.95368e-15)
(2764.5 -4.09498e-11 4.18221e-15)
(2764.5 -3.7825e-11 3.96145e-15)
(2764.5 -3.12468e-11 4.24524e-15)
(2764.5 -2.48907e-11 2.87699e-15)
(2764.5 -2.14428e-11 4.73205e-15)
(2764.5 -2.34335e-11 4.21913e-15)
(2764.5 -2.67453e-11 2.9185e-15)
(2764.5 -2.95118e-11 3.93221e-15)
(2764.5 -3.14774e-11 5.03709e-15)
(2764.5 -3.27794e-11 3.76321e-15)
(2764.5 -3.28677e-11 3.41544e-15)
(2764.5 -3.32086e-11 2.50429e-15)
(2764.5 -3.38261e-11 2.75119e-15)
(2764.5 -3.42055e-11 2.90464e-15)
(2764.5 -3.61739e-11 2.47544e-15)
(2764.5 -3.90887e-11 2.22857e-15)
(2764.5 -4.07608e-11 2.34353e-15)
(2764.5 -4.3143e-11 2.56008e-15)
(2764.5 -4.40852e-11 2.89435e-15)
(2764.5 -4.36967e-11 2.78618e-15)
(2764.5 -4.18724e-11 4.32134e-15)
(2764.5 -3.85537e-11 4.35338e-15)
(2764.5 -3.58855e-11 1.27218e-15)
(2764.5 -3.70239e-11 1.96796e-15)
(2764.5 -4.11621e-11 4.18083e-16)
(2764.5 -1.1409e-10 1.14709e-14)
(2764.5 -1.1543e-10 9.80488e-15)
(2764.5 -1.16779e-10 1.31378e-14)
(2764.5 -1.17287e-10 1.1352e-14)
(2764.5 -1.19126e-10 1.0901e-14)
(2764.5 -1.20967e-10 1.26389e-14)
(2764.5 -1.23245e-10 1.22346e-14)
(2764.5 -1.22771e-10 1.11095e-14)
(2764.5 -1.18513e-10 1.14122e-14)
(2764.5 -1.14192e-10 1.15455e-14)
(2764.5 -1.112e-10 1.1997e-14)
(2764.5 -1.08478e-10 1.03671e-14)
(2764.5 -1.0693e-10 1.50604e-14)
(2764.5 -1.08919e-10 1.24852e-14)
(2764.5 -1.10896e-10 4.55791e-15)
(2764.5 -1.13974e-10 8.557e-15)
(2764.5 -1.16751e-10 1.06979e-14)
(2764.5 -1.2258e-10 1.10685e-14)
(2764.5 -1.23696e-10 9.78371e-15)
(2764.5 -1.23359e-10 7.92027e-15)
(2764.5 -1.2047e-10 7.7912e-15)
(2764.5 -1.16435e-10 1.08295e-14)
(2764.5 -1.12402e-10 1.17714e-14)
(2764.5 -1.0967e-10 1.56154e-14)
(2764.5 -1.07464e-10 9.74133e-15)
(2764.5 -1.07017e-10 1.04948e-14)
(2764.5 -1.09094e-10 1.15466e-14)
(2764.5 -1.16986e-10 1.05396e-14)
(2764.5 -1.17275e-10 1.11426e-14)
(2764.5 -1.16117e-10 1.12177e-14)
(2764.5 -1.17183e-10 1.13342e-14)
(2764.5 -1.16391e-10 6.89597e-15)
(2764.5 -1.13398e-10 9.87152e-15)
(2764.5 -1.11131e-10 1.43866e-14)
(2764.5 -1.11027e-10 1.21223e-14)
(2764.5 -1.11427e-10 1.22848e-14)
(2764.5 -1.11696e-10 8.39314e-15)
(2764.5 -1.16631e-10 1.29039e-14)
(2764.5 -1.1856e-10 1.11152e-14)
(2764.5 -1.20353e-10 1.1581e-14)
(2764.5 -1.22493e-10 1.20626e-14)
(2764.5 -1.24617e-10 1.05537e-14)
(2764.5 -1.28187e-10 1.08258e-14)
(2764.5 -1.26315e-10 1.03716e-14)
(2764.5 -1.23785e-10 1.02605e-14)
(2764.5 -1.24744e-10 1.10627e-14)
(2764.5 -1.26352e-10 1.21895e-14)
(2764.5 -1.23152e-10 7.21022e-15)
(2764.5 -1.24813e-10 1.01014e-14)
(2764.5 -1.26605e-10 9.10678e-15)
(2764.5 -1.29181e-10 7.14053e-15)
(2764.5 -1.26357e-10 9.67128e-15)
(2764.5 -1.1609e-10 1.15837e-14)
(2764.5 -1.06305e-10 9.1208e-15)
(2764.5 -9.88534e-11 1.01331e-14)
(2764.5 -9.87141e-11 9.068e-15)
(2764.5 -9.8701e-11 1.13253e-14)
(2764.5 -1.00796e-10 1.20396e-14)
(2764.5 -9.76835e-11 6.80258e-15)
(2764.5 -1.05109e-10 7.04242e-15)
(2764.5 -1.09571e-10 9.24025e-15)
(2764.5 -1.12917e-10 6.75786e-15)
(2764.5 -1.13786e-10 6.75513e-15)
(2764.5 -1.16987e-10 6.61876e-15)
(2764.5 -1.22605e-10 8.82515e-15)
(2764.5 -1.25078e-10 9.1457e-15)
(2764.5 -1.25515e-10 7.58194e-15)
(2764.5 -1.23816e-10 8.97226e-15)
(2764.5 -1.24677e-10 1.00201e-14)
(2764.5 -1.18981e-10 8.01091e-15)
(2764.5 -1.14934e-10 1.01459e-14)
(2764.5 -1.08661e-10 7.72683e-15)
(2764.5 -1.09151e-10 4.89514e-15)
(2764.5 -1.10146e-10 1.04673e-14)
(2764.5 -1.1094e-10 7.81419e-15)
(2764.5 -1.10418e-10 7.64444e-15)
(2764.5 -1.08994e-10 7.1497e-15)
(2764.5 -1.08067e-10 8.29088e-15)
(2764.5 -1.08794e-10 7.17426e-15)
(2764.5 -1.11732e-10 1.14644e-14)
(2764.5 -1.16931e-10 9.51903e-15)
(2764.5 -1.19724e-10 8.88305e-15)
(2764.5 -1.28101e-10 8.92656e-15)
(2764.5 -1.31802e-10 9.20521e-15)
(2764.5 -1.28154e-10 9.77368e-15)
(2764.5 -1.18651e-10 1.11572e-14)
(2764.5 -1.18317e-10 1.14522e-14)
(2764.5 -1.10624e-10 1.07649e-14)
(2764.5 -1.10153e-10 1.05885e-14)
(2764.5 -1.08848e-10 1.26758e-14)
(2764.5 -1.14256e-10 8.90814e-15)
(2764.5 -1.11861e-10 7.86649e-15)
(2764.5 -1.13419e-10 9.49614e-15)
(2764.5 -1.13076e-10 9.40404e-15)
(2764.5 -1.08809e-10 9.5117e-15)
(2764.5 -1.05321e-10 8.84315e-15)
(2764.5 -1.05945e-10 9.45423e-15)
(2764.5 -1.09193e-10 1.04844e-14)
(2764.5 -1.13376e-10 8.83845e-15)
(2764.5 -1.14283e-10 6.1351e-15)
(2764.5 -1.19308e-10 8.65725e-15)
(2764.5 -1.2034e-10 9.06317e-15)
(2764.5 -1.16872e-10 6.90013e-15)
(2764.5 -1.05704e-10 7.70157e-15)
(2764.5 -9.93824e-11 5.51339e-15)
(2764.5 -2.0469e-10 2.32564e-14)
(2764.5 -2.02097e-10 2.58886e-14)
(2764.5 -2.01733e-10 1.72602e-14)
(2764.5 -2.04629e-10 1.83034e-14)
(2764.5 -2.06769e-10 2.38576e-14)
(2764.5 -2.07864e-10 2.03741e-14)
(2764.5 -2.11798e-10 2.10128e-14)
(2764.5 -2.184e-10 1.98282e-14)
(2764.5 -2.2073e-10 2.19304e-14)
(2764.5 -2.27434e-10 2.15385e-14)
(2764.5 -2.27532e-10 1.96808e-14)
(2764.5 -2.24027e-10 1.69907e-14)
(2764.5 -2.18903e-10 1.29102e-14)
(2764.5 -2.1419e-10 1.65813e-14)
(2764.5 -2.08948e-10 1.90035e-14)
(2764.5 -2.06029e-10 1.92197e-14)
(2764.5 -2.00735e-10 1.68185e-14)
(2764.5 -1.95685e-10 1.76834e-14)
(2764.5 -1.93869e-10 1.6439e-14)
(2764.5 -1.96511e-10 1.62168e-14)
(2764.5 -1.9952e-10 1.67404e-14)
(2764.5 -1.99055e-10 1.47028e-14)
(2764.5 -1.99375e-10 1.56781e-14)
(2764.5 -1.99094e-10 1.99789e-14)
(2764.5 -1.96911e-10 1.50417e-14)
(2764.5 -1.95773e-10 1.75642e-14)
(2764.5 -1.94009e-10 1.93616e-14)
(2764.5 -1.91325e-10 1.79546e-14)
(2764.5 -1.91419e-10 1.75836e-14)
(2764.5 -1.95e-10 1.80693e-14)
(2764.5 -1.96778e-10 1.77312e-14)
(2764.5 -1.97565e-10 1.8185e-14)
(2764.5 -2.01208e-10 1.72399e-14)
(2764.5 -2.00919e-10 1.78061e-14)
(2764.5 -1.97344e-10 1.82457e-14)
(2764.5 -1.94108e-10 1.81482e-14)
(2764.5 -1.90026e-10 1.86034e-14)
(2764.5 -1.88616e-10 1.79011e-14)
(2764.5 -1.90223e-10 1.75809e-14)
(2764.5 -1.94184e-10 1.85309e-14)
(2764.5 -1.95222e-10 2.06248e-14)
(2764.5 -1.98793e-10 1.64802e-14)
(2764.5 -1.98823e-10 1.66499e-14)
(2764.5 -2.03089e-10 1.64617e-14)
(2764.5 -2.06409e-10 1.70383e-14)
(2764.5 -2.06196e-10 1.67843e-14)
(2764.5 -2.06951e-10 1.8213e-14)
(2764.5 -2.07271e-10 1.77408e-14)
(2764.5 -2.03833e-10 1.58081e-14)
(2764.5 -2.03325e-10 1.56859e-14)
(2764.5 -2.04954e-10 1.30292e-14)
(2764.5 -2.07467e-10 1.71484e-14)
(2764.5 -2.14047e-10 1.4221e-14)
(2764.5 -2.15679e-10 1.3002e-14)
(2764.5 -2.15106e-10 1.46225e-14)
(2764.5 -2.04596e-10 1.62347e-14)
(2764.5 -2.00017e-10 1.48826e-14)
(2764.5 -1.93602e-10 1.79033e-14)
(2764.5 -1.87235e-10 2.04188e-14)
(2764.5 -1.80977e-10 1.59835e-14)
(2764.5 -1.73141e-10 1.51437e-14)
(2764.5 -1.69437e-10 1.4705e-14)
(2764.5 -1.74116e-10 1.3688e-14)
(2764.5 -1.7339e-10 2.02063e-14)
(2764.5 -1.78701e-10 1.34404e-14)
(2764.5 -1.81687e-10 1.37978e-14)
(2764.5 -1.85215e-10 1.38315e-14)
(2764.5 -1.91267e-10 1.42636e-14)
(2764.5 -1.9751e-10 1.522e-14)
(2764.5 -2.02732e-10 1.52464e-14)
(2764.5 -2.04614e-10 1.46389e-14)
(2764.5 -2.05777e-10 1.60646e-14)
(2764.5 -2.02011e-10 1.44367e-14)
(2764.5 -1.99406e-10 1.41149e-14)
(2764.5 -1.99857e-10 1.60374e-14)
(2764.5 -2.00767e-10 1.19857e-14)
(2764.5 -1.97913e-10 1.52192e-14)
(2764.5 -1.96387e-10 1.69993e-14)
(2764.5 -1.93915e-10 1.41686e-14)
(2764.5 -1.89375e-10 1.24695e-14)
(2764.5 -1.88257e-10 1.62038e-14)
(2764.5 -1.87892e-10 1.5455e-14)
(2764.5 -1.87741e-10 1.64079e-14)
(2764.5 -1.88467e-10 1.35084e-14)
(2764.5 -2.01044e-10 1.71177e-14)
(2764.5 -2.0776e-10 1.85662e-14)
(2764.5 -2.06609e-10 1.72332e-14)
(2764.5 -2.04154e-10 1.48532e-14)
(2764.5 -1.96525e-10 1.68171e-14)
(2764.5 -1.91844e-10 1.52084e-14)
(2764.5 -1.84259e-10 1.75297e-14)
(2764.5 -1.83943e-10 1.72577e-14)
(2764.5 -1.86661e-10 1.43905e-14)
(2764.5 -1.82651e-10 1.55029e-14)
(2764.5 -1.79814e-10 1.65661e-14)
(2764.5 -1.84301e-10 1.6069e-14)
(2764.5 -1.81069e-10 1.24195e-14)
(2764.5 -1.77617e-10 1.59357e-14)
(2764.5 -1.72363e-10 1.62202e-14)
(2764.5 -1.77697e-10 1.28846e-14)
(2764.5 -1.82598e-10 1.3135e-14)
(2764.5 -1.88861e-10 1.41135e-14)
(2764.5 -1.97759e-10 1.38222e-14)
(2764.5 -2.08822e-10 1.37982e-14)
(2764.5 -2.1427e-10 1.38797e-14)
(2764.5 -2.12933e-10 1.31395e-14)
(2764.5 -3.22488e-10 2.8505e-14)
(2764.5 -3.16406e-10 3.41391e-14)
(2764.5 -3.07727e-10 2.77287e-14)
(2764.5 -3.02873e-10 2.79921e-14)
(2764.5 -2.99671e-10 2.97584e-14)
(2764.5 -2.90687e-10 2.61571e-14)
(2764.5 -2.83404e-10 3.08348e-14)
(2764.5 -2.81216e-10 3.07296e-14)
(2764.5 -2.75998e-10 2.46814e-14)
(2764.5 -2.73838e-10 2.33158e-14)
(2764.5 -2.75507e-10 2.62794e-14)
(2764.5 -2.70212e-10 2.5114e-14)
(2764.5 -2.66486e-10 2.47995e-14)
(2764.5 -2.60415e-10 2.55133e-14)
(2764.5 -2.58288e-10 2.55168e-14)
(2764.5 -2.57645e-10 2.34331e-14)
(2764.5 -2.58936e-10 2.29711e-14)
(2764.5 -2.60653e-10 2.30501e-14)
(2764.5 -2.61313e-10 2.30442e-14)
(2764.5 -2.63658e-10 2.48306e-14)
(2764.5 -2.71014e-10 2.14295e-14)
(2764.5 -2.81631e-10 2.68748e-14)
(2764.5 -2.87925e-10 2.70375e-14)
(2764.5 -2.9271e-10 2.60542e-14)
(2764.5 -2.94914e-10 2.43608e-14)
(2764.5 -2.91949e-10 2.46748e-14)
(2764.5 -2.84483e-10 2.72211e-14)
(2764.5 -2.81211e-10 2.57375e-14)
(2764.5 -2.72182e-10 2.14938e-14)
(2764.5 -2.67433e-10 2.43516e-14)
(2764.5 -2.62451e-10 2.41128e-14)
(2764.5 -2.61587e-10 2.5538e-14)
(2764.5 -2.61811e-10 2.27069e-14)
(2764.5 -2.67549e-10 2.68244e-14)
(2764.5 -2.72855e-10 2.67615e-14)
(2764.5 -2.72252e-10 2.5961e-14)
(2764.5 -2.72441e-10 2.73963e-14)
(2764.5 -2.73695e-10 2.49839e-14)
(2764.5 -2.6928e-10 2.50147e-14)
(2764.5 -2.66481e-10 2.25388e-14)
(2764.5 -2.62787e-10 2.38122e-14)
(2764.5 -2.61615e-10 2.73667e-14)
(2764.5 -2.62793e-10 2.47118e-14)
(2764.5 -2.67596e-10 2.45853e-14)
(2764.5 -2.70955e-10 2.75158e-14)
(2764.5 -2.71487e-10 2.4167e-14)
(2764.5 -2.73162e-10 2.31634e-14)
(2764.5 -2.78606e-10 2.17905e-14)
(2764.5 -2.88333e-10 2.79822e-14)
(2764.5 -2.88116e-10 2.31252e-14)
(2764.5 -2.88725e-10 2.14641e-14)
(2764.5 -2.90597e-10 2.32547e-14)
(2764.5 -2.91151e-10 2.33114e-14)
(2764.5 -2.94663e-10 2.62585e-14)
(2764.5 -3.0117e-10 1.99666e-14)
(2764.5 -3.01671e-10 1.95917e-14)
(2764.5 -2.97605e-10 2.36444e-14)
(2764.5 -2.89034e-10 2.33648e-14)
(2764.5 -2.86177e-10 2.23324e-14)
(2764.5 -2.81441e-10 2.24035e-14)
(2764.5 -2.70339e-10 2.46973e-14)
(2764.5 -2.60273e-10 2.29879e-14)
(2764.5 -2.58982e-10 2.01266e-14)
(2764.5 -2.55044e-10 2.10425e-14)
(2764.5 -2.61016e-10 2.04097e-14)
(2764.5 -2.57061e-10 2.03064e-14)
(2764.5 -2.55104e-10 2.06311e-14)
(2764.5 -2.50555e-10 1.9835e-14)
(2764.5 -2.55282e-10 2.07219e-14)
(2764.5 -2.54231e-10 1.95033e-14)
(2764.5 -2.66843e-10 2.17024e-14)
(2764.5 -2.73678e-10 2.18082e-14)
(2764.5 -2.80695e-10 2.19537e-14)
(2764.5 -2.82678e-10 2.17262e-14)
(2764.5 -2.82966e-10 1.99305e-14)
(2764.5 -2.82582e-10 1.98463e-14)
(2764.5 -2.81829e-10 2.09774e-14)
(2764.5 -2.80983e-10 2.11101e-14)
(2764.5 -2.79286e-10 1.9615e-14)
(2764.5 -2.76213e-10 2.35346e-14)
(2764.5 -2.75665e-10 2.3096e-14)
(2764.5 -2.72853e-10 2.07624e-14)
(2764.5 -2.69157e-10 1.99476e-14)
(2764.5 -2.66463e-10 1.81229e-14)
(2764.5 -2.66396e-10 2.17317e-14)
(2764.5 -2.64201e-10 1.54193e-14)
(2764.5 -2.74844e-10 1.93092e-14)
(2764.5 -2.81277e-10 2.23508e-14)
(2764.5 -2.82635e-10 2.069e-14)
(2764.5 -2.79681e-10 1.89905e-14)
(2764.5 -2.7475e-10 2.07893e-14)
(2764.5 -2.68511e-10 2.10142e-14)
(2764.5 -2.68386e-10 2.06818e-14)
(2764.5 -2.67202e-10 2.29782e-14)
(2764.5 -2.64907e-10 2.0662e-14)
(2764.5 -2.65821e-10 1.8248e-14)
(2764.5 -2.63384e-10 2.20008e-14)
(2764.5 -2.63424e-10 2.74433e-14)
(2764.5 -2.54766e-10 2.07774e-14)
(2764.5 -2.48092e-10 2.06967e-14)
(2764.5 -2.50785e-10 2.08522e-14)
(2764.5 -2.44583e-10 1.92414e-14)
(2764.5 -2.39931e-10 2.06124e-14)
(2764.5 -2.47344e-10 2.01085e-14)
(2764.5 -2.48155e-10 1.84585e-14)
(2764.5 -2.64215e-10 1.92312e-14)
(2764.5 -2.88049e-10 3.38826e-14)
(2764.5 -2.87703e-10 3.56591e-14)
(2764.5 -2.93883e-10 3.52596e-14)
(2764.5 -2.97983e-10 3.53226e-14)
(2764.5 -2.97662e-10 3.62181e-14)
(2764.5 -2.99692e-10 3.48301e-14)
(2764.5 -3.04887e-10 3.44275e-14)
(2764.5 -3.11856e-10 3.63466e-14)
(2764.5 -3.20756e-10 3.78748e-14)
(2764.5 -3.32743e-10 3.91468e-14)
(2764.5 -3.46464e-10 3.4706e-14)
(2764.5 -3.58011e-10 3.28375e-14)
(2764.5 -3.76514e-10 3.53522e-14)
(2764.5 -3.93009e-10 3.38178e-14)
(2764.5 -4.04588e-10 3.01002e-14)
(2764.5 -4.09309e-10 3.68105e-14)
(2764.5 -4.0726e-10 3.39679e-14)
(2764.5 -4.06139e-10 3.73383e-14)
(2764.5 -4.00119e-10 3.70972e-14)
(2764.5 -3.92562e-10 3.43655e-14)
(2764.5 -3.83462e-10 3.47598e-14)
(2764.5 -3.68791e-10 3.21606e-14)
(2764.5 -3.54472e-10 3.50956e-14)
(2764.5 -3.40744e-10 3.7148e-14)
(2764.5 -3.32923e-10 3.46246e-14)
(2764.5 -3.27184e-10 3.32965e-14)
(2764.5 -3.29561e-10 3.34804e-14)
(2764.5 -3.33246e-10 3.04476e-14)
(2764.5 -3.39989e-10 2.81378e-14)
(2764.5 -3.48634e-10 3.13595e-14)
(2764.5 -3.55439e-10 3.14099e-14)
(2764.5 -3.58328e-10 3.11776e-14)
(2764.5 -3.58332e-10 3.15536e-14)
(2764.5 -3.55053e-10 3.12969e-14)
(2764.5 -3.54223e-10 3.19069e-14)
(2764.5 -3.51015e-10 3.06608e-14)
(2764.5 -3.48535e-10 3.37227e-14)
(2764.5 -3.46671e-10 3.46001e-14)
(2764.5 -3.4479e-10 3.07597e-14)
(2764.5 -3.44126e-10 2.86403e-14)
(2764.5 -3.48303e-10 3.22724e-14)
(2764.5 -3.48421e-10 3.28426e-14)
(2764.5 -3.45559e-10 3.1028e-14)
(2764.5 -3.39462e-10 3.05088e-14)
(2764.5 -3.37521e-10 3.26203e-14)
(2764.5 -3.3993e-10 3.32898e-14)
(2764.5 -3.38946e-10 3.2522e-14)
(2764.5 -3.38872e-10 3.24944e-14)
(2764.5 -3.40384e-10 2.94409e-14)
(2764.5 -3.45155e-10 3.07923e-14)
(2764.5 -3.53049e-10 2.88744e-14)
(2764.5 -3.59932e-10 2.76659e-14)
(2764.5 -3.61877e-10 2.82398e-14)
(2764.5 -3.62932e-10 3.23376e-14)
(2764.5 -3.6719e-10 3.17621e-14)
(2764.5 -3.67524e-10 2.94637e-14)
(2764.5 -3.79508e-10 2.86335e-14)
(2764.5 -3.81793e-10 2.94395e-14)
(2764.5 -3.82964e-10 2.95728e-14)
(2764.5 -3.77829e-10 2.82876e-14)
(2764.5 -3.75654e-10 2.75507e-14)
(2764.5 -3.67962e-10 2.93975e-14)
(2764.5 -3.60681e-10 2.88195e-14)
(2764.5 -3.54221e-10 2.73531e-14)
(2764.5 -3.46875e-10 2.86491e-14)
(2764.5 -3.41566e-10 2.98178e-14)
(2764.5 -3.4145e-10 2.60328e-14)
(2764.5 -3.45589e-10 2.38956e-14)
(2764.5 -3.37586e-10 2.4324e-14)
(2764.5 -3.32401e-10 2.62495e-14)
(2764.5 -3.2948e-10 2.7236e-14)
(2764.5 -3.29184e-10 2.47794e-14)
(2764.5 -3.32217e-10 3.03986e-14)
(2764.5 -3.3827e-10 2.96847e-14)
(2764.5 -3.5272e-10 2.59619e-14)
(2764.5 -3.57513e-10 2.64693e-14)
(2764.5 -3.59527e-10 2.68809e-14)
(2764.5 -3.60179e-10 2.72332e-14)
(2764.5 -3.59343e-10 2.72161e-14)
(2764.5 -3.55587e-10 2.74339e-14)
(2764.5 -3.53004e-10 2.82198e-14)
(2764.5 -3.51736e-10 2.8806e-14)
(2764.5 -3.50469e-10 2.68178e-14)
(2764.5 -3.44634e-10 2.49533e-14)
(2764.5 -3.39601e-10 2.54571e-14)
(2764.5 -3.39273e-10 2.68212e-14)
(2764.5 -3.34925e-10 2.6451e-14)
(2764.5 -3.36501e-10 2.7053e-14)
(2764.5 -3.40363e-10 2.64995e-14)
(2764.5 -3.49976e-10 2.65729e-14)
(2764.5 -3.53293e-10 2.43878e-14)
(2764.5 -3.53766e-10 2.94621e-14)
(2764.5 -3.50708e-10 2.83651e-14)
(2764.5 -3.48026e-10 2.7389e-14)
(2764.5 -3.48329e-10 2.78627e-14)
(2764.5 -3.46478e-10 2.57131e-14)
(2764.5 -3.44305e-10 2.64491e-14)
(2764.5 -3.43032e-10 2.69775e-14)
(2764.5 -3.39006e-10 2.64792e-14)
(2764.5 -3.38524e-10 2.64791e-14)
(2764.5 -3.28921e-10 2.74245e-14)
(2764.5 -3.30259e-10 2.22347e-14)
(2764.5 -3.28509e-10 2.33751e-14)
(2764.5 -3.26095e-10 2.76819e-14)
(2764.5 -3.20529e-10 2.68663e-14)
(2764.5 -3.10684e-10 2.42149e-14)
(2764.5 -3.1172e-10 2.85775e-14)
(2764.5 -5.97186e-10 4.71078e-14)
(2764.5 -6.04512e-10 4.53238e-14)
(2764.5 -6.12627e-10 4.69124e-14)
(2764.5 -6.24349e-10 4.45201e-14)
(2764.5 -6.31298e-10 4.39926e-14)
(2764.5 -6.31203e-10 4.51232e-14)
(2764.5 -6.24006e-10 4.98121e-14)
(2764.5 -6.11533e-10 4.66572e-14)
(2764.5 -5.96607e-10 4.59802e-14)
(2764.5 -5.75021e-10 4.77279e-14)
(2764.5 -5.53772e-10 4.49668e-14)
(2764.5 -5.33681e-10 4.68611e-14)
(2764.5 -5.05903e-10 4.56837e-14)
(2764.5 -4.73683e-10 4.20787e-14)
(2764.5 -4.35454e-10 4.47805e-14)
(2764.5 -4.05215e-10 4.30294e-14)
(2764.5 -3.83579e-10 4.01654e-14)
(2764.5 -3.57917e-10 4.18525e-14)
(2764.5 -3.40568e-10 4.12743e-14)
(2764.5 -3.37081e-10 4.11524e-14)
(2764.5 -3.45027e-10 4.09472e-14)
(2764.5 -3.60755e-10 4.15105e-14)
(2764.5 -3.82079e-10 4.34043e-14)
(2764.5 -4.03898e-10 4.25502e-14)
(2764.5 -4.29623e-10 3.72182e-14)
(2764.5 -4.55735e-10 3.64975e-14)
(2764.5 -4.69593e-10 3.7758e-14)
(2764.5 -4.72051e-10 3.65861e-14)
(2764.5 -4.73466e-10 3.89105e-14)
(2764.5 -4.62921e-10 3.88021e-14)
(2764.5 -4.51055e-10 3.88513e-14)
(2764.5 -4.39615e-10 3.86658e-14)
(2764.5 -4.24695e-10 3.95158e-14)
(2764.5 -4.15768e-10 3.87836e-14)
(2764.5 -4.13902e-10 4.05191e-14)
(2764.5 -4.15294e-10 4.1593e-14)
(2764.5 -4.22095e-10 3.85634e-14)
(2764.5 -4.29378e-10 3.81386e-14)
(2764.5 -4.34781e-10 3.55435e-14)
(2764.5 -4.35318e-10 3.94868e-14)
(2764.5 -4.32675e-10 3.94098e-14)
(2764.5 -4.35221e-10 3.80695e-14)
(2764.5 -4.33615e-10 3.89798e-14)
(2764.5 -4.30167e-10 3.71574e-14)
(2764.5 -4.26586e-10 3.98431e-14)
(2764.5 -4.24031e-10 3.96879e-14)
(2764.5 -4.22777e-10 3.78154e-14)
(2764.5 -4.1839e-10 3.77374e-14)
(2764.5 -4.11309e-10 3.62275e-14)
(2764.5 -4.12399e-10 3.83661e-14)
(2764.5 -4.14358e-10 3.88178e-14)
(2764.5 -4.20273e-10 3.27521e-14)
(2764.5 -4.27276e-10 3.55498e-14)
(2764.5 -4.33032e-10 3.84366e-14)
(2764.5 -4.36029e-10 4.26424e-14)
(2764.5 -4.4256e-10 3.98413e-14)
(2764.5 -4.46388e-10 4.25373e-14)
(2764.5 -4.56168e-10 3.5714e-14)
(2764.5 -4.58963e-10 3.44614e-14)
(2764.5 -4.5988e-10 3.56259e-14)
(2764.5 -4.54692e-10 3.63864e-14)
(2764.5 -4.50855e-10 3.3342e-14)
(2764.5 -4.44455e-10 3.45151e-14)
(2764.5 -4.4056e-10 3.64501e-14)
(2764.5 -4.37153e-10 3.18227e-14)
(2764.5 -4.31784e-10 3.03362e-14)
(2764.5 -4.26385e-10 3.84197e-14)
(2764.5 -4.26199e-10 3.96914e-14)
(2764.5 -4.31254e-10 3.0293e-14)
(2764.5 -4.247e-10 3.40187e-14)
(2764.5 -4.20743e-10 3.48812e-14)
(2764.5 -4.15411e-10 3.06391e-14)
(2764.5 -4.13262e-10 3.05637e-14)
(2764.5 -4.10149e-10 3.34118e-14)
(2764.5 -4.09666e-10 3.31528e-14)
(2764.5 -4.14391e-10 3.31391e-14)
(2764.5 -4.21806e-10 3.38146e-14)
(2764.5 -4.25892e-10 3.44187e-14)
(2764.5 -4.36623e-10 3.50375e-14)
(2764.5 -4.45438e-10 3.26106e-14)
(2764.5 -4.44694e-10 3.17188e-14)
(2764.5 -4.42996e-10 3.32003e-14)
(2764.5 -4.38749e-10 3.47976e-14)
(2764.5 -4.37154e-10 3.44894e-14)
(2764.5 -4.26617e-10 3.33184e-14)
(2764.5 -4.20538e-10 3.25081e-14)
(2764.5 -4.1363e-10 3.19253e-14)
(2764.5 -4.1253e-10 3.37062e-14)
(2764.5 -4.08023e-10 3.36902e-14)
(2764.5 -4.09932e-10 3.27069e-14)
(2764.5 -4.17652e-10 3.31239e-14)
(2764.5 -4.16932e-10 3.36349e-14)
(2764.5 -4.24169e-10 3.08002e-14)
(2764.5 -4.18728e-10 3.41103e-14)
(2764.5 -4.15291e-10 3.34962e-14)
(2764.5 -4.17126e-10 3.0878e-14)
(2764.5 -4.21888e-10 2.95354e-14)
(2764.5 -4.26202e-10 3.29882e-14)
(2764.5 -4.27285e-10 3.12883e-14)
(2764.5 -4.26942e-10 2.88673e-14)
(2764.5 -4.24836e-10 3.22032e-14)
(2764.5 -4.23715e-10 3.21388e-14)
(2764.5 -4.26781e-10 3.46697e-14)
(2764.5 -4.279e-10 3.41087e-14)
(2764.5 -4.23934e-10 2.97927e-14)
(2764.5 -4.19049e-10 2.95378e-14)
(2764.5 -4.18414e-10 3.30473e-14)
(2764.5 -5.06404e-10 5.26853e-14)
(2764.5 -4.85197e-10 5.24273e-14)
(2764.5 -4.54662e-10 5.33746e-14)
(2764.5 -4.20861e-10 4.99254e-14)
(2764.5 -3.78465e-10 4.98454e-14)
(2764.5 -3.25425e-10 4.94495e-14)
(2764.5 -2.66918e-10 4.81369e-14)
(2764.5 -2.13735e-10 5.29391e-14)
(2764.5 -1.7592e-10 5.189e-14)
(2764.5 -1.5948e-10 5.25627e-14)
(2764.5 -1.5382e-10 4.81422e-14)
(2764.5 -1.56696e-10 5.07585e-14)
(2764.5 -1.70263e-10 5.42268e-14)
(2764.5 -1.94855e-10 5.12476e-14)
(2764.5 -2.34497e-10 4.78721e-14)
(2764.5 -2.8003e-10 4.71658e-14)
(2764.5 -3.34696e-10 4.70847e-14)
(2764.5 -4.01545e-10 4.86666e-14)
(2764.5 -4.76938e-10 4.85262e-14)
(2764.5 -5.47976e-10 5.01301e-14)
(2764.5 -6.10629e-10 4.9468e-14)
(2764.5 -6.71153e-10 5.13968e-14)
(2764.5 -7.05989e-10 5.11602e-14)
(2764.5 -7.06654e-10 4.7452e-14)
(2764.5 -6.90178e-10 4.72601e-14)
(2764.5 -6.63549e-10 4.9043e-14)
(2764.5 -6.25098e-10 4.91132e-14)
(2764.5 -5.82665e-10 4.81362e-14)
(2764.5 -5.22655e-10 4.73594e-14)
(2764.5 -4.65139e-10 4.64654e-14)
(2764.5 -4.28518e-10 4.66839e-14)
(2764.5 -4.22327e-10 4.62495e-14)
(2764.5 -4.27049e-10 4.70264e-14)
(2764.5 -4.51691e-10 5.07387e-14)
(2764.5 -4.83025e-10 4.96736e-14)
(2764.5 -5.17529e-10 5.04198e-14)
(2764.5 -5.48053e-10 4.47703e-14)
(2764.5 -5.58053e-10 4.49645e-14)
(2764.5 -5.47485e-10 4.51106e-14)
(2764.5 -5.37445e-10 4.49247e-14)
(2764.5 -5.17822e-10 4.55192e-14)
(2764.5 -5.03245e-10 4.57166e-14)
(2764.5 -4.99128e-10 4.42381e-14)
(2764.5 -4.97813e-10 4.3887e-14)
(2764.5 -5.03144e-10 4.53628e-14)
(2764.5 -5.17893e-10 4.65641e-14)
(2764.5 -5.21448e-10 4.56122e-14)
(2764.5 -5.18784e-10 4.53426e-14)
(2764.5 -5.14039e-10 4.67167e-14)
(2764.5 -5.0735e-10 4.70755e-14)
(2764.5 -5.07794e-10 4.55464e-14)
(2764.5 -4.96278e-10 4.39392e-14)
(2764.5 -4.90358e-10 4.48009e-14)
(2764.5 -4.8708e-10 4.42188e-14)
(2764.5 -4.85182e-10 4.72347e-14)
(2764.5 -4.85522e-10 4.47698e-14)
(2764.5 -4.88295e-10 3.89317e-14)
(2764.5 -4.90252e-10 4.54429e-14)
(2764.5 -4.97574e-10 4.4276e-14)
(2764.5 -5.03925e-10 4.17946e-14)
(2764.5 -5.15428e-10 4.24031e-14)
(2764.5 -5.29735e-10 4.53568e-14)
(2764.5 -5.41588e-10 3.98653e-14)
(2764.5 -5.41958e-10 4.0354e-14)
(2764.5 -5.36897e-10 4.18645e-14)
(2764.5 -5.25031e-10 3.84923e-14)
(2764.5 -5.14599e-10 4.51307e-14)
(2764.5 -5.10194e-10 4.30376e-14)
(2764.5 -5.08065e-10 4.26466e-14)
(2764.5 -5.0545e-10 4.32567e-14)
(2764.5 -5.01928e-10 4.09541e-14)
(2764.5 -5.05156e-10 4.15415e-14)
(2764.5 -5.0663e-10 3.93167e-14)
(2764.5 -5.04501e-10 3.82402e-14)
(2764.5 -4.99415e-10 4.07902e-14)
(2764.5 -4.97323e-10 4.02248e-14)
(2764.5 -4.96247e-10 3.92068e-14)
(2764.5 -4.9426e-10 4.16553e-14)
(2764.5 -4.92289e-10 3.75124e-14)
(2764.5 -4.87907e-10 3.88183e-14)
(2764.5 -4.81767e-10 3.86965e-14)
(2764.5 -4.82041e-10 3.89259e-14)
(2764.5 -4.84238e-10 3.77824e-14)
(2764.5 -4.92663e-10 3.58882e-14)
(2764.5 -5.00661e-10 4.08395e-14)
(2764.5 -5.11289e-10 3.98628e-14)
(2764.5 -5.19319e-10 4.0013e-14)
(2764.5 -5.20977e-10 4.0129e-14)
(2764.5 -5.18473e-10 3.82656e-14)
(2764.5 -5.12499e-10 3.74799e-14)
(2764.5 -5.10789e-10 3.71853e-14)
(2764.5 -5.07553e-10 3.85453e-14)
(2764.5 -5.02995e-10 3.98543e-14)
(2764.5 -5.10374e-10 3.56131e-14)
(2764.5 -5.14609e-10 3.48494e-14)
(2764.5 -5.17226e-10 4.28253e-14)
(2764.5 -5.25019e-10 3.8541e-14)
(2764.5 -5.16846e-10 3.98835e-14)
(2764.5 -5.09782e-10 4.09349e-14)
(2764.5 -5.05468e-10 3.68973e-14)
(2764.5 -4.98833e-10 3.79499e-14)
(2764.5 -4.99895e-10 3.70365e-14)
(2764.5 -4.97414e-10 3.9728e-14)
(2764.5 -4.93237e-10 3.70623e-14)
(2764.5 -4.84694e-10 3.8612e-14)
(2764.5 -4.84031e-10 3.83928e-14)
(2764.5 -4.83452e-10 3.76865e-14)
(2764.5 -4.78737e-10 3.86201e-14)
(2764.5 -4.8226e-10 3.49986e-14)
(2764.5 -4.78886e-10 3.78995e-14)
(2764.5 6.89177e-10 6.21922e-14)
(2764.5 6.15346e-10 6.2224e-14)
(2764.5 5.14813e-10 6.33579e-14)
(2764.5 4.03677e-10 6.02577e-14)
(2764.5 2.79228e-10 6.20694e-14)
(2764.5 1.08569e-10 6.30554e-14)
(2764.5 -1.16734e-10 6.33171e-14)
(2764.5 -4.07508e-10 5.94902e-14)
(2764.5 -7.51244e-10 6.09796e-14)
(2764.5 -9.47042e-10 6.11533e-14)
(2764.5 -1.05043e-09 5.81258e-14)
(2764.5 -1.1252e-09 6.11817e-14)
(2764.5 -1.17664e-09 6.1466e-14)
(2764.5 -1.19913e-09 5.87243e-14)
(2764.5 -1.18862e-09 5.37388e-14)
(2764.5 -1.15315e-09 5.39067e-14)
(2764.5 -1.08799e-09 6.02817e-14)
(2764.5 -1.00807e-09 5.95762e-14)
(2764.5 -9.10319e-10 5.87284e-14)
(2764.5 -8.04939e-10 5.61731e-14)
(2764.5 -7.02136e-10 5.74489e-14)
(2764.5 -5.50651e-10 5.47969e-14)
(2764.5 -3.57902e-10 5.61784e-14)
(2764.5 -2.43713e-10 6.17815e-14)
(2764.5 -2.33521e-10 5.60534e-14)
(2764.5 -2.61195e-10 5.43209e-14)
(2764.5 -3.07469e-10 5.58928e-14)
(2764.5 -3.89678e-10 5.70303e-14)
(2764.5 -4.85975e-10 5.70775e-14)
(2764.5 -5.94948e-10 5.50326e-14)
(2764.5 -7.00435e-10 4.88783e-14)
(2764.5 -7.51697e-10 5.66815e-14)
(2764.5 -7.50321e-10 5.63703e-14)
(2764.5 -7.34014e-10 5.25171e-14)
(2764.5 -6.94312e-10 5.09015e-14)
(2764.5 -6.30416e-10 5.43992e-14)
(2764.5 -5.65512e-10 5.25189e-14)
(2764.5 -5.26146e-10 5.22953e-14)
(2764.5 -5.21341e-10 5.15606e-14)
(2764.5 -5.34098e-10 5.39453e-14)
(2764.5 -5.62726e-10 5.43131e-14)
(2764.5 -5.92953e-10 5.33834e-14)
(2764.5 -6.14487e-10 5.12312e-14)
(2764.5 -6.13015e-10 5.36555e-14)
(2764.5 -6.03463e-10 5.24771e-14)
(2764.5 -5.94254e-10 5.19626e-14)
(2764.5 -5.87653e-10 5.42121e-14)
(2764.5 -5.89162e-10 5.53309e-14)
(2764.5 -5.91901e-10 5.17668e-14)
(2764.5 -5.93655e-10 5.30692e-14)
(2764.5 -5.96715e-10 5.08189e-14)
(2764.5 -5.9745e-10 5.30033e-14)
(2764.5 -5.88654e-10 4.91831e-14)
(2764.5 -5.81553e-10 5.11418e-14)
(2764.5 -5.76737e-10 5.26949e-14)
(2764.5 -5.69766e-10 4.84532e-14)
(2764.5 -5.65101e-10 5.21605e-14)
(2764.5 -5.64056e-10 4.99536e-14)
(2764.5 -5.62104e-10 5.03975e-14)
(2764.5 -5.60098e-10 5.25681e-14)
(2764.5 -5.67743e-10 4.98477e-14)
(2764.5 -5.78312e-10 5.13979e-14)
(2764.5 -5.94336e-10 5.09048e-14)
(2764.5 -6.14338e-10 4.78785e-14)
(2764.5 -6.19671e-10 4.59457e-14)
(2764.5 -6.16444e-10 4.92828e-14)
(2764.5 -6.03447e-10 5.07694e-14)
(2764.5 -5.99525e-10 4.75587e-14)
(2764.5 -5.93429e-10 4.8604e-14)
(2764.5 -5.89647e-10 5.22751e-14)
(2764.5 -5.86233e-10 4.93405e-14)
(2764.5 -5.81831e-10 4.67518e-14)
(2764.5 -5.8168e-10 4.73606e-14)
(2764.5 -5.77319e-10 5.02403e-14)
(2764.5 -5.74612e-10 4.67186e-14)
(2764.5 -5.68232e-10 4.58307e-14)
(2764.5 -5.68958e-10 4.83885e-14)
(2764.5 -5.69273e-10 4.69301e-14)
(2764.5 -5.68265e-10 4.56336e-14)
(2764.5 -5.72866e-10 4.56621e-14)
(2764.5 -5.73355e-10 4.32077e-14)
(2764.5 -5.689e-10 4.111e-14)
(2764.5 -5.61956e-10 4.41417e-14)
(2764.5 -5.62336e-10 4.34458e-14)
(2764.5 -5.64367e-10 4.38126e-14)
(2764.5 -5.7476e-10 4.62123e-14)
(2764.5 -5.79953e-10 4.76341e-14)
(2764.5 -5.95802e-10 4.19931e-14)
(2764.5 -5.98992e-10 4.25344e-14)
(2764.5 -5.98962e-10 4.10134e-14)
(2764.5 -5.93644e-10 4.47064e-14)
(2764.5 -5.90359e-10 4.30858e-14)
(2764.5 -5.77744e-10 4.49825e-14)
(2764.5 -5.71338e-10 4.38238e-14)
(2764.5 -5.71881e-10 4.45265e-14)
(2764.5 -5.66352e-10 4.51109e-14)
(2764.5 -5.6439e-10 4.33961e-14)
(2764.5 -5.65515e-10 4.55624e-14)
(2764.5 -5.64039e-10 4.0778e-14)
(2764.5 -5.61237e-10 4.41292e-14)
(2764.5 -5.58185e-10 4.70138e-14)
(2764.5 -5.54413e-10 4.57092e-14)
(2764.5 -5.54148e-10 4.69796e-14)
(2764.5 -5.59225e-10 4.20794e-14)
(2764.5 -5.55363e-10 4.2454e-14)
(2764.5 -5.53499e-10 4.0591e-14)
(2764.5 -5.55097e-10 4.20022e-14)
(2764.5 -5.56688e-10 4.10614e-14)
(2764.5 -5.54997e-10 4.45561e-14)
(2764.5 -5.58857e-10 3.92965e-14)
(2764.5 7.02243e-09 7.29572e-14)
(2764.5 6.74885e-09 7.03921e-14)
(2764.5 6.44402e-09 7.00134e-14)
(2764.5 6.1161e-09 7.02765e-14)
(2764.5 5.78964e-09 7.27202e-14)
(2764.5 5.49849e-09 7.06345e-14)