/*--------------------------------*- C++ -*----------------------------------*\
| =========                 |                                                 |
| \\      /  F ield         | OpenFOAM: The Open Source CFD Toolbox           |
|  \\    /   O peration     | Version:  v1706                                 |
|   \\  /    A nd           | Web:      www.OpenFOAM.com                      |
|    \\/     M anipulation  |                                                 |
\*---------------------------------------------------------------------------*/
FoamFile
{
    version     2.0;
    format      ascii;
    class       volScalarField;
    location    "9e-06";
    object      wallHeatFlux;
}
// * * * * * * * * * * * * * * * * * * * * * * * * * * * * * * * * * * * * * //

dimensions      [1 0 -3 0 0 0 0];


internalField   uniform 0;

boundaryField
{
    cone
    {
        type            calculated;
        value           nonuniform List<scalar> 
181
(
16270.6
16919.8
17639.4
18433.5
19306.7
20264.4
21312.7
22458.3
23708.6
25072.1
26557.6
28175
29935
31849.2
33930.1
36191
38646
41309.8
44197.8
47325.2
50706.8
54356.2
58284.4
62498.5
66999.1
71777.1
76810.4
82057.9
87454
92901.2
98264.5
103368
108001
111931
114933
116804
117390
116654
114678
111670
107922
103768
99541.7
95514.9
91866.7
88687.2
85995.6
83762.5
81930.2
80429.6
79191.1
78151.5
77257.6
76467
75747.9
75077.6
74441
73828.3
73234.3
72656
72092.7
71544.2
71011.1
70494.1
69994.1
69511.7
69047.8
68603
68178.3
67774.2
67391.7
67031.4
66694.3
66381
66091.9
65827.9
65589.9
65378.1
65193.4
65036.2
64907.2
64807
64736.2
64695.5
64685.5
64707.2
64761.4
64849
64971.1
65128.9
65323.8
65557.2
65830.9
66147
66507.5
66915.1
67372.5
67882.6
68448.4
69072.8
69758.7
70508.9
71325.9
72212.2
73170.2
74202.1
75310.2
76496.7
77763.7
79112.7
80545.2
82062.1
83663.4
85348.8
87116.6
88964.5
90888.7
92884.1
94944
97059.9
99221.5
101416
103630
105847
108049
110218
112336
114384
116346
118207
119957
121590
123104
124504
125799
127005
128141
129232
130301
131373
132468
133606
134802
136069
137415
138847
140368
141977
143674
145456
147320
149263
151282
153372
155532
157758
160049
162403
164818
167293
169828
172420
175069
177775
180537
183355
186227
189154
192137
195174
198267
201416
204621
207883
211203
214580
218016
221511
225065
228679
232352
)
;
    }
    inlet
    {
        type            calculated;
        value           uniform 0;
    }
    rWedge
    {
        type            wedge;
    }
    lWedge
    {
        type            wedge;
    }
    outlet
    {
        type            calculated;
        value           nonuniform 0();
    }
    procBoundary1to0
    {
        type            processor;
        value           uniform 0;
    }
    procBoundary1to2
    {
        type            processor;
        value           uniform 0;
    }
}


// ************************************************************************* //
