/*--------------------------------*- C++ -*----------------------------------*\
| =========                 |                                                 |
| \\      /  F ield         | OpenFOAM: The Open Source CFD Toolbox           |
|  \\    /   O peration     | Version:  v1706                                 |
|   \\  /    A nd           | Web:      www.OpenFOAM.com                      |
|    \\/     M anipulation  |                                                 |
\*---------------------------------------------------------------------------*/
FoamFile
{
    version     2.0;
    format      ascii;
    class       volScalarField;
    location    "5e-06";
    object      kappatr;
}
// * * * * * * * * * * * * * * * * * * * * * * * * * * * * * * * * * * * * * //

dimensions      [1 1 -3 -1 0 0 0];


internalField   nonuniform List<scalar> 
30038
(
0.014593
0.014593
0.014593
0.014593
0.014593
0.014593
0.014593
0.014593
0.014593
0.014593
0.014593
0.014593
0.014593
0.014593
0.014593
0.014593
0.014593
0.014593
0.014593
0.014593
0.014593
0.014593
0.014593
0.014593
0.014593
0.014593
0.014593
0.014593
0.014593
0.014593
0.014593
0.014593
0.014593
0.014593
0.014593
0.014593
0.014593
0.014593
0.014593
0.014593
0.014593
0.014593
0.014593
0.014593
0.014593
0.014593
0.014593
0.014593
0.014593
0.014593
0.014593
0.014593
0.014593
0.014593
0.014593
0.014593
0.014593
0.014593
0.014593
0.014593
0.014593
0.014593
0.014593
0.014593
0.014593
0.014593
0.014593
0.014593
0.014593
0.014593
0.014593
0.014593
0.014593
0.014593
0.014593
0.014593
0.014593
0.014593
0.014593
0.014593
0.014593
0.014593
0.014593
0.014593
0.014593
0.014593
0.014593
0.014593
0.014593
0.014593
0.014593
0.014593
0.014593
0.014593
0.014593
0.014593
0.014593
0.014593
0.014593
0.014593
0.014593
0.014593
0.014593
0.014593
0.014593
0.014593
0.014593
0.014593
0.014593
0.014593
0.014593
0.014593
0.014593
0.014593
0.014593
0.014593
0.014593
0.014593
0.014593
0.014593
0.014593
0.014593
0.014593
0.014593
0.014593
0.014593
0.014593
0.014593
0.014593
0.014593
0.014593
0.014593
0.014593
0.014593
0.014593
0.014593
0.014593
0.014593
0.014593
0.014593
0.014593
0.014593
0.014593
0.014593
0.014593
0.014593
0.014593
0.014593
0.014593
0.014593
0.014593
0.014593
0.014593
0.014593
0.014593
0.014593
0.014593
0.014593
0.014593
0.014593
0.014593
0.014593
0.014593
0.014593
0.014593
0.014593
0.014593
0.014593
0.014593
0.014593
0.014593
0.014593
0.014593
0.014593
0.014593
0.014593
0.014593
0.014593
0.014593
0.014593
0.014593
0.014593
0.014593
0.014593
0.014593
0.014593
0.014593
0.014593
0.014593
0.014593
0.014593
0.014593
0.014593
0.014593
0.014593
0.014593
0.014593
0.014593
0.014593
0.014593
0.014593
0.014593
0.014593
0.014593
0.014593
0.014593
0.014593
0.014593
0.014593
0.014593
0.014593
0.014593
0.014593
0.014593
0.014593
0.014593
0.014593
0.014593
0.014593
0.014593
0.014593
0.014593
0.014593
0.014593
0.014593
0.014593
0.014593
0.014593
0.014593
0.014593
0.014593
0.014593
0.014593
0.014593
0.014593
0.014593
0.014593
0.014593
0.014593
0.014593
0.014593
0.014593
0.014593
0.014593
0.014593
0.014593
0.014593
0.014593
0.014593
0.014593
0.014593
0.014593
0.014593
0.014593
0.014593
0.014593
0.014593
0.014593
0.014593
0.014593
0.014593
0.014593
0.014593
0.014593
0.014593
0.014593
0.014593
0.014593
0.014593
0.014593
0.014593
0.014593
0.014593
0.014593
0.014593
0.014593
0.014593
0.014593
0.014593
0.014593
0.014593
0.014593
0.014593
0.014593
0.014593
0.014593
0.014593
0.014593
0.014593
0.014593
0.014593
0.014593
0.014593
0.014593
0.014593
0.014593
0.014593
0.014593
0.014593
0.014593
0.014593
0.014593
0.014593
0.014593
0.014593
0.014593
0.014593
0.014593
0.014593
0.014593
0.014593
0.014593
0.014593
0.014593
0.014593
0.014593
0.014593
0.014593
0.014593
0.014593
0.014593
0.014593
0.014593
0.014593
0.014593
0.014593
0.014593
0.014593
0.014593
0.014593
0.014593
0.014593
0.014593
0.014593
0.014593
0.014593
0.014593
0.014593
0.014593
0.014593
0.014593
0.014593
0.014593
0.014593
0.014593
0.014593
0.014593
0.014593
0.014593
0.014593
0.014593
0.014593
0.014593
0.014593
0.014593
0.014593
0.014593
0.014593
0.014593
0.014593
0.014593
0.014593
0.014593
0.014593
0.014593
0.014593
0.014593
0.014593
0.014593
0.014593
0.014593
0.014593
0.014593
0.014593
0.014593
0.014593
0.014593
0.014593
0.014593
0.014593
0.014593
0.014593
0.014593
0.014593
0.014593
0.014593
0.014593
0.014593
0.014593
0.014593
0.014593
0.014593
0.014593
0.014593
0.014593
0.014593
0.014593
0.014593
0.014593
0.014593
0.014593
0.014593
0.014593
0.014593
0.014593
0.014593
0.014593
0.014593
0.014593
0.014593
0.014593
0.014593
0.014593
0.014593
0.014593
0.014593
0.014593
0.014593
0.014593
0.014593
0.014593
0.014593
0.014593
0.014593
0.014593
0.014593
0.014593
0.014593
0.014593
0.014593
0.014593
0.014593
0.014593
0.014593
0.014593
0.014593
0.014593
0.014593
0.014593
0.014593
0.014593
0.014593
0.014593
0.014593
0.014593
0.014593
0.014593
0.014593
0.014593
0.014593
0.014593
0.014593
0.014593
0.014593
0.014593
0.014593
0.014593
0.014593
0.014593
0.014593
0.014593
0.014593
0.014593
0.014593
0.014593
0.014593
0.014593
0.014593
0.014593
0.014593
0.014593
0.014593
0.014593
0.014593
0.014593
0.014593
0.014593
0.014593
0.014593
0.014593
0.014593
0.014593
0.014593
0.014593
0.014593
0.014593
0.014593
0.014593
0.014593
0.014593
0.014593
0.014593
0.014593
0.014593
0.014593
0.014593
0.014593
0.014593
0.014593
0.014593
0.014593
0.014593
0.014593
0.014593
0.014593
0.014593
0.014593
0.014593
0.014593
0.014593
0.014593
0.014593
0.014593
0.014593
0.014593
0.014593
0.014593
0.014593
0.014593
0.014593
0.014593
0.014593
0.014593
0.014593
0.014593
0.014593
0.014593
0.014593
0.014593
0.014593
0.014593
0.014593
0.014593
0.014593
0.014593
0.014593
0.014593
0.014593
0.014593
0.014593
0.014593
0.014593
0.014593
0.014593
0.014593
0.014593
0.014593
0.014593
0.014593
0.014593
0.014593
0.014593
0.014593
0.014593
0.014593
0.014593
0.014593
0.014593
0.014593
0.014593
0.014593
0.014593
0.014593
0.014593
0.014593
0.014593
0.014593
0.014593
0.014593
0.014593
0.014593
0.014593
0.014593
0.014593
0.014593
0.014593
0.014593
0.014593
0.014593
0.014593
0.014593
0.014593
0.014593
0.014593
0.014593
0.014593
0.014593
0.014593
0.014593
0.014593
0.014593
0.014593
0.014593
0.014593
0.014593
0.014593
0.014593
0.014593
0.014593
0.014593
0.014593
0.014593
0.014593
0.014593
0.014593
0.014593
0.014593
0.014593
0.014593
0.014593
0.014593
0.014593
0.014593
0.014593
0.014593
0.014593
0.014593
0.014593
0.014593
0.014593
0.014593
0.014593
0.014593
0.014593
0.014593
0.014593
0.014593
0.014593
0.014593
0.014593
0.014593
0.014593
0.014593
0.014593
0.014593
0.014593
0.014593
0.014593
0.014593
0.014593
0.014593
0.014593
0.014593
0.014593
0.014593
0.014593
0.014593
0.014593
0.014593
0.014593
0.014593
0.014593
0.014593
0.014593
0.014593
0.014593
0.014593
0.014593
0.014593
0.014593
0.014593
0.014593
0.014593
0.014593
0.014593
0.014593
0.014593
0.014593
0.014593
0.014593
0.014593
0.014593
0.014593
0.014593
0.014593
0.014593
0.014593
0.014593
0.014593
0.014593
0.014593
0.014593
0.014593
0.014593
0.014593
0.014593
0.014593
0.014593
0.014593
0.014593
0.014593
0.014593
0.014593
0.014593
0.014593
0.014593
0.014593
0.014593
0.014593
0.014593
0.014593
0.014593
0.014593
0.014593
0.014593
0.014593
0.014593
0.014593
0.014593
0.014593
0.014593
0.014593
0.014593
0.014593
0.014593
0.014593
0.014593
0.014593
0.014593
0.014593
0.014593
0.014593
0.014593
0.014593
0.014593
0.014593
0.014593
0.014593
0.014593
0.014593
0.014593
0.014593
0.014593
0.014593
0.014593
0.014593
0.014593
0.014593
0.014593
0.014593
0.014593
0.014593
0.014593
0.014593
0.014593
0.014593
0.014593
0.014593
0.014593
0.014593
0.014593
0.014593
0.014593
0.014593
0.014593
0.014593
0.014593
0.014593
0.014593
0.014593
0.014593
0.014593
0.014593
0.014593
0.014593
0.014593
0.014593
0.014593
0.014593
0.014593
0.014593
0.014593
0.014593
0.014593
0.014593
0.014593
0.014593
0.014593
0.014593
0.014593
0.014593
0.014593
0.014593
0.014593
0.014593
0.014593
0.014593
0.014593
0.014593
0.014593
0.014593
0.014593
0.014593
0.014593
0.014593
0.014593
0.014593
0.014593
0.014593
0.014593
0.014593
0.014593
0.014593
0.014593
0.014593
0.014593
0.014593
0.014593
0.014593
0.014593
0.014593
0.014593
0.014593
0.014593
0.014593
0.014593
0.014593
0.014593
0.014593
0.014593
0.014593
0.014593
0.014593
0.014593
0.014593
0.014593
0.014593
0.014593
0.014593
0.014593
0.014593
0.014593
0.014593
0.014593
0.014593
0.014593
0.014593
0.014593
0.014593
0.014593
0.014593
0.014593
0.014593
0.014593
0.014593
0.014593
0.014593
0.014593
0.014593
0.014593
0.014593
0.014593
0.014593
0.014593
0.014593
0.014593
0.014593
0.014593
0.014593
0.014593
0.014593
0.014593
0.014593
0.014593
0.014593
0.014593
0.014593
0.014593
0.014593
0.014593
0.014593
0.014593
0.014593
0.014593
0.014593
0.014593
0.014593
0.014593
0.014593
0.014593
0.014593
0.014593
0.014593
0.014593
0.014593
0.014593
0.014593
0.014593
0.014593
0.014593
0.014593
0.014593
0.014593
0.014593
0.014593
0.014593
0.014593
0.014593
0.014593
0.014593
0.014593
0.014593
0.014593
0.014593
0.014593
0.014593
0.014593
0.014593
0.014593
0.014593
0.014593
0.014593
0.014593
0.014593
0.014593
0.014593
0.014593
0.014593
0.014593
0.014593
0.014593
0.014593
0.014593
0.014593
0.014593
0.014593
0.014593
0.014593
0.014593
0.014593
0.014593
0.014593
0.014593
0.014593
0.014593
0.014593
0.014593
0.014593
0.014593
0.014593
0.014593
0.014593
0.014593
0.014593
0.014593
0.014593
0.014593
0.014593
0.014593
0.014593
0.014593
0.014593
0.014593
0.014593
0.014593
0.014593
0.014593
0.014593
0.014593
0.014593
0.014593
0.014593
0.014593
0.014593
0.014593
0.014593
0.014593
0.014593
0.014593
0.014593
0.014593
0.014593
0.014593
0.014593
0.014593
0.014593
0.014593
0.014593
0.014593
0.014593
0.014593
0.014593
0.014593
0.014593
0.014593
0.014593
0.014593
0.014593
0.014593
0.014593
0.014593
0.014593
0.014593
0.014593
0.014593
0.014593
0.014593
0.014593
0.014593
0.014593
0.014593
0.014593
0.014593
0.014593
0.014593
0.014593
0.014593
0.014593
0.014593
0.014593
0.014593
0.014593
0.014593
0.014593
0.014593
0.014593
0.014593
0.014593
0.014593
0.014593
0.014593
0.014593
0.014593
0.014593
0.014593
0.014593
0.014593
0.014593
0.014593
0.014593
0.014593
0.014593
0.014593
0.014593
0.014593
0.014593
0.014593
0.014593
0.014593
0.014593
0.014593
0.014593
0.014593
0.014593
0.014593
0.014593
0.014593
0.014593
0.014593
0.014593
0.014593
0.014593
0.014593
0.014593
0.014593
0.014593
0.014593
0.014593
0.014593
0.014593
0.014593
0.014593
0.014593
0.014593
0.014593
0.014593
0.014593
0.014593
0.014593
0.014593
0.014593
0.014593
0.014593
0.014593
0.014593
0.014593
0.014593
0.014593
0.014593
0.014593
0.014593
0.014593
0.014593
0.014593
0.014593
0.014593
0.014593
0.014593
0.014593
0.014593
0.014593
0.014593
0.014593
0.014593
0.014593
0.014593
0.014593
0.014593
0.014593
0.014593
0.014593
0.014593
0.014593
0.014593
0.014593
0.014593
0.014593
0.014593
0.014593
0.014593
0.014593
0.014593
0.014593
0.014593
0.014593
0.014593
0.014593
0.014593
0.014593
0.014593
0.014593
0.014593
0.014593
0.014593
0.014593
0.014593
0.014593
0.014593
0.014593
0.014593
0.014593
0.014593
0.014593
0.014593
0.014593
0.014593
0.014593
0.014593
0.014593
0.014593
0.014593
0.014593
0.014593
0.014593
0.014593
0.014593
0.014593
0.014593
0.014593
0.014593
0.014593
0.014593
0.014593
0.014593
0.014593
0.014593
0.014593
0.014593
0.014593
0.014593
0.014593
0.014593
0.014593
0.014593
0.014593
0.014593
0.014593
0.014593
0.014593
0.014593
0.014593
0.014593
0.014593
0.014593
0.014593
0.014593
0.014593
0.014593
0.014593
0.014593
0.014593
0.014593
0.014593
0.014593
0.014593
0.014593
0.014593
0.014593
0.014593
0.014593
0.014593
0.014593
0.014593
0.014593
0.014593
0.014593
0.014593
0.014593
0.014593
0.014593
0.014593
0.014593
0.014593
0.014593
0.014593
0.014593
0.014593
0.014593
0.014593
0.014593
0.014593
0.014593
0.014593
0.014593
0.014593
0.014593
0.014593
0.014593
0.014593
0.014593
0.014593
0.014593
0.014593
0.014593
0.014593
0.014593
0.014593
0.014593
0.014593
0.014593
0.014593
0.014593
0.014593
0.014593
0.014593
0.014593
0.014593
0.014593
0.014593
0.014593
0.014593
0.014593
0.014593
0.014593
0.014593
0.014593
0.014593
0.014593
0.014593
0.014593
0.014593
0.014593
0.014593
0.014593
0.014593
0.014593
0.014593
0.014593
0.014593
0.014593
0.014593
0.014593
0.014593
0.014593
0.014593
0.014593
0.014593
0.014593
0.014593
0.014593
0.014593
0.014593
0.014593
0.014593
0.014593
0.014593
0.014593
0.014593
0.014593
0.014593
0.014593
0.014593
0.014593
0.014593
0.014593
0.014593
0.014593
0.014593
0.014593
0.014593
0.014593
0.014593
0.014593
0.014593
0.014593
0.014593
0.014593
0.014593
0.014593
0.014593
0.014593
0.014593
0.014593
0.014593
0.014593
0.014593
0.014593
0.014593
0.014593
0.014593
0.014593
0.014593
0.014593
0.014593
0.014593
0.014593
0.014593
0.014593
0.014593
0.014593
0.014593
0.014593
0.014593
0.014593
0.014593
0.014593
0.014593
0.014593
0.014593
0.014593
0.014593
0.014593
0.014593
0.014593
0.014593
0.014593
0.014593
0.014593
0.014593
0.014593
0.014593
0.014593
0.014593
0.014593
0.014593
0.014593
0.014593
0.014593
0.014593
0.014593
0.014593
0.014593
0.014593
0.014593
0.014593
0.014593
0.014593
0.014593
0.014593
0.014593
0.014593
0.014593
0.014593
0.014593
0.014593
0.014593
0.014593
0.014593
0.014593
0.014593
0.014593
0.014593
0.014593
0.014593
0.014593
0.014593
0.014593
0.014593
0.014593
0.014593
0.014593
0.014593
0.014593
0.014593
0.014593
0.014593
0.014593
0.014593
0.014593
0.014593
0.014593
0.0145931
0.014593
0.014593
0.014593
0.014593
0.014593
0.014593
0.014593
0.014593
0.014593
0.014593
0.014593
0.014593
0.014593
0.014593
0.014593
0.014593
0.014593
0.014593
0.014593
0.014593
0.014593
0.014593
0.014593
0.014593
0.014593
0.014593
0.014593
0.014593
0.014593
0.014593
0.014593
0.014593
0.014593
0.014593
0.014593
0.014593
0.014593
0.014593
0.014593
0.014593
0.014593
0.014593
0.014593
0.014593
0.014593
0.014593
0.014593
0.014593
0.0145931
0.0145932
0.014593
0.014593
0.014593
0.014593
0.014593
0.014593
0.014593
0.014593
0.014593
0.014593
0.014593
0.014593
0.014593
0.014593
0.014593
0.014593
0.014593
0.014593
0.014593
0.014593
0.014593
0.014593
0.014593
0.014593
0.014593
0.014593
0.014593
0.014593
0.014593
0.014593
0.014593
0.014593
0.014593
0.014593
0.014593
0.014593
0.014593
0.014593
0.014593
0.014593
0.014593
0.014593
0.014593
0.014593
0.014593
0.014593
0.0145931
0.0145931
0.0145933
0.0145936
0.014593
0.014593
0.014593
0.014593
0.014593
0.014593
0.014593
0.014593
0.014593
0.014593
0.014593
0.014593
0.014593
0.014593
0.014593
0.014593
0.014593
0.014593
0.014593
0.014593
0.014593
0.014593
0.014593
0.014593
0.014593
0.014593
0.014593
0.014593
0.014593
0.014593
0.014593
0.014593
0.014593
0.014593
0.014593
0.014593
0.014593
0.014593
0.014593
0.014593
0.014593
0.014593
0.014593
0.014593
0.0145931
0.0145931
0.0145932
0.0145935
0.014594
0.0145951
0.014593
0.014593
0.014593
0.014593
0.014593
0.014593
0.014593
0.014593
0.014593
0.014593
0.014593
0.014593
0.014593
0.014593
0.014593
0.014593
0.014593
0.014593
0.014593
0.014593
0.014593
0.014593
0.014593
0.014593
0.014593
0.014593
0.014593
0.014593
0.014593
0.014593
0.014593
0.014593
0.014593
0.014593
0.014593
0.014593
0.014593
0.014593
0.014593
0.014593
0.014593
0.014593
0.014593
0.0145931
0.0145932
0.0145934
0.0145938
0.0145946
0.0145964
0.0146002
0.014593
0.014593
0.014593
0.014593
0.014593
0.014593
0.014593
0.014593
0.014593
0.014593
0.014593
0.014593
0.014593
0.014593
0.014593
0.014593
0.014593
0.014593
0.014593
0.014593
0.014593
0.014593
0.014593
0.014593
0.014593
0.014593
0.014593
0.014593
0.014593
0.014593
0.014593
0.014593
0.014593
0.014593
0.014593
0.014593
0.014593
0.014593
0.014593
0.014593
0.014593
0.0145931
0.0145932
0.0145933
0.0145936
0.0145943
0.0145957
0.0145985
0.0146045
0.0146172
0.014593
0.014593
0.014593
0.014593
0.014593
0.014593
0.014593
0.014593
0.014593
0.014593
0.014593
0.014593
0.014593
0.014593
0.014593
0.014593
0.014593
0.014593
0.014593
0.014593
0.014593
0.014593
0.014593
0.014593
0.014593
0.014593
0.014593
0.014593
0.014593
0.014593
0.014593
0.014593
0.014593
0.014593
0.014593
0.014593
0.014593
0.014593
0.014593
0.0145931
0.0145931
0.0145932
0.0145935
0.014594
0.0145951
0.0145972
0.0146018
0.0146112
0.0146309
0.0146725
0.014593
0.014593
0.014593
0.014593
0.014593
0.014593
0.014593
0.014593
0.014593
0.014593
0.014593
0.014593
0.014593
0.014593
0.014593
0.014593
0.014593
0.014593
0.014593
0.014593
0.014593
0.014593
0.014593
0.014593
0.014593
0.014593
0.014593
0.014593
0.014593
0.014593
0.014593
0.014593
0.014593
0.014593
0.014593
0.014593
0.014593
0.014593
0.0145931
0.0145932
0.0145934
0.0145938
0.0145946
0.0145963
0.0145997
0.0146069
0.0146217
0.0146523
0.0147159
0.0148484
0.014593
0.014593
0.014593
0.014593
0.014593
0.014593
0.014593
0.014593
0.014593
0.014593
0.014593
0.014593
0.014593
0.014593
0.014593
0.014593
0.014593
0.014593
0.014593
0.014593
0.014593
0.014593
0.014593
0.014593
0.014593
0.014593
0.014593
0.014593
0.014593
0.014593
0.014593
0.014593
0.014593
0.014593
0.014593
0.014593
0.0145931
0.0145931
0.0145933
0.0145936
0.0145942
0.0145955
0.0145981
0.0146035
0.0146146
0.0146376
0.0146849
0.0147821
0.0149807
0.0153819
0.014593
0.014593
0.014593
0.014593
0.014593
0.014593
0.014593
0.014593
0.014593
0.014593
0.014593
0.014593
0.014593
0.014593
0.014593
0.014593
0.014593
0.014593
0.014593
0.014593
0.014593
0.014593
0.014593
0.014593
0.014593
0.014593
0.014593
0.014593
0.014593
0.014593
0.014593
0.014593
0.014593
0.014593
0.0145931
0.0145931
0.0145932
0.0145935
0.0145939
0.0145949
0.0145968
0.0146009
0.0146092
0.0146263
0.0146615
0.0147336
0.0148806
0.0151763
0.0157571
0.0168474
0.014593
0.014593
0.014593
0.014593
0.014593
0.014593
0.014593
0.014593
0.014593
0.014593
0.014593
0.014593
0.014593
0.014593
0.014593
0.014593
0.014593
0.014593
0.014593
0.014593
0.014593
0.014593
0.014593
0.014593
0.014593
0.014593
0.014593
0.014593
0.014593
0.014593
0.014593
0.014593
0.014593
0.0145931
0.0145932
0.0145933
0.0145937
0.0145944
0.0145959
0.0145989
0.014605
0.0146177
0.0146437
0.0146969
0.0148054
0.0150244
0.0154576
0.0162829
0.0177606
0.0201742
0.014593
0.014593
0.014593
0.014593
0.014593
0.014593
0.014593
0.014593
0.014593
0.014593
0.014593
0.014593
0.014593
0.014593
0.014593
0.014593
0.014593
0.014593
0.014593
0.014593
0.014593
0.014593
0.014593
0.014593
0.014593
0.014593
0.014593
0.014593
0.014593
0.014593
0.014593
0.014593
0.0145931
0.0145931
0.0145933
0.0145935
0.0145941
0.0145951
0.0145974
0.0146019
0.0146112
0.0146303
0.0146692
0.0147487
0.0149095
0.0152301
0.0158508
0.0169922
0.0189299
0.0218937
0.0259275
0.014593
0.014593
0.014593
0.014593
0.014593
0.014593
0.014593
0.014593
0.014593
0.014593
0.014593
0.014593
0.014593
0.014593
0.014593
0.014593
0.014593
0.014593
0.014593
0.014593
0.014593
0.014593
0.014593
0.014593
0.014593
0.014593
0.014593
0.014593
0.014593
0.014593
0.0145931
0.0145931
0.0145932
0.0145934
0.0145938
0.0145946
0.0145962
0.0145995
0.0146063
0.0146202
0.0146485
0.0147062
0.0148232
0.0150578
0.0155179
0.0163849
0.0179127
0.0203614
0.0238651
0.0283414
0.0335192
0.014593
0.014593
0.014593
0.014593
0.014593
0.014593
0.014593
0.014593
0.014593
0.014593
0.014593
0.014593
0.014593
0.014593
0.014593
0.014593
0.014593
0.014593
0.014593
0.014593
0.014593
0.014593
0.014593
0.014593
0.014593
0.014593
0.014593
0.014593
0.014593
0.014593
0.0145931
0.0145931
0.0145933
0.0145936
0.0145942
0.0145954
0.0145978
0.0146027
0.0146127
0.0146332
0.0146747
0.0147591
0.0149288
0.0152651
0.015911
0.0170873
0.0190612
0.0220392
0.0260396
0.030866
0.0362024
0.0417137
0.014593
0.014593
0.014593
0.014593
0.014593
0.014593
0.014593
0.014593
0.014593
0.014593
0.014593
0.014593
0.014593
0.014593
0.014593
0.014593
0.014593
0.014593
0.014593
0.014593
0.014593
0.014593
0.014593
0.014593
0.014593
0.014593
0.014593
0.014593
0.0145931
0.0145931
0.0145932
0.0145934
0.0145938
0.0145947
0.0145965
0.0146
0.0146072
0.0146219
0.0146516
0.0147119
0.0148335
0.015076
0.0155488
0.0164331
0.0179796
0.0204382
0.023929
0.0283546
0.0334408
0.0388517
0.0442678
0.0494191
0.014593
0.014593
0.014593
0.014593
0.014593
0.014593
0.014593
0.014593
0.014593
0.014593
0.014593
0.014593
0.014593
0.014593
0.014593
0.014593
0.014593
0.014593
0.014593
0.014593
0.014593
0.014593
0.014593
0.014593
0.014593
0.014593
0.014593
0.0145931
0.0145932
0.0145933
0.0145936
0.0145942
0.0145955
0.014598
0.0146032
0.0146136
0.0146348
0.0146776
0.0147639
0.0149368
0.0152774
0.0159281
0.0171063
0.019073
0.0220273
0.0259841
0.0307491
0.0360069
0.0414258
0.0467057
0.0515882
0.055884
0.014593
0.014593
0.014593
0.014593
0.014593
0.014593
0.014593
0.014593
0.014593
0.014593
0.014593
0.014593
0.014593
0.014593
0.014593
0.014593
0.014593
0.014593
0.014593
0.014593
0.014593
0.014593
0.014593
0.014593
0.014593
0.0145931
0.0145931
0.0145932
0.0145934
0.0145939
0.0145948
0.0145966
0.0146003
0.0146076
0.0146226
0.0146527
0.0147136
0.0148356
0.0150777
0.0155475
0.0164223
0.0179469
0.0203655
0.0237976
0.0281532
0.0331694
0.0385189
0.043888
0.0489971
0.053613
0.0575323
0.0605816
0.014593
0.014593
0.014593
0.014593
0.014593
0.014593
0.014593
0.014593
0.014593
0.014593
0.014593
0.014593
0.014593
0.014593
0.014593
0.014593
0.014593
0.014593
0.014593
0.014593
0.014593
0.014593
0.014593
0.014593
0.0145931
0.0145932
0.0145933
0.0145936
0.0145943
0.0145956
0.0145981
0.0146033
0.0146138
0.0146349
0.0146775
0.0147628
0.014933
0.0152667
0.0159017
0.0170488
0.0189626
0.0218415
0.0257091
0.0303862
0.0355717
0.0409453
0.0462147
0.0511242
0.0554606
0.0590297
0.061664
0.0633678
0.014593
0.014593
0.014593
0.014593
0.014593
0.014593
0.014593
0.014593
0.014593
0.014593
0.014593
0.014593
0.014593
0.014593
0.014593
0.014593
0.014593
0.014593
0.014593
0.014593
0.014593
0.014593
0.0145931
0.0145931
0.0145932
0.0145935
0.0145939
0.0145948
0.0145966
0.0146003
0.0146076
0.0146223
0.0146518
0.0147111
0.0148294
0.0150632
0.0155152
0.0163554
0.0178199
0.0201502
0.0234738
0.027718
0.0326386
0.0379218
0.0432638
0.0483946
0.05308
0.0571257
0.0603433
0.0626141
0.063996
0.0647305
0.014593
0.014593
0.014593
0.014593
0.014593
0.014593
0.014593
0.014593
0.014593
0.014593
0.014593
0.014593
0.014593
0.014593
0.014593
0.014593
0.014593
0.014593
0.014593
0.014593
0.014593
0.0145931
0.0145932
0.0145933
0.0145936
0.0145943
0.0145955
0.0145981
0.0146032
0.0146133
0.0146337
0.0146746
0.0147562
0.0149181
0.0152346
0.0158356
0.0169219
0.018741
0.0214959
0.0252282
0.0297817
0.0348736
0.040194
0.04546
0.0504222
0.0548668
0.0586117
0.0614845
0.0634199
0.0645417
0.0651092
0.0653874
0.014593
0.014593
0.014593
0.014593
0.014593
0.014593
0.014593
0.014593
0.014593
0.014593
0.014593
0.014593
0.014593
0.014593
0.014593
0.014593
0.014593
0.014593
0.0145931
0.0145931
0.0145932
0.0145935
0.0145939
0.0145948
0.0145965
0.0146
0.014607
0.014621
0.014649
0.0147049
0.014816
0.0150345
0.015456
0.0162396
0.0176107
0.019809
0.0229767
0.0270677
0.0318624
0.0370616
0.04237
0.047525
0.0522964
0.0564887
0.0599282
0.0624688
0.0641042
0.0650091
0.0654524
0.065671
0.0657729
0.014593
0.014593
0.014593
0.014593
0.014593
0.014593
0.014593
0.014593
0.014593
0.014593
0.014593
0.014593
0.014593
0.014593
0.014593
0.014593
0.014593
0.0145931
0.0145932
0.0145933
0.0145936
0.0145942
0.0145955
0.0145979
0.0146027
0.0146122
0.0146313
0.0146693
0.0147448
0.014894
0.0151848
0.0157368
0.0167375
0.0184258
0.0210123
0.0245642
0.0289563
0.0339281
0.0391807
0.0444374
0.0494547
0.0540195
0.0579522
0.0610878
0.0633157
0.0646873
0.0654148
0.0657646
0.0659378
0.0660129
0.0660725
0.014593
0.014593
0.014593
0.014593
0.014593
0.014593
0.014593
0.014593
0.014593
0.014593
0.014593
0.014593
0.014593
0.014593
0.014593
0.0145931
0.0145931
0.0145932
0.0145934
0.0145939
0.0145947
0.0145963
0.0145996
0.0146061
0.014619
0.0146447
0.0146958
0.0147967
0.0149946
0.0153758
0.0160859
0.0173364
0.0193648
0.0223324
0.0262274
0.0308615
0.0359534
0.0412149
0.0463886
0.0512481
0.0555959
0.0592659
0.0621045
0.0640442
0.0651882
0.0657731
0.0660514
0.0661897
0.0662486
0.066304
0.0663537
0.014593
0.014593
0.014593
0.014593
0.014593
0.014593
0.014593
0.014593
0.014593
0.014593
0.014593
0.014593
0.014593
0.0145931
0.0145932
0.0145933
0.0145936
0.0145942
0.0145953
0.0145975
0.0146019
0.0146106
0.0146279
0.0146622
0.01473
0.0148633
0.0151224
0.0156145
0.016511
0.0180397
0.0204186
0.0237462
0.027936
0.0327556
0.037919
0.0431533
0.0482197
0.0529069
0.0570321
0.0604395
0.0629932
0.0646723
0.0656233
0.0660945
0.0663194
0.066427
0.0664778
0.0665298
0.0665752
0.0666226
0.014593
0.014593
0.014593
0.014593
0.014593
0.014593
0.014593
0.014593
0.014593
0.014593
0.014593
0.0145931
0.0145931
0.0145932
0.0145934
0.0145938
0.0145946
0.0145961
0.0145991
0.0146049
0.0146165
0.0146394
0.0146846
0.0147737
0.0149476
0.0152823
0.0159074
0.0170178
0.0188457
0.021573
0.0252283
0.0296623
0.0346166
0.0398105
0.0449891
0.0499297
0.0544349
0.0583352
0.0614836
0.0637691
0.0652165
0.066006
0.0663876
0.0665715
0.0666531
0.0667022
0.0667509
0.0667944
0.0668392
0.0668902
0.014593
0.014593
0.014593
0.014593
0.014593
0.014593
0.014593
0.014593
0.014593
0.0145931
0.0145931
0.0145932
0.0145933
0.0145936
0.0145941
0.0145951
0.0145971
0.0146011
0.0146088
0.0146241
0.0146541
0.0147132
0.0148289
0.0150532
0.0154794
0.0162605
0.0176092
0.0197484
0.02281
0.0267537
0.0313826
0.036427
0.0416182
0.0467186
0.0515198
0.0558373
0.0595131
0.0624101
0.064447
0.0656913
0.066347
0.0666584
0.0668102
0.0668737
0.0669228
0.0669667
0.0670087
0.0670525
0.0671024
0.0671624
0.014593
0.014593
0.014593
0.014593
0.014593
0.014593
0.014593
0.0145931
0.0145931
0.0145931
0.0145932
0.0145934
0.0145938
0.0145945
0.0145959
0.0145985
0.0146037
0.0146139
0.0146338
0.0146729
0.0147494
0.0148982
0.0151839
0.0157192
0.0166788
0.0182853
0.0207379
0.0241099
0.0282994
0.0330775
0.0381744
0.043336
0.0483409
0.0529934
0.0571203
0.0605747
0.0632309
0.0650409
0.0661092
0.0666552
0.0669116
0.0670372
0.0670887
0.0671356
0.0671768
0.0672177
0.0672614
0.0673116
0.0673707
0.0674414
0.0145931
0.0145931
0.0145931
0.0145931
0.0145931
0.0145931
0.0145932
0.0145932
0.0145933
0.0145934
0.0145937
0.0145942
0.0145951
0.0145969
0.0146005
0.0146073
0.0146206
0.0146465
0.014697
0.0147951
0.0149846
0.0153444
0.0160071
0.0171662
0.0190435
0.021802
0.0254536
0.0298461
0.0347326
0.0398502
0.0449608
0.0498571
0.0543548
0.0582912
0.0615294
0.0639581
0.0655634
0.0664808
0.0669373
0.0671507
0.0672541
0.0672977
0.067342
0.0673817
0.067422
0.0674659
0.0675165
0.067576
0.0676458
0.0677277
0.0145937
0.0145936
0.0145936
0.0145936
0.0145936
0.0145936
0.0145936
0.0145937
0.0145939
0.0145943
0.0145949
0.0145962
0.0145987
0.0146034
0.0146124
0.0146298
0.0146634
0.0147283
0.0148534
0.0150926
0.0155406
0.0163496
0.0177264
0.0198805
0.0229287
0.0268247
0.0313789
0.0363379
0.0414499
0.0464921
0.0512702
0.0556098
0.0593577
0.062387
0.0646032
0.0660258
0.066815
0.0671987
0.0673784
0.0674624
0.0675018
0.0675442
0.0675825
0.0676222
0.0676662
0.0677172
0.0677772
0.067847
0.0679277
0.0680211
0.0145959
0.0145958
0.0145957
0.0145955
0.0145955
0.0145954
0.0145955
0.0145957
0.0145962
0.0145971
0.0145989
0.0146023
0.0146086
0.0146206
0.0146435
0.0146871
0.0147706
0.0149296
0.0152295
0.0157818
0.0167564
0.0183653
0.0207944
0.0241089
0.0282117
0.0328888
0.0378885
0.0429725
0.0479325
0.0525851
0.0567651
0.0603283
0.0631573
0.0651772
0.0664384
0.0671191
0.0674437
0.0675967
0.0676641
0.0677023
0.0677425
0.0677794
0.0678185
0.0678624
0.0679138
0.0679741
0.0680442
0.0681247
0.0682166
0.0683217
0.0146052
0.0146045
0.014604
0.0146035
0.0146032
0.0146032
0.0146036
0.0146047
0.0146071
0.0146117
0.0146204
0.0146368
0.0146674
0.0147248
0.0148327
0.0150352
0.01541
0.0160853
0.0172447
0.0190959
0.0217904
0.0253415
0.0296117
0.0343745
0.0393858
0.0444221
0.0492877
0.053809
0.057829
0.0612123
0.0638507
0.0656908
0.0668103
0.0673995
0.0676761
0.0678074
0.0678614
0.0678998
0.0679369
0.0679728
0.0680112
0.0680551
0.0681066
0.0681671
0.0682373
0.0683177
0.0684091
0.0685124
0.0686294
0.014645
0.0146422
0.0146395
0.0146371
0.0146352
0.0146342
0.0146345
0.0146369
0.0146427
0.0146546
0.0146771
0.0147189
0.014796
0.0149377
0.0151974
0.0156663
0.0164873
0.0178506
0.019948
0.0228893
0.02664
0.031035
0.0358457
0.04084
0.0458087
0.0505679
0.0549522
0.0588122
0.0620203
0.0644782
0.0661546
0.0671501
0.067662
0.0678995
0.0680128
0.0680573
0.0680947
0.0681287
0.0681634
0.0682013
0.068245
0.0682965
0.0683569
0.0684269
0.068507
0.0685979
0.0687004
0.0688152
0.0689442
0.0148097
0.0147972
0.0147851
0.014774
0.0147646
0.0147578
0.0147553
0.0147587
0.0147719
0.0148012
0.0148582
0.014963
0.0151523
0.0154893
0.0160777
0.01707
0.0186525
0.0209889
0.024144
0.0280455
0.0325145
0.0373298
0.0422743
0.0471525
0.0517906
0.0560304
0.0597288
0.0627656
0.0650526
0.0665798
0.0674665
0.067913
0.068118
0.0682159
0.0682528
0.0682876
0.0683196
0.0683531
0.0683903
0.0684336
0.0684847
0.0685447
0.0686141
0.0686936
0.0687837
0.0688852
0.0689987
0.0691251
0.0692661
0.0154011
0.0153515
0.0153049
0.0152635
0.0152303
0.0152093
0.0152071
0.0152308
0.0152971
0.0154323
0.0156806
0.0161145
0.0168457
0.0180259
0.0198229
0.0223627
0.0256694
0.0296481
0.0341217
0.0388838
0.0437342
0.0484899
0.0529854
0.0570679
0.0605995
0.063466
0.0655897
0.0669798
0.06777
0.0681601
0.0683374
0.0684215
0.0684522
0.0684839
0.0685133
0.0685452
0.0685813
0.0686237
0.0686738
0.0687327
0.068801
0.0688792
0.0689681
0.0690682
0.0691801
0.0693045
0.0694422
0.0695949
0.0174687
0.0172996
0.0171369
0.0169869
0.0168577
0.0167605
0.0167126
0.0167314
0.0168499
0.0171221
0.0176258
0.0184703
0.0197919
0.0217262
0.0243608
0.0276928
0.0316243
0.0359932
0.0406138
0.0453019
0.0498848
0.0542022
0.0581042
0.0614559
0.0641478
0.0661114
0.0673725
0.0680749
0.0684146
0.0685666
0.0686376
0.0686636
0.0686906
0.0687163
0.0687453
0.0687795
0.06882
0.0688682
0.068925
0.0689912
0.0690673
0.069154
0.0692518
0.0693613
0.0694833
0.0696182
0.0697669
0.0699307
0.0224339
0.0220299
0.0216425
0.0212896
0.0209949
0.0207912
0.0207267
0.0208412
0.0212243
0.0219775
0.0232138
0.0250372
0.0275093
0.0306209
0.0342879
0.0383716
0.0427063
0.0471206
0.0514469
0.0555252
0.0592044
0.0623492
0.0648518
0.0666508
0.0677851
0.0684036
0.0686948
0.0688213
0.068878
0.0688978
0.0689184