/*--------------------------------*- C++ -*----------------------------------*\
| =========                 |                                                 |
| \\      /  F ield         | OpenFOAM: The Open Source CFD Toolbox           |
|  \\    /   O peration     | Version:  v1706                                 |
|   \\  /    A nd           | Web:      www.OpenFOAM.com                      |
|    \\/     M anipulation  |                                                 |
\*---------------------------------------------------------------------------*/
FoamFile
{
    version     2.0;
    format      ascii;
    class       volScalarField;
    location    "5e-06";
    object      Mach;
}
// * * * * * * * * * * * * * * * * * * * * * * * * * * * * * * * * * * * * * //

dimensions      [0 0 0 0 0 0 0];


internalField   nonuniform List<scalar> 
30038
(
11.2859
11.2859
11.2859
11.2859
11.2859
11.2859
11.2859
11.2859
11.2859
11.2859
11.2859
11.2859
11.2859
11.2859
11.2859
11.2859
11.2859
11.2859
11.2859
11.2859
11.2859
11.2859
11.2859
11.2859
11.2859
11.2859
11.2859
11.2859
11.2859
11.2859
11.2859
11.2859
11.2859
11.2859
11.2859
11.2859
11.2859
11.2859
11.2859
11.2859
11.2859
11.2859
11.2859
11.2859
11.2859
11.2859
11.2859
11.2859
11.2859
11.2859
11.2859
11.2859
11.2859
11.2859
11.2859
11.2859
11.2859
11.2859
11.2859
11.2859
11.2859
11.2859
11.2859
11.2859
11.2859
11.2859
11.2859
11.2859
11.2859
11.2859
11.2859
11.2859
11.2859
11.2859
11.2859
11.2859
11.2859
11.2859
11.2859
11.2859
11.2859
11.2859
11.2859
11.2859
11.2859
11.2859
11.2859
11.2859
11.2859
11.2859
11.2859
11.2859
11.2859
11.2859
11.2859
11.2859
11.2859
11.2859
11.2859
11.2859
11.2859
11.2859
11.2859
11.2859
11.2859
11.2859
11.2859
11.2859
11.2859
11.2859
11.2859
11.2859
11.2859
11.2859
11.2859
11.2859
11.2859
11.2859
11.2859
11.2859
11.2859
11.2859
11.2859
11.2859
11.2859
11.2859
11.2859
11.2859
11.2859
11.2859
11.2859
11.2859
11.2859
11.2859
11.2859
11.2859
11.2859
11.2859
11.2859
11.2859
11.2859
11.2859
11.2859
11.2859
11.2859
11.2859
11.2859
11.2859
11.2859
11.2859
11.2859
11.2859
11.2859
11.2859
11.2859
11.2859
11.2859
11.2859
11.2859
11.2859
11.2859
11.2859
11.2859
11.2859
11.2859
11.2859
11.2859
11.2859
11.2859
11.2859
11.2859
11.2859
11.2859
11.2859
11.2859
11.2859
11.2859
11.2859
11.2859
11.2859
11.2859
11.2859
11.2859
11.2859
11.2859
11.2859
11.2859
11.2859
11.2859
11.2859
11.2859
11.2859
11.2859
11.2859
11.2859
11.2859
11.2859
11.2859
11.2859
11.2859
11.2859
11.2859
11.2859
11.2859
11.2859
11.2859
11.2859
11.2859
11.2859
11.2859
11.2859
11.2859
11.2859
11.2859
11.2859
11.2859
11.2859
11.2859
11.2859
11.2859
11.2859
11.2859
11.2859
11.2859
11.2859
11.2859
11.2859
11.2859
11.2859
11.2859
11.2859
11.2859
11.2859
11.2859
11.2859
11.2859
11.2859
11.2859
11.2859
11.2859
11.2859
11.2859
11.2859
11.2859
11.2859
11.2859
11.2859
11.2859
11.2859
11.2859
11.2859
11.2859
11.2859
11.2859
11.2859
11.2859
11.2859
11.2859
11.2859
11.2859
11.2859
11.2859
11.2859
11.2859
11.2859
11.2859
11.2859
11.2859
11.2859
11.2859
11.2859
11.2859
11.2859
11.2859
11.2859
11.2859
11.2859
11.2859
11.2859
11.2859
11.2859
11.2859
11.2859
11.2859
11.2859
11.2859
11.2859
11.2859
11.2859
11.2859
11.2859
11.2859
11.2859
11.2859
11.2859
11.2859
11.2859
11.2859
11.2859
11.2859
11.2859
11.2859
11.2859
11.2859
11.2859
11.2859
11.2859
11.2859
11.2859
11.2859
11.2859
11.2859
11.2859
11.2859
11.2859
11.2859
11.2859
11.2859
11.2859
11.2859
11.2859
11.2859
11.2859
11.2859
11.2859
11.2859
11.2859
11.2859
11.2859
11.2859
11.2859
11.2859
11.2859
11.2859
11.2859
11.2859
11.2859
11.2859
11.2859
11.2859
11.2859
11.2859
11.2859
11.2859
11.2859
11.2859
11.2859
11.2859
11.2859
11.2859
11.2859
11.2859
11.2859
11.2859
11.2859
11.2859
11.2859
11.2859
11.2859
11.2859
11.2859
11.2859
11.2859
11.2859
11.2859
11.2859
11.2859
11.2859
11.2859
11.2859
11.2859
11.2859
11.2859
11.2859
11.2859
11.2859
11.2859
11.2859
11.2859
11.2859
11.2859
11.2859
11.2859
11.2859
11.2859
11.2859
11.2859
11.2859
11.2859
11.2859
11.2859
11.2859
11.2859
11.2859
11.2859
11.2859
11.2859
11.2859
11.2859
11.2859
11.2859
11.2859
11.2859
11.2859
11.2859
11.2859
11.2859
11.2859
11.2859
11.2859
11.2859
11.2859
11.2859
11.2859
11.2859
11.2859
11.2859
11.2859
11.2859
11.2859
11.2859
11.2859
11.2859
11.2859
11.2859
11.2859
11.2859
11.2859
11.2859
11.2859
11.2859
11.2859
11.2859
11.2859
11.2859
11.2859
11.2859
11.2859
11.2859
11.2859
11.2859
11.2859
11.2859
11.2859
11.2859
11.2859
11.2859
11.2859
11.2859
11.2859
11.2859
11.2859
11.2859
11.2859
11.2859
11.2859
11.2859
11.2859
11.2859
11.2859
11.2859
11.2859
11.2859
11.2859
11.2859
11.2859
11.2859
11.2859
11.2859
11.2859
11.2859
11.2859
11.2859
11.2859
11.2859
11.2859
11.2859
11.2859
11.2859
11.2859
11.2859
11.2859
11.2859
11.2859
11.2859
11.2859
11.2859
11.2859
11.2859
11.2859
11.2859
11.2859
11.2859
11.2859
11.2859
11.2859
11.2859
11.2859
11.2859
11.2859
11.2859
11.2859
11.2859
11.2859
11.2859
11.2859
11.2859
11.2859
11.2859
11.2859
11.2859
11.2859
11.2859
11.2859
11.2859
11.2859
11.2859
11.2859
11.2859
11.2859
11.2859
11.2859
11.2859
11.2859
11.2859
11.2859
11.2859
11.2859
11.2859
11.2859
11.2859
11.2859
11.2859
11.2859
11.2859
11.2859
11.2859
11.2859
11.2859
11.2859
11.2859
11.2859
11.2859
11.2859
11.2859
11.2859
11.2859
11.2859
11.2859
11.2859
11.2859
11.2859
11.2859
11.2859
11.2859
11.2859
11.2859
11.2859
11.2859
11.2859
11.2859
11.2859
11.2859
11.2859
11.2859
11.2859
11.2859
11.2859
11.2859
11.2859
11.2859
11.2859
11.2859
11.2859
11.2859
11.2859
11.2859
11.2859
11.2859
11.2859
11.2859
11.2859
11.2859
11.2859
11.2859
11.2859
11.2859
11.2859
11.2859
11.2859
11.2859
11.2859
11.2859
11.2859
11.2859
11.2859
11.2859
11.2859
11.2859
11.2859
11.2859
11.2859
11.2859
11.2859
11.2859
11.2859
11.2859
11.2859
11.2859
11.2859
11.2859
11.2859
11.2859
11.2859
11.2859
11.2859
11.2859
11.2859
11.2859
11.2859
11.2859
11.2859
11.2859
11.2859
11.2859
11.2859
11.2859
11.2859
11.2859
11.2859
11.2859
11.2859
11.2859
11.2859
11.2859
11.2859
11.2859
11.2859
11.2859
11.2859
11.2859
11.2859
11.2859
11.2859
11.2859
11.2859
11.2859
11.2859
11.2859
11.2859
11.2859
11.2859
11.2859
11.2859
11.2859
11.2859
11.2859
11.2859
11.2859
11.2859
11.2859
11.2859
11.2859
11.2859
11.2859
11.2859
11.2859
11.2859
11.2859
11.2859
11.2859
11.2859
11.2859
11.2859
11.2859
11.2859
11.2859
11.2859
11.2859
11.2859
11.2859
11.2859
11.2859
11.2859
11.2859
11.2859
11.2859
11.2859
11.2859
11.2859
11.2859
11.2859
11.2859
11.2859
11.2859
11.2859
11.2859
11.2859
11.2859
11.2859
11.2859
11.2859
11.2859
11.2859
11.2859
11.2859
11.2859
11.2859
11.2859
11.2859
11.2859
11.2859
11.2859
11.2859
11.2859
11.2859
11.2859
11.2859
11.2859
11.2859
11.2859
11.2859
11.2859
11.2859
11.2859
11.2859
11.2859
11.2859
11.2859
11.2859
11.2859
11.2859
11.2859
11.2859
11.2859
11.2859
11.2859
11.2859
11.2859
11.2859
11.2859
11.2859
11.2859
11.2859
11.2859
11.2859
11.2859
11.2859
11.2859
11.2859
11.2859
11.2859
11.2859
11.2859
11.2859
11.2859
11.2859
11.2859
11.2859
11.2859
11.2859
11.2859
11.2859
11.2859
11.2859
11.2859
11.2859
11.2859
11.2859
11.2859
11.2859
11.2859
11.2859
11.2859
11.2859
11.2859
11.2859
11.2859
11.2859
11.2859
11.2859
11.2859
11.2859
11.2859
11.2859
11.2859
11.2859
11.2859
11.2859
11.2859
11.2859
11.2859
11.2859
11.2859
11.2859
11.2859
11.2859
11.2859
11.2859
11.2859
11.2859
11.2859
11.2859
11.2859
11.2859
11.2859
11.2859
11.2859
11.2859
11.2859
11.2859
11.2859
11.2859
11.2859
11.2859
11.2859
11.2859
11.2859
11.2859
11.2859
11.2859
11.2859
11.2859
11.2859
11.2859
11.2859
11.2859
11.2859
11.2859
11.2859
11.2859
11.2859
11.2859
11.2859
11.2859
11.2859
11.2859
11.2859
11.2859
11.2859
11.2859
11.2859
11.2859
11.2859
11.2859
11.2859
11.2859
11.2859
11.2859
11.2859
11.2859
11.2859
11.2859
11.2859
11.2859
11.2859
11.2859
11.2859
11.2859
11.2859
11.2859
11.2859
11.2859
11.2859
11.2859
11.2859
11.2859
11.2859
11.2859
11.2859
11.2859
11.2859
11.2859
11.2859
11.2859
11.2859
11.2859
11.2859
11.2859
11.2859
11.2859
11.2859
11.2859
11.2859
11.2859
11.2859
11.2859
11.2859
11.2859
11.2859
11.2859
11.2859
11.2859
11.2859
11.2859
11.2859
11.2859
11.2859
11.2859
11.2859
11.2859
11.2859
11.2859
11.2859
11.2859
11.2859
11.2859
11.2859
11.2859
11.2859
11.2859
11.2859
11.2859
11.2859
11.2859
11.2859
11.2859
11.2859
11.2859
11.2859
11.2859
11.2859
11.2859
11.2859
11.2859
11.2859
11.2859
11.2859
11.2859
11.2859
11.2859
11.2859
11.2859
11.2859
11.2859
11.2859
11.2859
11.2859
11.2859
11.2859
11.2859
11.2859
11.2859
11.2859
11.2859
11.2859
11.2859
11.2859
11.2859
11.2859
11.2859
11.2859
11.2859
11.2859
11.2859
11.2859
11.2859
11.2859
11.2859
11.2859
11.2859
11.2859
11.2859
11.2859
11.2859
11.2859
11.2859
11.2859
11.2859
11.2859
11.2859
11.2859
11.2859
11.2859
11.2859
11.2859
11.2859
11.2859
11.2859
11.2859
11.2859
11.2859
11.2859
11.2859
11.2859
11.2859
11.2859
11.2859
11.2859
11.2859
11.2859
11.2859
11.2859
11.2859
11.2859
11.2859
11.2859
11.2859
11.2859
11.2859
11.2859
11.2859
11.2859
11.2859
11.2859
11.2859
11.2859
11.2859
11.2859
11.2859
11.2859
11.2859
11.2859
11.2859
11.2859
11.2859
11.2859
11.2859
11.2859
11.2859
11.2859
11.2859
11.2859
11.2859
11.2859
11.2859
11.2859
11.2859
11.2859
11.2859
11.2859
11.2859
11.2859
11.2859
11.2859
11.2859
11.2859
11.2859
11.2859
11.2859
11.2859
11.2859
11.2859
11.2859
11.2859
11.2859
11.2859
11.2859
11.2859
11.2859
11.2859
11.2859
11.2859
11.2859
11.2859
11.2859
11.2859
11.2859
11.2859
11.2859
11.2859
11.2859
11.2859
11.2859
11.2859
11.2859
11.2859
11.2859
11.2859
11.2859
11.2859
11.2859
11.2859
11.2859
11.2859
11.2859
11.2859
11.2859
11.2859
11.2859
11.2859
11.2859
11.2859
11.2859
11.2859
11.2859
11.2859
11.2859
11.2859
11.2859
11.2859
11.2859
11.2859
11.2859
11.2859
11.2859
11.2859
11.2859
11.2859
11.2859
11.2859
11.2859
11.2859
11.2859
11.2859
11.2859
11.2859
11.2859
11.2859
11.2859
11.2859
11.2859
11.2859
11.2859
11.2859
11.2859
11.2859
11.2859
11.2859
11.2859
11.2859
11.2859
11.2859
11.2859
11.2859
11.2859
11.2859
11.2859
11.2859
11.2859
11.2859
11.2859
11.2859
11.2859
11.2859
11.2859
11.2859
11.2859
11.2859
11.2859
11.2859
11.2859
11.2859
11.2859
11.2859
11.2859
11.2859
11.2859
11.2859
11.2859
11.2859
11.2859
11.2859
11.2859
11.2859
11.2859
11.2859
11.2859
11.2859
11.2859
11.2859
11.2859
11.2859
11.2859
11.2859
11.2859
11.2859
11.2859
11.2859
11.2859
11.2859
11.2859
11.2859
11.2859
11.2859
11.2859
11.2859
11.2859
11.2859
11.2859
11.2859
11.2859
11.2859
11.2859
11.2859
11.2859
11.2859
11.2859
11.2859
11.2859
11.2859
11.2859
11.2859
11.2859
11.2859
11.2859
11.2859
11.2859
11.2859
11.2859
11.2859
11.2859
11.2859
11.2859
11.2859
11.2859
11.2859
11.2859
11.2859
11.2859
11.2859
11.2859
11.2859
11.2859
11.2859
11.2859
11.2859
11.2859
11.2859
11.2859
11.2859
11.2859
11.2859
11.2859
11.2859
11.2859
11.2859
11.2859
11.2859
11.2859
11.2859
11.2859
11.2859
11.2859
11.2859
11.2859
11.2859
11.2859
11.2859
11.2859
11.2859
11.2859
11.2859
11.2859
11.2859
11.2859
11.2859
11.2859
11.2859
11.2859
11.2859
11.2859
11.2859
11.2859
11.2859
11.2859
11.2859
11.2859
11.2859
11.2859
11.2859
11.2859
11.2859
11.2859
11.2859
11.2859
11.2859
11.2859
11.2859
11.2859
11.2859
11.2859
11.2859
11.2859
11.2859
11.2859
11.2859
11.2859
11.2859
11.2859
11.2859
11.2859
11.2859
11.2859
11.2859
11.2859
11.2859
11.2859
11.2859
11.2859
11.2859
11.2859
11.2859
11.2859
11.2859
11.2859
11.2859
11.2859
11.2859
11.2859
11.2859
11.2859
11.2859
11.2859
11.2859
11.2859
11.2859
11.2859
11.2859
11.2859
11.2859
11.2859
11.2859
11.2859
11.2859
11.2859
11.2859
11.2859
11.2859
11.2859
11.2859
11.2859
11.2859
11.2859
11.2859
11.2859
11.2859
11.2859
11.2859
11.2859
11.2859
11.2859
11.2859
11.2859
11.2859
11.2859
11.2859
11.2859
11.2859
11.2859
11.2859
11.2859
11.2859
11.2859
11.2859
11.2859
11.2859
11.2859
11.2859
11.2859
11.2859
11.2859
11.2859
11.2859
11.2859
11.2859
11.2859
11.2859
11.2859
11.2859
11.2859
11.2859
11.2859
11.2859
11.2859
11.2859
11.2859
11.2859
11.2859
11.2859
11.2859
11.2859
11.2859
11.2859
11.2859
11.2859
11.2859
11.2859
11.2859
11.2859
11.2859
11.2859
11.2859
11.2859
11.2859
11.2859
11.2859
11.2859
11.2859
11.2859
11.2858
11.2858
11.2859
11.2859
11.2859
11.2859
11.2859
11.2859
11.2859
11.2859
11.2859
11.2859
11.2859
11.2859
11.2859
11.2859
11.2859
11.2859
11.2859
11.2859
11.2859
11.2859
11.2859
11.2859
11.2859
11.2859
11.2859
11.2859
11.2859
11.2859
11.2859
11.2859
11.2859
11.2859
11.2859
11.2859
11.2859
11.2859
11.2859
11.2859
11.2859
11.2859
11.2859
11.2859
11.2859
11.2859
11.2859
11.2859
11.2858
11.2858
11.2858
11.2858
11.2859
11.2859
11.2859
11.2859
11.2859
11.2859
11.2859
11.2859
11.2859
11.2859
11.2859
11.2859
11.2859
11.2859
11.2859
11.2859
11.2859
11.2859
11.2859
11.2859
11.2859
11.2859
11.2859
11.2859
11.2859
11.2859
11.2859
11.2859
11.2859
11.2859
11.2859
11.2859
11.2859
11.2859
11.2859
11.2859
11.2859
11.2859
11.2859
11.2859
11.2859
11.2859
11.2859
11.2859
11.2858
11.2858
11.2858
11.2858
11.2857
11.2855
11.2859
11.2859
11.2859
11.2859
11.2859
11.2859
11.2859
11.2859
11.2859
11.2859
11.2859
11.2859
11.2859
11.2859
11.2859
11.2859
11.2859
11.2859
11.2859
11.2859
11.2859
11.2859
11.2859
11.2859
11.2859
11.2859
11.2859
11.2859
11.2859
11.2859
11.2859
11.2859
11.2859
11.2859
11.2859
11.2859
11.2859
11.2859
11.2859
11.2859
11.2859
11.2859
11.2859
11.2858
11.2858
11.2858
11.2857
11.2856
11.2853
11.2847
11.2859
11.2859
11.2859
11.2859
11.2859
11.2859
11.2859
11.2859
11.2859
11.2859
11.2859
11.2859
11.2859
11.2859
11.2859
11.2859
11.2859
11.2859
11.2859
11.2859
11.2859
11.2859
11.2859
11.2859
11.2859
11.2859
11.2859
11.2859
11.2859
11.2859
11.2859
11.2859
11.2859
11.2859
11.2859
11.2859
11.2859
11.2859
11.2859
11.2859
11.2859
11.2858
11.2858
11.2858
11.2858
11.2856
11.2854
11.2849
11.2839
11.2818
11.2859
11.2859
11.2859
11.2859
11.2859
11.2859
11.2859
11.2859
11.2859
11.2859
11.2859
11.2859
11.2859
11.2859
11.2859
11.2859
11.2859
11.2859
11.2859
11.2859
11.2859
11.2859
11.2859
11.2859
11.2859
11.2859
11.2859
11.2859
11.2859
11.2859
11.2859
11.2859
11.2859
11.2859
11.2859
11.2859
11.2859
11.2859
11.2859
11.2858
11.2858
11.2858
11.2858
11.2857
11.2855
11.2851
11.2844
11.2828
11.2794
11.2723
11.2859
11.2859
11.2859
11.2859
11.2859
11.2859
11.2859
11.2859
11.2859
11.2859
11.2859
11.2859
11.2859
11.2859
11.2859
11.2859
11.2859
11.2859
11.2859
11.2859
11.2859
11.2859
11.2859
11.2859
11.2859
11.2859
11.2859
11.2859
11.2859
11.2859
11.2859
11.2859
11.2859
11.2859
11.2859
11.2859
11.2859
11.2859
11.2858
11.2858
11.2858
11.2857
11.2856
11.2853
11.2847
11.2835
11.2809
11.2757
11.2647
11.2416
11.2859
11.2859
11.2859
11.2859
11.2859
11.2859
11.2859
11.2859
11.2859
11.2859
11.2859
11.2859
11.2859
11.2859
11.2859
11.2859
11.2859
11.2859
11.2859
11.2859
11.2859
11.2859
11.2859
11.2859
11.2859
11.2859
11.2859
11.2859
11.2859
11.2859
11.2859
11.2859
11.2859
11.2859
11.2859
11.2859
11.2858
11.2858
11.2858
11.2858
11.2856
11.2854
11.285
11.284
11.2821
11.2781
11.2698
11.2528
11.2176
11.1452
11.2859
11.2859
11.2859
11.2859
11.2859
11.2859
11.2859
11.2859
11.2859
11.2859
11.2859
11.2859
11.2859
11.2859
11.2859
11.2859
11.2859
11.2859
11.2859
11.2859
11.2859
11.2859
11.2859
11.2859
11.2859
11.2859
11.2859
11.2859
11.2859
11.2859
11.2859
11.2859
11.2859
11.2859
11.2858
11.2858
11.2858
11.2858
11.2857
11.2855
11.2852
11.2845
11.283
11.28
11.2738
11.261
11.2347
11.1813
11.0739
10.8642
11.2859
11.2859
11.2859
11.2859
11.2859
11.2859
11.2859
11.2859
11.2859
11.2859
11.2859
11.2859
11.2859
11.2859
11.2859
11.2859
11.2859
11.2859
11.2859
11.2859
11.2859
11.2859
11.2859
11.2859
11.2859
11.2859
11.2859
11.2859
11.2859
11.2859
11.2859
11.2859
11.2859
11.2858
11.2858
11.2858
11.2857
11.2856
11.2853
11.2848
11.2837
11.2814
11.2768
11.2673
11.2477
11.2079
11.1278
10.9705
10.6758
10.1684
11.2859
11.2859
11.2859
11.2859
11.2859
11.2859
11.2859
11.2859
11.2859
11.2859
11.2859
11.2859
11.2859
11.2859
11.2859
11.2859
11.2859
11.2859
11.2859
11.2859
11.2859
11.2859
11.2859
11.2859
11.2859
11.2859
11.2859
11.2859
11.2859
11.2859
11.2859
11.2858
11.2858
11.2858
11.2858
11.2857
11.2855
11.2851
11.2843
11.2826
11.2791
11.272
11.2576
11.2281
11.1686
11.0507
10.8256
10.4244
9.7825
8.90156
11.2859
11.2859
11.2859
11.2859
11.2859
11.2859
11.2859
11.2859
11.2859
11.2859
11.2859
11.2859
11.2859
11.2859
11.2859
11.2859
11.2859
11.2859
11.2859
11.2859
11.2859
11.2859
11.2859
11.2859
11.2859
11.2859
11.2859
11.2859
11.2859
11.2859
11.2859
11.2858
11.2858
11.2858
11.2857
11.2856
11.2853
11.2847
11.2834
11.2809
11.2757
11.2651
11.2434
11.1996
11.1122
10.9425
10.6302
10.105
9.33354
8.37067
7.35087
11.2859
11.2859
11.2859
11.2859
11.2859
11.2859
11.2859
11.2859
11.2859
11.2859
11.2859
11.2859
11.2859
11.2859
11.2859
11.2859
11.2859
11.2859
11.2859
11.2859
11.2859
11.2859
11.2859
11.2859
11.2859
11.2859
11.2859
11.2859
11.2859
11.2858
11.2858
11.2858
11.2858
11.2856
11.2854
11.285
11.2841
11.2822
11.2784
11.2707
11.2549
11.223
11.1589
11.0329
10.7951
10.377
9.72165
8.8405
7.83887
6.85169
5.97276
11.2859
11.2859
11.2859
11.2859
11.2859
11.2859
11.2859
11.2859
11.2859
11.2859
11.2859
11.2859
11.2859
11.2859
11.2859
11.2859
11.2859
11.2859
11.2859
11.2859
11.2859
11.2859
11.2859
11.2859
11.2859
11.2859
11.2859
11.2859
11.2858
11.2858
11.2858
11.2858
11.2857
11.2855
11.2852
11.2845
11.2832
11.2804
11.2748
11.2634
11.2404
11.1939
11.1018
10.9243
10.601
10.064
9.28574
8.32919
7.32632
6.39587
5.59291
4.92582
11.2859
11.2859
11.2859
11.2859
11.2859
11.2859
11.2859
11.2859
11.2859
11.2859
11.2859
11.2859
11.2859
11.2859
11.2859
11.2859
11.2859
11.2859
11.2859
11.2859
11.2859
11.2859
11.2859
11.2859
11.2859
11.2859
11.2859
11.2858
11.2858
11.2858
11.2857
11.2856
11.2854
11.2849
11.2839
11.2819
11.2779
11.2697
11.2532
11.2198
11.1533
11.0233
10.7796
10.3549
9.69513
8.81577
7.82258
6.84955
5.98468
5.25638
4.65587
4.16536
11.2859
11.2859
11.2859
11.2859
11.2859
11.2859
11.2859
11.2859
11.2859
11.2859
11.2859
11.2859
11.2859
11.2859
11.2859
11.2859
11.2859
11.2859
11.2859
11.2859
11.2859
11.2859
11.2859
11.2859
11.2859
11.2858
11.2858
11.2858
11.2858
11.2857
11.2855
11.2852
11.2845
11.283
11.2802
11.2743
11.2626
11.2388
11.1913
11.0975
10.918
10.5928
10.0559
9.28159
8.33269
7.33867
6.41549
5.61944
4.95783
4.41648
3.97599
3.61954
11.2859
11.2859
11.2859
11.2859
11.2859
11.2859
11.2859
11.2859
11.2859
11.2859
11.2859
11.2859
11.2859
11.2859
11.2859
11.2859
11.2859
11.2859
11.2859
11.2859
11.2859
11.2859
11.2859
11.2859
11.2858
11.2858
11.2858
11.2857
11.2856
11.2854
11.2849
11.2838
11.2818
11.2777
11.2693
11.2526
11.2189
11.1522
11.0224
10.7803
10.3599
9.70821
8.83941
7.85582
6.8887
6.02584
5.29655
4.69506
4.20392
3.80609
3.4887
3.24596
11.2859
11.2859
11.2859
11.2859
11.2859
11.2859
11.2859
11.2859
11.2859
11.2859
11.2859
11.2859
11.2859
11.2859
11.2859
11.2859
11.2859
11.2859
11.2859
11.2859
11.2859
11.2859
11.2858
11.2858
11.2858
11.2858
11.2857
11.2855
11.2851
11.2844
11.283
11.2801
11.2742
11.2625
11.2389
11.1919
11.0996
10.9236
10.6056
10.0807
9.32172
8.3864
7.4
6.47803
5.67872
5.0116
4.46351
4.01653
3.65532
3.37084
3.16125
3.02111
11.2859
11.2859
11.2859
11.2859
11.2859
11.2859
11.2859
11.2859
11.2859
11.2859
11.2859
11.2859
11.2859
11.2859
11.2859
11.2859
11.2859
11.2859
11.2859
11.2859
11.2859
11.2858
11.2858
11.2858
11.2857
11.2856
11.2854
11.2848
11.2838
11.2818
11.2777
11.2695
11.2531
11.2203
11.1555
11.0301
10.7966
10.3909
9.75912
8.91004
7.93893
6.97472
6.1077
5.37062
4.75993
4.25906
3.85103
3.52257
3.26799
3.08617
2.9704
2.9043
11.2859
11.2859
11.2859
11.2859
11.2859
11.2859
11.2859
11.2859
11.2859
11.2859
11.2859
11.2859
11.2859
11.2859
11.2859
11.2859
11.2859
11.2859
11.2859
11.2858
11.2858
11.2858
11.2858
11.2857
11.2855
11.2851
11.2844
11.283
11.2802
11.2745
11.2631
11.2405
11.1955
11.1076
10.9403
10.6378
10.136
9.40327
8.48817
7.50971
6.58469
5.77612
5.09741
4.53723
4.07809
3.70454
3.40582
3.17887
3.02211
2.9258
2.87348
2.84758
11.2859
11.2859
11.2859
11.2859
11.2859
11.2859
11.2859
11.2859
11.2859
11.2859
11.2859
11.2859
11.2859
11.2859
11.2859
11.2859
11.2859
11.2858
11.2858
11.2858
11.2857
11.2856
11.2854
11.2849
11.2839
11.2819
11.278
11.2702
11.2546
11.2237
11.1629
11.0454
10.8266
10.4448
9.84422
9.02441
8.07001
7.10717
6.23104
5.4803
4.85495
4.33969
3.9175
3.57473
3.30327
3.10186
2.96732
2.88758
2.84566
2.82614
2.81518
11.2859
11.2859
11.2859
11.2859
11.2859
11.2859
11.2859
11.2859
11.2859
11.2859
11.2859
11.2859
11.2859
11.2859
11.2859
11.2858
11.2858
11.2858
11.2858
11.2857
11.2855
11.2852
11.2845
11.2831
11.2805
11.2751
11.2645
11.2434
11.2018
11.1206
10.9662
10.6863
10.2175
9.52193
8.63497
7.66666
6.73574
5.91265
5.2167
4.63943
4.16402
3.77467
3.45958
3.21331
3.0353
2.92031
2.85438
2.82096
2.80555
2.79636
2.79076
11.2859
11.2859
11.2859
11.2859
11.2859
11.2859
11.2859
11.2859
11.2859
11.2859
11.2859
11.2859
11.2859
11.2859
11.2858
11.2858
11.2858
11.2857
11.2856
11.2854
11.2849
11.284
11.2822
11.2785
11.2713
11.257
11.2288
11.1734
11.0666
10.8675
10.5174
9.95829
9.17808
8.24673
7.28579
6.39686
5.62709
4.98172
4.44745
4.0074
3.64735
3.35742
3.13445
2.97773
2.87967
2.82525
2.79857
2.78622
2.77796
2.77399
2.77134
11.2859
11.2859
11.2859
11.2859
11.2859
11.2859
11.2859
11.2859
11.2859
11.2859
11.2859
11.2858
11.2858
11.2858
11.2858
11.2857
11.2855
11.2852
11.2846
11.2833
11.2809
11.276
11.2664
11.2473
11.2099
11.1372
10.999
10.7469
10.3196
9.67183
8.82272
7.86942
6.93182
6.08993
5.3714
4.772
4.27605
3.86747
3.53367
3.26678
3.06537
2.92778
2.84427
2.79934
2.77805
2.76764
2.76053
2.75753
2.75501
2.75232
11.2859
11.2859
11.2859
11.2859
11.2859
11.2859
11.2859
11.2859
11.2859
11.2858
11.2858
11.2858
11.2858
11.2857
11.2856
11.2854
11.285
11.2841
11.2825
11.2792
11.2727
11.26
11.2349
11.186
11.0918
10.9157
10.603
10.0945
9.36493
8.46568
7.51014
6.60655
5.81311
5.14249
4.58448
4.12267
3.74217
3.43204
3.1864
3.00483
2.88425
2.81313
2.77601
2.75892
2.74985
2.7439
2.74142
2.73901
2.73647
2.73378
11.2859
11.2859
11.2859
11.2859
11.2859
11.2859
11.2859
11.2858
11.2858
11.2858
11.2858
11.2858
11.2857
11.2855
11.2852
11.2847
11.2835
11.2813
11.277
11.2685
11.2518
11.2192
11.1559
11.0356
10.8149
10.4352
9.84515
9.04541
8.11541
7.17333
6.30995
5.56401
4.93738
4.41648
3.98511
3.62978
3.34113
3.11512
2.95169
2.84609
2.78547
2.75474
2.74089
2.73272
2.72791
2.72568
2.72334
2.72082
2.71833
2.71548
11.2858
11.2858
11.2858
11.2858
11.2858
11.2858
11.2858
11.2858
11.2858
11.2858
11.2857
11.2856
11.2854
11.285
11.2843
11.2828
11.2799
11.2742
11.2631
11.2414
11.1993
11.1184
10.9668
10.6951
10.244
9.57625
8.72108
7.77838
6.86117
6.04075
5.33996
4.75334
4.26564
3.86148
3.5288
3.25975
3.05187
2.90492
2.8124
2.76063
2.73516
2.72369
2.71628
2.71249
2.7103
2.70799
2.70556
2.7031
2.70038
2.69712
11.2858
11.2858
11.2858
11.2858
11.2858
11.2858
11.2858
11.2858
11.2857
11.2856
11.2855
11.2852
11.2847
11.2837
11.2817
11.2779
11.2705
11.2561
11.2281
11.1743
11.0721
10.8838
10.5553
10.0309
9.29319
8.39887
7.45886
6.57408
5.79704
5.13836
4.5879
4.12993
3.75016
3.43795
3.18686
2.99571
2.86361
2.78243
2.7381
2.71692
2.70714
2.70049
2.6975
2.69531
2.69302
2.69065
2.6882
2.68548
2.68233
2.67855
11.2855
11.2855
11.2855
11.2855
11.2856
11.2855
11.2855
11.2855
11.2854
11.2852
11.2848
11.2841
11.2827
11.2801
11.275
11.2654
11.2468
11.211
11.1427
11.0149
10.7843
10.3942
9.79782
9.0012
8.08403
7.15904
6.31119
5.5765
4.95666
4.43884
4.00755
3.64973
3.35609
3.12153
2.94576
2.82693
2.75554
2.71746
2.69977
2.69118
2.68529
2.68287
2.68068
2.67842
2.67609
2.67364
2.6709
2.66774
2.66409
2.65973
11.2843
11.2844
11.2844
11.2845
11.2845
11.2845
11.2845
11.2844
11.2841
11.2836
11.2826
11.2807
11.2772
11.2705
11.2578
11.2337
11.1879
11.1018
10.9435
10.6649
10.2101
9.54632
8.7043
7.77967
6.87922
6.07069
5.37659
4.79246
4.30416
3.89692
3.55894
3.28222
3.06291
2.90121
2.79418
2.7312
2.69835
2.68349
2.67576
2.67063
2.66854
2.66638
2.66414
2.66184
2.6594
2.65665
2.65349
2.64983
2.64561
2.64064
11.2793
11.2797
11.28
11.2802
11.2804
11.2804
11.2802
11.2795
11.2782
11.2756
11.2708
11.2617
11.2448
11.2132
11.1544
11.0458
10.8511
10.5191
9.99883
9.27594
8.40405
7.48635
6.6179
5.84998
5.19459
4.64342
4.18199
3.79657
3.47666
3.21544
3.01022
2.86133
2.76473
2.70897
2.68051
2.66789
2.66082
2.65641
2.65445
2.6524
2.65016
2.6479
2.64547
2.64272
2.63954
2.63589
2.63168
2.62687
2.62124
11.2579
11.2595
11.2609
11.2622
11.2632
11.2637
11.2635
11.2622
11.2589
11.2524
11.24
11.217
11.175
11.0985
10.9615
10.7235
10.3334
9.7506
8.98174
8.09804
7.20142
6.37167
5.64552
5.02746
4.5071
4.07047
3.7051
3.40178
3.15487
2.96267
2.82544
2.73802
2.68844
2.66368
2.65285
2.64631
2.64252
2.64065
2.63865
2.63646
2.63424
2.63182
2.62907
2.6259
2.62225
2.61807
2.61328
2.60783
2.60152
11.1708
11.1774
11.1837
11.1896
11.1945
11.198
11.1992
11.1972
11.19
11.174
11.1433
11.0871
10.9873
10.8145
10.5269
10.0784
9.4439
8.65035
7.77764
6.91803
6.13465
5.45253
4.87149
4.38077
3.96758
3.62099
3.33317
3.09962
2.91951
2.79285
2.71352
2.66926
2.6476
2.63821
2.63216
2.62889
2.62705
2.62512
2.62299
2.62081
2.61841
2.61568
2.61252
2.6089
2.60474
2.6
2.5946
2.58848
2.58143
10.8706
10.8951
10.9181
10.9386
10.9551
10.9654
10.966
10.9534
10.919
10.85
10.7259
10.5165
10.1835
9.69223
9.03577
8.25446
7.425
6.62347
5.89748
5.26419
4.72185
4.26098
3.87087
3.54249
3.26952
3.04866
2.87989
2.76287
2.69071
2.65103
2.63203
2.62379
2.61825
2.61537
2.61354
2.6117
2.60966
2.60753
2.60517
2.60247
2.59935
2.59577
2.59166
2.58697
2.58164
2.5756
2.56877
2.56097
9.95757
10.0252
10.0914
10.1531
10.2068
10.2473
10.2666
10.2565
10.2027
10.0837
9.87243
9.53956
9.06498
8.45456
7.74892
7.01047
6.29727
5.64583
5.07054
4.57165
4.14302
3.77708
3.46727
3.20913
3.00072
2.84278
2.73467
2.66893
2.63328
2.61657
2.6094
2.60436
2.60175
2.59992
2.59821
2.5963
2.59426
2.59197
2.58933
2.58628
2.58277
2.57874
2.57414
2.5689
2.56296
2.55625
2.5487
2.54012
8.34692
8.45521
8.56177
8.66102
8.7451
8.80316
8.81843
8.77749
8.65485
8.42801
8.08333
7.62552
7.08212
6.49629
5.9115
5.35947
4.85735
4.41103
4.02007
3.68146
3.39202
3.14963
2.95401
2.80679
2.70717
2.64735
2.61535
2.60066
2.59457
2.59
2.58766
2.58585
2.5843
2.58263
2.58075
2.57858
2.57607
2.57314
2.56975
2.56584
2.56137
2.55626
2.55046
2.54391
2.53652
2.52823
2.51886
6.49859
6.60142
6.7068
6.81038
6.90545
6.98276
7.02809
7.02421
6.95709
6.80722
6.56726
6.24408
5.85861
5.43964
5.0151
4.60628
4.22643
3.88239
3.57711
3.31182
3.08749
2.90593
2.76995
2.6788
2.62473
2.59619
2.58342
2.57848
2.57447
2.57246
2.57078
2.56947
2.56808
2.56647
2.56457
2.56231
2.55961
2.55643
2.55273
2.54845
2.54355
2.53795
2.5316
2.52442
2.51636
2.50734
2.49718
5.15566
5.23781
5.32072
5.40028
5.47111
5.5235
5.5463
5.52694
5.45494
5.32098
5.12577
4.87912
4.59759
4.29971
4.00208
3.7174
3.4545
3.21958
3.01747
2.85256
2.72923
2.64723
2.5991
2.57423
2.56353
2.55977
2.55663
2.55507
2.5538
2.55287
2.55191
2.5507
2.54914
2.54727
2.54499
2.54224
2.53894
2.53501
2.53043
2.52514
2.51909
2.51221
2.50444
2.49572
2.48599
2.47507
4.16269
4.22267
4.2841
4.34454
4.40098
4.44738
4.4768
4.48135
4.45212
4.38331
4.27099
4.11788
3.9324
3.72631
3.51236
3.30231
3.10613
2.93226
2.78831
2.68026
2.60888
2.5676
2.54681
2.53893
2.53622
2.5345
2.53375
2.53325
2.53302
2.53277
2.53228
2.53145
2.53019
2.52845
2.52622
2.52353
2.52023
2.51626
2.51153
2.50596
2.49953
2.49219
2.48388
2.47455
2.46415
2.4525
3.46681
3.51208
3.55851
3.6046
3.64832
3.68612
3.71375
3.72607
3.71744
3.68231
3.61797
3.52319
3.40205
3.26159
3.11144
2.962
2.8235
2.70586
2.61717
2.55881
2.52589
2.51046
2.50579
2.50478
2.5049
2.50554
2.50639
2.50738
2.50832
2.50903
2.50937
2.50926
2.50864
2.50746
2.50565
2.50314
2.49993
2.49604
2.49132
2.48569
2.47907
2.47138
2.46263
2.45277
2.44177
2.42945
2.9642
2.99846
3.03337
3.06822
3.10135
3.13062
3.15338
3.16636
3.16592
3.14835
3.11099
3.05242
2.97483
2.88239
2.78257
2.68459
2.59865
2.5332
2.49143
2.46876
2.45996
2.45959
2.4609
2.46344
2.46632
2.46925
2.47219
2.47505
2.47768
2.47996
2.48173
2.4829
2.48341
2.48319
2.48222
2.48042
2.47776
2.4741
2.46949
2.46395
2.45732
2.44955
2.44054
2.43027
2.41877
2.40588
2.58684
2.61316
2.63965
2.66579
2.6905
2.7124
2.7298
2.7407
2.74288
2.7341
2.71262
2.67772
2.63061
2.57479
2.51668
2.46446
2.42518
2.40159
2.39163
2.39082
2.39505
2.40002
2.40556
2.41132
2.41726
2.42307
2.42868
2.43407
2.43909
2.44363
2.44754
2.45072
2.45309
2.45454
2.45501
2.45442
2.45272
2.44988
2.44587
2.44054
2.43404
2.42633
2.41731
2.4069
2.39506
2.38173
2.30031
2.32043
2.34034
2.35962
2.37757
2.39333
2.40586
2.41402
2.41664
2.41265
2.4014
2.38302
2.3592
2.33361
2.31136
2.29683
2.29151
2.29391
2.30126
2.31051
2.31962
2.32857
2.33786
2.34728
2.35656
2.36565
2.37454
2.38313
2.39129
2.39884
2.40564
2.41155
2.41646
2.42026
2.42287
2.42417
2.4241
2.42258
2.41959
2.41511
2.40914
2.40161
2.39271
2.38234
2.37047
2.35691
2.08487
2.10023
2.11507
2.1291
2.14189
2.15293
2.16172
2.16779
2.17078
2.17065
2.16791
2.16373
2.16006
2.15928
2.1632
2.17198
2.18407
2.19788
2.21128
2.22428
2.23602
2.2487
2.26141
2.27399
2.28648
2.2989
2.31117
2.32317
2.33473
2.34566
2.35579
2.36495
2.37298
2.37973
2.38507
2.38888
2.39105
2.3915
2.39015
2.38699
2.38202
2.37526
2.36673
2.35651
2.34474
2.33123
1.94222
1.95376
1.96453
1.97432
1.98298
1.99044
1.99677
2.00227
2.00757
2.01372
2.02179
2.03254
2.04624
2.06237
2.07958
2.09665
2.11261
2.12688
2.14089
2.15549
2.17009
2.18463
2.19922
2.21392
2.22873
2.24356
2.25828
2.2727
2.28663
2.29986
2.31218
2.32339
2.33329
2.34168
2.34838
2.35324
2.35614
2.35699
2.35571
2.35227
2.34671
2.33909
2.32947
2.31791
2.30455
1.84313
1.85364
1.86359
1.87297
1.88187
1.89049
1.89919
1.90841
1.91874
1.93071
1.945
1.96152
1.97939
1.99764
2.01498
2.03143
2.04536
2.05986
2.07472
2.08943
2.10402
2.11868
2.13356
2.14872
2.16416
2.17982
2.1956
2.21135
2.2269
2.24205
2.25657
2.27023
2.28277
2.29392
2.30344
2.31108
2.31664
2.31998
2.32097
2.31955
2.31568
2.30939
2.3008
2.28998
2.27697
1.78968
1.80024
1.81044
1.82036
1.83022
1.84031
1.85102
1.86277
1.8759
1.89055
1.90673
1.92402
1.94152
1.95832
1.97409
1.98727
2.00116
2.01548
2.02948
2.04316
2.05673
2.07038
2.08424
2.09837
2.1128
2.12752
2.14249
2.15765
2.17291
2.18814
2.20315
2.21772
2.23159
2.24446
2.256
2.26591
2.27388
2.27965
2.28301
2.28381
2.28196
2.27744
2.27027
2.26059
2.2484
1.76846
1.77895
1.78951
1.80039
1.81189
1.82431
1.83793
1.85284