/*--------------------------------*- C++ -*----------------------------------*\
| =========                 |                                                 |
| \\      /  F ield         | OpenFOAM: The Open Source CFD Toolbox           |
|  \\    /   O peration     | Version:  v1706                                 |
|   \\  /    A nd           | Web:      www.OpenFOAM.com                      |
|    \\/     M anipulation  |                                                 |
\*---------------------------------------------------------------------------*/
FoamFile
{
    version     2.0;
    format      ascii;
    class       volScalarField;
    location    "5e-06";
    object      p;
}
// * * * * * * * * * * * * * * * * * * * * * * * * * * * * * * * * * * * * * //

dimensions      [1 -1 -2 0 0 0 0];


internalField   nonuniform List<scalar> 
30038
(
21.9139
21.9139
21.9139
21.9139
21.9139
21.9139
21.9139
21.9139
21.9139
21.9139
21.9139
21.9139
21.9139
21.9139
21.9139
21.9139
21.9139
21.9139
21.9139
21.9139
21.9139
21.9139
21.9139
21.9139
21.9139
21.9139
21.9139
21.9139
21.9139
21.9139
21.9139
21.9139
21.9139
21.9139
21.9139
21.9139
21.9139
21.9139
21.9139
21.9139
21.9139
21.9139
21.9139
21.9139
21.9139
21.9139
21.9139
21.9139
21.9139
21.9139
21.9139
21.9139
21.9139
21.9139
21.9139
21.9139
21.9139
21.9139
21.9139
21.9139
21.9139
21.9139
21.9139
21.9139
21.9139
21.9139
21.9139
21.9139
21.9139
21.9139
21.9139
21.9139
21.9139
21.9139
21.9139
21.9139
21.9139
21.9139
21.9139
21.9139
21.9139
21.9139
21.9139
21.9139
21.9139
21.9139
21.9139
21.9139
21.9139
21.9139
21.9139
21.9139
21.9139
21.9139
21.9139
21.9139
21.9139
21.9139
21.9139
21.9139
21.9139
21.9139
21.9139
21.9139
21.9139
21.9139
21.9139
21.9139
21.9139
21.9139
21.9139
21.9139
21.9139
21.9139
21.9139
21.9139
21.9139
21.9139
21.9139
21.9139
21.9139
21.9139
21.9139
21.9139
21.9139
21.9139
21.9139
21.9139
21.9139
21.9139
21.9139
21.9139
21.9139
21.9139
21.9139
21.9139
21.9139
21.9139
21.9139
21.9139
21.9139
21.9139
21.9139
21.9139
21.9139
21.9139
21.9139
21.9139
21.9139
21.9139
21.9139
21.9139
21.9139
21.9139
21.9139
21.9139
21.9139
21.9139
21.9139
21.9139
21.9139
21.9139
21.9139
21.9139
21.9139
21.9139
21.9139
21.9139
21.9139
21.9139
21.9139
21.9139
21.9139
21.9139
21.9139
21.9139
21.9139
21.9139
21.9139
21.9139
21.9139
21.9139
21.9139
21.9139
21.9139
21.9139
21.9139
21.9139
21.9139
21.9139
21.9139
21.9139
21.9139
21.9139
21.9139
21.9139
21.9139
21.9139
21.9139
21.9139
21.9139
21.9139
21.9139
21.9139
21.9139
21.9139
21.9139
21.9139
21.9139
21.9139
21.9139
21.9139
21.9139
21.9139
21.9139
21.9139
21.9139
21.9139
21.9139
21.9139
21.9139
21.9139
21.9139
21.9139
21.9139
21.9139
21.9139
21.9139
21.9139
21.9139
21.9139
21.9139
21.9139
21.9139
21.9139
21.9139
21.9139
21.9139
21.9139
21.9139
21.9139
21.9139
21.9139
21.9139
21.9139
21.9139
21.9139
21.9139
21.9139
21.9139
21.9139
21.9139
21.9139
21.9139
21.9139
21.9139
21.9139
21.9139
21.9139
21.9139
21.9139
21.9139
21.9139
21.9139
21.9139
21.9139
21.9139
21.9139
21.9139
21.9139
21.9139
21.9139
21.9139
21.9139
21.9139
21.9139
21.9139
21.9139
21.9139
21.9139
21.9139
21.9139
21.9139
21.9139
21.9139
21.9139
21.9139
21.9139
21.9139
21.9139
21.9139
21.9139
21.9139
21.9139
21.9139
21.9139
21.9139
21.9139
21.9139
21.9139
21.9139
21.9139
21.9139
21.9139
21.9139
21.9139
21.9139
21.9139
21.9139
21.9139
21.9139
21.9139
21.9139
21.9139
21.9139
21.9139
21.9139
21.9139
21.9139
21.9139
21.9139
21.9139
21.9139
21.9139
21.9139
21.9139
21.9139
21.9139
21.9139
21.9139
21.9139
21.9139
21.9139
21.9139
21.9139
21.9139
21.9139
21.9139
21.9139
21.9139
21.9139
21.9139
21.9139
21.9139
21.9139
21.9139
21.9139
21.9139
21.9139
21.9139
21.9139
21.9139
21.9139
21.9139
21.9139
21.9139
21.9139
21.9139
21.9139
21.9139
21.9139
21.9139
21.9139
21.9139
21.9139
21.9139
21.9139
21.9139
21.9139
21.9139
21.9139
21.9139
21.9139
21.9139
21.9139
21.9139
21.9139
21.9139
21.9139
21.9139
21.9139
21.9139
21.9139
21.9139
21.9139
21.9139
21.9139
21.9139
21.9139
21.9139
21.9139
21.9139
21.9139
21.9139
21.9139
21.9139
21.9139
21.9139
21.9139
21.9139
21.9139
21.9139
21.9139
21.9139
21.9139
21.9139
21.9139
21.9139
21.9139
21.9139
21.9139
21.9139
21.9139
21.9139
21.9139
21.9139
21.9139
21.9139
21.9139
21.9139
21.9139
21.9139
21.9139
21.9139
21.9139
21.9139
21.9139
21.9139
21.9139
21.9139
21.9139
21.9139
21.9139
21.9139
21.9139
21.9139
21.9139
21.9139
21.9139
21.9139
21.9139
21.9139
21.9139
21.9139
21.9139
21.9139
21.9139
21.9139
21.9139
21.9139
21.9139
21.9139
21.9139
21.9139
21.9139
21.9139
21.9139
21.9139
21.9139
21.9139
21.9139
21.9139
21.9139
21.9139
21.9139
21.9139
21.9139
21.9139
21.9139
21.9139
21.9139
21.9139
21.9139
21.9139
21.9139
21.9139
21.9139
21.9139
21.9139
21.9139
21.9139
21.9139
21.9139
21.9139
21.9139
21.9139
21.9139
21.9139
21.9139
21.9139
21.9139
21.9139
21.9139
21.9139
21.9139
21.9139
21.9139
21.9139
21.9139
21.9139
21.9139
21.9139
21.9139
21.9139
21.9139
21.9139
21.9139
21.9139
21.9139
21.9139
21.9139
21.9139
21.9139
21.9139
21.9139
21.9139
21.9139
21.9139
21.9139
21.9139
21.9139
21.9139
21.9139
21.9139
21.9139
21.9139
21.9139
21.9139
21.9139
21.9139
21.9139
21.9139
21.9139
21.9139
21.9139
21.9139
21.9139
21.9139
21.9139
21.9139
21.9139
21.9139
21.9139
21.9139
21.9139
21.9139
21.9139
21.9139
21.9139
21.9139
21.9139
21.9139
21.9139
21.9139
21.9139
21.9139
21.9139
21.9139
21.9139
21.9139
21.9139
21.9139
21.9139
21.9139
21.9139
21.9139
21.9139
21.9139
21.9139
21.9139
21.9139
21.9139
21.9139
21.9139
21.9139
21.9139
21.9139
21.9139
21.9139
21.9139
21.9139
21.9139
21.9139
21.9139
21.9139
21.9139
21.9139
21.9139
21.9139
21.9139
21.9139
21.9139
21.9139
21.9139
21.9139
21.9139
21.9139
21.9139
21.9139
21.9139
21.9139
21.9139
21.9139
21.9139
21.9139
21.9139
21.9139
21.9139
21.9139
21.9139
21.9139
21.9139
21.9139
21.9139
21.9139
21.9139
21.9139
21.9139
21.9139
21.9139
21.9139
21.9139
21.9139
21.9139
21.9139
21.9139
21.9139
21.9139
21.9139
21.9139
21.9139
21.9139
21.9139
21.9139
21.9139
21.9139
21.9139
21.9139
21.9139
21.9139
21.9139
21.9139
21.9139
21.9139
21.9139
21.9139
21.9139
21.9139
21.9139
21.9139
21.9139
21.9139
21.9139
21.9139
21.9139
21.9139
21.9139
21.9139
21.9139
21.9139
21.9139
21.9139
21.9139
21.9139
21.9139
21.9139
21.9139
21.9139
21.9139
21.9139
21.9139
21.9139
21.9139
21.9139
21.9139
21.9139
21.9139
21.9139
21.9139
21.9139
21.9139
21.9139
21.9139
21.9139
21.9139
21.9139
21.9139
21.9139
21.9139
21.9139
21.9139
21.9139
21.9139
21.9139
21.9139
21.9139
21.9139
21.9139
21.9139
21.9139
21.9139
21.9139
21.9139
21.9139
21.9139
21.9139
21.9139
21.9139
21.9139
21.9139
21.9139
21.9139
21.9139
21.9139
21.9139
21.9139
21.9139
21.9139
21.9139
21.9139
21.9139
21.9139
21.9139
21.9139
21.9139
21.9139
21.9139
21.9139
21.9139
21.9139
21.9139
21.9139
21.9139
21.9139
21.9139
21.9139
21.9139
21.9139
21.9139
21.9139
21.9139
21.9139
21.9139
21.9139
21.9139
21.9139
21.9139
21.9139
21.9139
21.9139
21.9139
21.9139
21.9139
21.9139
21.9139
21.9139
21.9139
21.9139
21.9139
21.9139
21.9139
21.9139
21.9139
21.9139
21.9139
21.9139
21.9139
21.9139
21.9139
21.9139
21.9139
21.9139
21.9139
21.9139
21.9139
21.9139
21.9139
21.9139
21.9139
21.9139
21.9139
21.9139
21.9139
21.9139
21.9139
21.9139
21.9139
21.9139
21.9139
21.9139
21.9139
21.9139
21.9139
21.9139
21.9139
21.9139
21.9139
21.9139
21.9139
21.9139
21.9139
21.9139
21.9139
21.9139
21.9139
21.9139
21.9139
21.9139
21.9139
21.9139
21.9139
21.9139
21.9139
21.9139
21.9139
21.9139
21.9139
21.9139
21.9139
21.9139
21.9139
21.9139
21.9139
21.9139
21.9139
21.9139
21.9139
21.9139
21.9139
21.9139
21.9139
21.9139
21.9139
21.9139
21.9139
21.9139
21.9139
21.9139
21.9139
21.9139
21.9139
21.9139
21.9139
21.9139
21.9139
21.9139
21.9139
21.9139
21.9139
21.9139
21.9139
21.9139
21.9139
21.9139
21.9139
21.9139
21.9139
21.9139
21.9139
21.9139
21.9139
21.9139
21.9139
21.9139
21.9139
21.9139
21.9139
21.9139
21.9139
21.9139
21.9139
21.9139
21.9139
21.9139
21.9139
21.9139
21.9139
21.9139
21.9139
21.9139
21.9139
21.9139
21.9139
21.9139
21.9139
21.9139
21.9139
21.9139
21.9139
21.9139
21.9139
21.9139
21.9139
21.9139
21.9139
21.9139
21.9139
21.9139
21.9139
21.9139
21.9139
21.9139
21.9139
21.9139
21.9139
21.9139
21.9139
21.9139
21.9139
21.9139
21.9139
21.9139
21.9139
21.9139
21.9139
21.9139
21.9139
21.9139
21.9139
21.9139
21.9139
21.9139
21.9139
21.9139
21.9139
21.9139
21.9139
21.9139
21.9139
21.9139
21.9139
21.9139
21.9139
21.9139
21.9139
21.9139
21.9139
21.9139
21.9139
21.9139
21.9139
21.9139
21.9139
21.9139
21.9139
21.9139
21.9139
21.9139
21.9139
21.9139
21.9139
21.9139
21.9139
21.9139
21.9139
21.9139
21.9139
21.9139
21.9139
21.9139
21.9139
21.9139
21.9139
21.9139
21.9139
21.9139
21.9139
21.9139
21.9139
21.9139
21.9139
21.9139
21.9139
21.9139
21.9139
21.9139
21.9139
21.9139
21.9139
21.9139
21.9139
21.9139
21.9139
21.9139
21.9139
21.9139
21.9139
21.9139
21.9139
21.9139
21.9139
21.9139
21.9139
21.9139
21.9139
21.9139
21.9139
21.9139
21.9139
21.9139
21.9139
21.9139
21.9139
21.9139
21.9139
21.9139
21.9139
21.9139
21.9139
21.9139
21.9139
21.9139
21.9139
21.9139
21.9139
21.9139
21.9139
21.9139
21.9139
21.9139
21.9139
21.9139
21.9139
21.9139
21.9139
21.9139
21.9139
21.9139
21.9139
21.9139
21.9139
21.9139
21.9139
21.9139
21.9139
21.9139
21.9139
21.9139
21.9139
21.9139
21.9139
21.9139
21.9139
21.9139
21.9139
21.9139
21.9139
21.9139
21.9139
21.9139
21.9139
21.9139
21.9139
21.9139
21.9139
21.9139
21.9139
21.9139
21.9139
21.9139
21.9139
21.9139
21.9139
21.9139
21.9139
21.9139
21.9139
21.9139
21.9139
21.9139
21.9139
21.9139
21.9139
21.9139
21.9139
21.9139
21.9139
21.9139
21.9139
21.9139
21.9139
21.9139
21.9139
21.9139
21.9139
21.9139
21.9139
21.9139
21.9139
21.9139
21.9139
21.9139
21.9139
21.9139
21.9139
21.9139
21.9139
21.9139
21.9139
21.9139
21.9139
21.9139
21.9139
21.9139
21.9139
21.9139
21.9139
21.9139
21.9139
21.9139
21.9139
21.9139
21.9139
21.9139
21.9139
21.9139
21.9139
21.9139
21.9139
21.9139
21.9139
21.9139
21.9139
21.9139
21.9139
21.9139
21.9139
21.9139
21.9139
21.9139
21.9139
21.9139
21.9139
21.9139
21.9139
21.9139
21.9139
21.9139
21.9139
21.9139
21.9139
21.9139
21.9139
21.9139
21.9139
21.9139
21.9139
21.9139
21.9139
21.9139
21.9139
21.9139
21.9139
21.9139
21.9139
21.9139
21.9139
21.9139
21.9139
21.9139
21.9139
21.9139
21.9139
21.9139
21.9139
21.9139
21.9139
21.9139
21.9139
21.9139
21.9139
21.9139
21.9139
21.9139
21.9139
21.9139
21.9139
21.9139
21.9139
21.9139
21.9139
21.9139
21.9139
21.9139
21.9139
21.9139
21.9139
21.9139
21.9139
21.9139
21.9139
21.9139
21.9139
21.9139
21.9139
21.9139
21.9139
21.9139
21.9139
21.9139
21.9139
21.9139
21.9139
21.9139
21.9139
21.9139
21.9139
21.9139
21.9139
21.9139
21.9139
21.9139
21.9139
21.9139
21.9139
21.9139
21.9139
21.9139
21.9139
21.9139
21.9139
21.9139
21.9139
21.9139
21.9139
21.9139
21.9139
21.9139
21.9139
21.9139
21.9139
21.9139
21.9139
21.9139
21.9139
21.9139
21.9139
21.9139
21.9139
21.9139
21.9139
21.9139
21.9139
21.9139
21.9139
21.9139
21.9139
21.9139
21.9139
21.9139
21.9139
21.9139
21.9139
21.9139
21.9139
21.9139
21.9139
21.9139
21.9139
21.9139
21.9139
21.9139
21.9139
21.9139
21.9139
21.9139
21.9139
21.9139
21.9139
21.9139
21.9139
21.9139
21.9139
21.9139
21.9139
21.9139
21.9139
21.9139
21.9139
21.9139
21.9139
21.9139
21.9139
21.9139
21.9139
21.9139
21.9139
21.9139
21.9139
21.9139
21.9139
21.9139
21.9139
21.9139
21.9139
21.9139
21.9139
21.9139
21.9139
21.9139
21.9139
21.9139
21.9139
21.9139
21.9139
21.9139
21.9139
21.9139
21.9139
21.9139
21.9139
21.9139
21.9139
21.9139
21.9139
21.9139
21.9139
21.9139
21.9139
21.9139
21.9139
21.9139
21.9139
21.9139
21.9139
21.9139
21.9139
21.9139
21.9139
21.9139
21.9139
21.9139
21.9139
21.9139
21.9139
21.9139
21.9139
21.9139
21.9139
21.9139
21.9139
21.9139
21.9139
21.9139
21.9139
21.9139
21.9139
21.9139
21.9139
21.9139
21.9139
21.9139
21.9139
21.9139
21.9139
21.9139
21.9139
21.9139
21.9139
21.9139
21.9139
21.9139
21.9139
21.9139
21.9139
21.9139
21.9139
21.9139
21.9139
21.9139
21.9139
21.9139
21.9139
21.9139
21.9139
21.9139
21.9139
21.9139
21.9139
21.9139
21.9139
21.9139
21.9139
21.9139
21.9139
21.9139
21.9139
21.9139
21.9139
21.9139
21.914
21.914
21.9139
21.9139
21.9139
21.9139
21.9139
21.9139
21.9139
21.9139
21.9139
21.9139
21.9139
21.9139
21.9139
21.9139
21.9139
21.9139
21.9139
21.9139
21.9139
21.9139
21.9139
21.9139
21.9139
21.9139
21.9139
21.9139
21.9139
21.9139
21.9139
21.9139
21.9139
21.9139
21.9139
21.9139
21.9139
21.9139
21.9139
21.9139
21.9139
21.9139
21.9139
21.9139
21.9139
21.9139
21.9139
21.9139
21.9139
21.914
21.9141
21.9143
21.9139
21.9139
21.9139
21.9139
21.9139
21.9139
21.9139
21.9139
21.9139
21.9139
21.9139
21.9139
21.9139
21.9139
21.9139
21.9139
21.9139
21.9139
21.9139
21.9139
21.9139
21.9139
21.9139
21.9139
21.9139
21.9139
21.9139
21.9139
21.9139
21.9139
21.9139
21.9139
21.9139
21.9139
21.9139
21.9139
21.9139
21.9139
21.9139
21.9139
21.9139
21.9139
21.9139
21.9139
21.9139
21.914
21.914
21.9142
21.9145
21.9152
21.9139
21.9139
21.9139
21.9139
21.9139
21.9139
21.9139
21.9139
21.9139
21.9139
21.9139
21.9139
21.9139
21.9139
21.9139
21.9139
21.9139
21.9139
21.9139
21.9139
21.9139
21.9139
21.9139
21.9139
21.9139
21.9139
21.9139
21.9139
21.9139
21.9139
21.9139
21.9139
21.9139
21.9139
21.9139
21.9139
21.9139
21.9139
21.9139
21.9139
21.9139
21.9139
21.9139
21.914
21.914
21.9141
21.9144
21.9149
21.9161
21.9185
21.9139
21.9139
21.9139
21.9139
21.9139
21.9139
21.9139
21.9139
21.9139
21.9139
21.9139
21.9139
21.9139
21.9139
21.9139
21.9139
21.9139
21.9139
21.9139
21.9139
21.9139
21.9139
21.9139
21.9139
21.9139
21.9139
21.9139
21.9139
21.9139
21.9139
21.9139
21.9139
21.9139
21.9139
21.9139
21.9139
21.9139
21.9139
21.9139
21.9139
21.9139
21.9139
21.914
21.9141
21.9143
21.9147
21.9156
21.9175
21.9213
21.9296
21.9139
21.9139
21.9139
21.9139
21.9139
21.9139
21.9139
21.9139
21.9139
21.9139
21.9139
21.9139
21.9139
21.9139
21.9139
21.9139
21.9139
21.9139
21.9139
21.9139
21.9139
21.9139
21.9139
21.9139
21.9139
21.9139
21.9139
21.9139
21.9139
21.9139
21.9139
21.9139
21.9139
21.9139
21.9139
21.9139
21.9139
21.9139
21.9139
21.9139
21.914
21.9141
21.9142
21.9145
21.9152
21.9167
21.9197
21.9259
21.9388
21.9665
21.9139
21.9139
21.9139
21.9139
21.9139
21.9139
21.9139
21.9139
21.9139
21.9139
21.9139
21.9139
21.9139
21.9139
21.9139
21.9139
21.9139
21.9139
21.9139
21.9139
21.9139
21.9139
21.9139
21.9139
21.9139
21.9139
21.9139
21.9139
21.9139
21.9139
21.9139
21.9139
21.9139
21.9139
21.9139
21.9139
21.9139
21.9139
21.914
21.914
21.9141
21.9144
21.9149
21.9161
21.9183
21.9231
21.933
21.9534
21.9961
22.0865
21.9139
21.9139
21.9139
21.9139
21.9139
21.9139
21.9139
21.9139
21.9139
21.9139
21.9139
21.9139
21.9139
21.9139
21.9139
21.9139
21.9139
21.9139
21.9139
21.9139
21.9139
21.9139
21.9139
21.9139
21.9139
21.9139
21.9139
21.9139
21.9139
21.9139
21.9139
21.9139
21.9139
21.9139
21.9139
21.9139
21.9139
21.914
21.9141
21.9143
21.9147
21.9156
21.9173
21.9209
21.9284
21.9439
21.976
22.0423
22.1802
22.4693
21.9139
21.9139
21.9139
21.9139
21.9139
21.9139
21.9139
21.9139
21.9139
21.9139
21.9139
21.9139
21.9139
21.9139
21.9139
21.9139
21.9139
21.9139
21.9139
21.9139
21.9139
21.9139
21.9139
21.9139
21.9139
21.9139
21.9139
21.9139
21.9139
21.9139
21.9139
21.9139
21.9139
21.9139
21.9139
21.914
21.914
21.9142
21.9145
21.9152
21.9165
21.9193
21.9249
21.9366
21.9607
22.0103
22.1128
22.3237
22.7569
23.645
21.9139
21.9139
21.9139
21.9139
21.9139
21.9139
21.9139
21.9139
21.9139
21.9139
21.9139
21.9139
21.9139
21.9139
21.9139
21.9139
21.9139
21.9139
21.9139
21.9139
21.9139
21.9139
21.9139
21.9139
21.9139
21.9139
21.9139
21.9139
21.9139
21.9139
21.9139
21.9139
21.9139
21.914
21.914
21.9141
21.9144
21.9149
21.9159
21.9179
21.9222
21.9309
21.9489
21.9859
22.0619
22.2182
22.5378
23.186
24.4804
26.9995
21.9139
21.9139
21.9139
21.9139
21.9139
21.9139
21.9139
21.9139
21.9139
21.9139
21.9139
21.9139
21.9139
21.9139
21.9139
21.9139
21.9139
21.9139
21.9139
21.9139
21.9139
21.9139
21.9139
21.9139
21.9139
21.9139
21.9139
21.9139
21.9139
21.9139
21.9139
21.9139
21.914
21.9141
21.9143
21.9146
21.9154
21.9169
21.9201
21.9266
21.9399
21.9673
22.0234
22.1385
22.3737
22.8514
23.8081
25.6756
29.1686
35.3312
21.9139
21.9139
21.9139
21.9139
21.9139
21.9139
21.9139
21.9139
21.9139
21.9139
21.9139
21.9139
21.9139
21.9139
21.9139
21.9139
21.9139
21.9139
21.9139
21.9139
21.9139
21.9139
21.9139
21.9139
21.9139
21.9139
21.9139
21.9139
21.9139
21.9139
21.9139
21.914
21.914
21.9142
21.9144
21.915
21.9162
21.9185
21.9233
21.9331
21.9532
21.9943
22.0784
22.2503
22.5997
23.3026
24.6884
27.3247
32.0676
40.0016
52.3336
21.9139
21.9139
21.9139
21.9139
21.9139
21.9139
21.9139
21.9139
21.9139
21.9139
21.9139
21.9139
21.9139
21.9139
21.9139
21.9139
21.9139
21.9139
21.9139
21.9139
21.9139
21.9139
21.9139
21.9139
21.9139
21.9139
21.9139
21.9139
21.9139
21.9139
21.914
21.9141
21.9143
21.9147
21.9156
21.9173
21.9208
21.928
21.9426
21.9725
22.0336
22.1582
22.4116
22.923
23.9396
25.9045
29.5289
35.7833
45.7554
60.4601
81.048
21.9139
21.9139
21.9139
21.9139
21.9139
21.9139
21.9139
21.9139
21.9139
21.9139
21.9139
21.9139
21.9139
21.9139
21.9139
21.9139
21.9139
21.9139
21.9139
21.9139
21.9139
21.9139
21.9139
21.9139
21.9139
21.9139
21.9139
21.9139
21.9139
21.914
21.914
21.9142
21.9145
21.9151
21.9164
21.919
21.9242
21.9348
21.9564
22.0004
22.0901
22.2724
22.6408
23.3776
24.82
27.5402
32.3829
40.3815
52.568
69.851
93.1354
124.199
21.9139
21.9139
21.9139
21.9139
21.9139
21.9139
21.9139
21.9139
21.9139
21.9139
21.9139
21.9139
21.9139
21.9139
21.9139
21.9139
21.9139
21.9139
21.9139
21.9139
21.9139
21.9139
21.9139
21.9139
21.9139
21.9139
21.9139
21.914
21.914
21.9141
21.9143
21.9148
21.9157
21.9176
21.9213
21.929
21.9445
21.976
22.0401
22.1702
22.4333
22.9614
24.0051
26.0091
29.6788
35.9605
45.8907
60.4101
80.3459
106.721
140.869
186.127
21.9139
21.9139
21.9139
21.9139
21.9139
21.9139
21.9139
21.9139
21.9139
21.9139
21.9139
21.9139
21.9139
21.9139
21.9139
21.9139
21.9139
21.9139
21.9139
21.9139
21.9139
21.9139
21.9139
21.9139
21.9139
21.9139
21.914
21.9141
21.9142
21.9146
21.9152
21.9166
21.9193
21.9247
21.9358
21.9582
22.0037
22.0959
22.2822
22.6571
23.4026
24.8541
27.5759
32.3938
40.3076
52.3024
69.2234
91.893
121.451
159.582
208.673
276.708
21.9139
21.9139
21.9139
21.9139
21.9139
21.9139
21.9139
21.9139
21.9139
21.9139
21.9139
21.9139
21.9139
21.9139
21.9139
21.9139
21.9139
21.9139
21.9139
21.9139
21.9139
21.9139
21.9139
21.9139
21.914
21.914
21.9141
21.9144
21.9149
21.9158
21.9177
21.9216
21.9295
21.9454
21.9775
22.0423
22.1733
22.437
22.9635
23.999
25.978
29.5862
35.7401
45.4378
59.5801
78.9429
104.414
137.328
179.555
234.636
308.873
410.107
21.9139
21.9139
21.9139
21.9139
21.9139
21.9139
21.9139
21.9139
21.9139
21.9139
21.9139
21.9139
21.9139
21.9139
21.9139
21.9139
21.9139
21.9139
21.9139
21.9139
21.9139
21.9139
21.9139
21.914
21.9141
21.9142
21.9146
21.9153
21.9166
21.9194
21.9249
21.9361
21.9586
22.004
22.0954
22.2794
22.6477
23.3767
24.7902
27.4316
32.0964
39.7479
51.3353
67.6687
89.5028
117.857
154.262
200.961
262.462
345.88
452.544
570.756
21.9139
21.9139
21.9139
21.9139
21.9139
21.9139
21.9139
21.9139
21.9139
21.9139
21.9139
21.9139
21.9139
21.9139
21.9139
21.9139
21.9139
21.9139
21.9139
21.9139
21.9139
21.914
21.914
21.9141
21.9144
21.9149
21.9158
21.9178
21.9217
21.9295
21.9452
21.9767
22.0402
22.1676
22.4229
22.9304
23.9244
25.8183
29.2661
35.1462
44.4211
57.9609
76.5037
100.841
132.166
172.223
223.769
292.419
384.568
497.402
611.7
705.848
21.9139
21.9139
21.9139
21.9139
21.9139
21.9139
21.9139
21.9139
21.9139
21.9139
21.9139
21.9139
21.9139
21.9139
21.9139
21.9139
21.9139
21.9139
21.9139
21.9139
21.914
21.9141
21.9142
21.9146
21.9153
21.9166
21.9193
21.9248
21.9357
21.9575
22.0012
22.089
22.2646
22.6144
23.3042
24.6376
27.1259
31.5236
38.7551
49.7391
65.2594
86.0179
112.899
147.291
191.182
248.037
324.296
424.577
540.778
650.247
734.674
790.075
21.9139
21.9139
21.9139
21.9139
21.9139
21.9139
21.9139
21.9139
21.9139
21.9139
21.9139
21.9139
21.9139
21.9139
21.9139
21.9139
21.9139
21.914
21.914
21.9141
21.9144
21.9149
21.9158
21.9177
21.9215
21.929
21.944
21.974
22.034
22.154
22.3931
22.8665
23.7906
25.5486
28.7516
34.233
42.9208
55.6623
73.1672
96.1458
125.62
163.181
211.124
273.756
357.815
465.017
581.889
684.817
759.847
806.838
823.672
21.9139
21.9139
21.9139
21.9139
21.9139
21.9139
21.9139
21.9139
21.9139
21.9139
21.9139
21.9139
21.9139
21.9139
21.9139
21.9139
21.914
21.9141
21.9142
21.9146
21.9152
21.9165
21.9191
21.9243
21.9346
21.9551
21.9959
22.0774
22.2396
22.5614
23.1935
24.4128
26.6894
30.7269
37.4063
47.6215
62.138
81.618
106.825
138.95
179.786
232.031
300.863
392.562
505.006
620.135
715.25
781.901
819.727
830.848
833.638
21.9139
21.9139
21.9139
21.9139
21.9139
21.9139
21.9139
21.9139
21.9139
21.9139
21.9139
21.9139
21.9139
21.9139
21.914
21.914
21.9141
21.9144
21.9148
21.9157
21.9175
21.921
21.9281
21.942
21.9696
22.0246
22.134
22.351
22.7787
23.6114
25.1951
28.0888
33.0723
41.0387
52.8198
69.1062
90.5461
117.995
152.829
197.058
253.882
329.21
428.008
543.759
655.045
742.083
800.619
830.212
837.195
839.292
839.424
21.9139
21.9139
21.9139
21.9139
21.9139
21.9139
21.9139
21.9139
21.9139
21.9139
21.9139
21.9139
21.914
21.9141
21.9142
21.9145
21.9152
21.9164
21.9188
21.9236
21.933
21.9516
21.9886
22.062
22.2073
22.4941
23.0557
24.1375
26.1609
29.7698
35.7955
45.1093
58.4675
76.5043
99.8881
129.599
167.201
214.946
276.63
358.562
463.56
580.603
686.543
765.566
816.553
838.485
843.246
844.658
844.519
843.294
21.9139
21.9139
21.9139
21.9139
21.9139
21.9139
21.9139
21.9139
21.9139
21.9139
21.914
21.914
21.9141
21.9144
21.9148
21.9156
21.9173
21.9205
21.9269
21.9394
21.9642
22.0131
22.1099
22.3009
22.6758
23.404
24.7892
27.3313
31.7475
38.8913
49.5849
64.5099
84.2695
109.584
141.577
182.006
233.398
300.186
388.598
498.623
615.065
714.689
786.137
829.86
845.422
849.035
849.944
849.517
848.146
845.849
21.9139
21.9139
21.9139
21.9139
21.9139
21.9139
21.9139
21.9139
21.914
21.914
21.9141
21.9142
21.9145
21.9151
21.9162
21.9184
21.9227
21.9311
21.9477
21.9803
22.0445
22.171
22.4194
22.9039
23.8361
25.5838
28.7236
34.0276
42.3423
54.4238
70.8906
92.3416
119.575
153.873
197.181
252.351
324.408
418.951
532.652
646.854
739.714
804.108
840.902
851.745
854.651
855.088
854.418
852.864
850.552
847.679
21.914
21.914
21.914
21.914
21.914
21.914
21.914
21.914
21.9141
21.9142
21.9144
21.9148
21.9156
21.9171
21.92
21.9257
21.9368
21.9585
22.0011
22.0846
22.2484
22.5682
23.1874
24.3655
26.5378
30.3503
36.6074
46.1222
59.5798
77.5537
100.664
129.806
166.427
212.663
271.732
349.12
449.232
565.193
675.859
761.895
819.786
850.063
857.676
859.901
860.048
859.21
857.534
855.153
852.379
849.292
21.9142
21.9142
21.9142
21.9142
21.9142
21.9142
21.9142
21.9143
21.9145
21.9148
21.9153
21.9164
21.9184
21.9223
21.9298
21.9444
21.9728
22.028
22.1359
22.3462
22.7541
23.5369
25.007
27.667
32.2197
39.4771
50.1999
65.0067
84.4472
109.183
140.224
179.181
228.387
291.45
374.106
479.053
595.902
702.107
781.545
833.421
857.762
863.26
864.909
864.889
863.919
862.15
859.757
856.988
854.044
850.887
21.9153
21.9152
21.9152
21.9151
21.9151
21.9151
21.9152
21.9154
21.9158
21.9166
21.918
21.9208
21.926
21.936
21.9553
21.9923
22.0639
22.2026
22.4709
22.9872
23.9668
25.7785
28.9883
34.3386
42.6248
54.5452
70.6632
91.5259
117.854
150.779
192.076
244.283
311.398
399.127
508.057
624.555
725.73
798.962
845.256
864.401
868.628
869.843
869.653
868.566
866.727
864.334
861.617
858.708
855.706
852.515
21.9201
21.9198
21.9196
21.9193
21.9192
21.9191
21.9192
21.9197
21.9207
21.9226
21.9264
21.9336
21.9471
21.9727
22.0214
22.1145
22.2928
22.6343
23.2837
24.4991
26.7062
30.5257
36.7188
46.0446
59.1366
76.5194
98.7564
126.641
161.431
205.061
260.285
331.455
423.94
535.946
651.045
746.924
814.43
855.529
870.353
873.853
874.707
874.341
873.159
871.272
868.895
866.232
863.398
860.435
857.401
854.177
21.9399
21.9386
21.9374
21.9364
21.9357
21.9356
21.9364
21.9388
21.9438
21.9537
21.9723
22.007
22.0721
22.1945
22.4254
22.861
23.6762
25.1746
27.8361
32.3223
39.391
49.7502
63.9743
82.5675
106.126
135.524
172.15
218.094
276.328
351.495
448.313
562.496
675.367
765.925
828.207
864.494
875.916
878.954
879.488
878.974
877.714
875.8
873.451
870.846
868.081
865.196
862.197
859.129
855.868
22.0253
22.0192
22.0134
22.0083
22.0043
22.0021
22.0027
22.0076
22.02
22.0451
22.0929
22.1819
22.3462
22.65
23.2108
24.2374
26.0789
29.2616
34.4683
42.4312
53.7998
69.1016
88.8396
113.656
144.517
182.936
231.156
292.367
371.403
472.06
587.572
697.606
782.993
840.545
872.43
881.315
883.941
884.218
883.584
882.263
880.338
878.024
875.476
872.777
869.96
867.035
863.997
860.889
857.587
22.3787
22.3518
22.3259
22.3021
22.2819
22.2672
22.2615
22.2685
22.2963
22.3585
22.4797
22.704
23.1115
23.8444
25.1468
27.4086
31.1864
37.1591
46.0138
58.3426
74.6449
95.4424
121.437
153.688
193.839
244.275
308.394
391.107
495.068
611.146
717.94
798.419
851.691
879.621
886.632
888.85
888.972
888.235
886.862
884.935
882.653
880.157
877.517
874.761
871.896
868.924
865.839
862.686
859.339
23.6576
23.5503
23.4495
23.3598
23.2873
23.2412
23.2356
23.2858
23.428
23.7203
24.2621
25.2219
26.875
29.6376
34.0703
40.8194
50.5155
63.7058
80.8865
102.619
129.675
163.214
205.001
257.563
324.483
410.624
517.336
633.322
736.657
812.545
861.914
886.39
892.052
893.883
893.878
893.032
891.606
889.674
887.417
884.959
882.363
879.652
876.834
873.908
870.877
867.736
864.531
861.136
28.2843
27.8992
27.5294
27.1893
26.8969
26.6767
26.5666
26.6082
26.8737
27.4919
28.6546
30.6541
33.906
38.9414
46.3519
56.7145
70.5565
88.3984
110.86
138.794
173.459
216.739
271.292
340.859
430.131
539.044
654.404
754.204
825.812
871.577
893.21
897.932
899.293
899.146
898.16
896.661
894.711
892.457
890.01
887.43
884.738
881.94
879.038
876.031
872.924
869.712
866.446
862.997
40.2739
39.2653
38.3036
37.4323
36.7094
36.2152
36.0678
36.3719
37.3639
39.3444
42.7067
47.9331
55.5593
66.129
80.1778
98.2728
121.103
149.604
185.131
229.678
286.023
358.027
450.091
560.684
674.993
771.269
838.861
881.365
900.695
904.584
905.419
905.121
903.971
902.332
900.32
898.029
895.548
892.933
890.21
887.386
884.462
881.44
878.321
875.112
871.809
868.464
864.947
66.4218
64.3714
62.3656
60.4814
58.8171
57.509
56.7378
56.7455
57.7729
60.2659
64.6883
71.555
81.4149
94.8407
112.461
135.037
163.579
199.533
244.99
302.825
376.989
471.476
583.258
696.18
788.938
852.794
892.4
909.688
912.66
913.004
912.433
911.067
909.223
907.053
904.612
901.989
899.254
896.416
893.483
890.458
887.345
884.147
880.868
877.515
874.087
870.634
867.026
104.221
101.181
98.2045
95.4317
93.0627
91.3512
90.6061
91.2357
93.6629
98.5215
106.429
118.05
134.112
155.477
183.241
218.94
264.757
323.651
399.612
496.131
608.645
719.834
809.055
869.436
906.472
921.485
923.325
923.154
922.138
920.399
918.214
915.747
913.054
910.159
907.134
903.993
900.776
897.511
894.179
890.781
887.321
883.806
880.244
876.635
873.028
869.291
159.967
155.41
150.957
146.779
143.108
140.21
138.449
138.31
140.433
145.433
154.178
167.562
186.598
212.543
247.083
292.508
351.867
429.243
527.37
640.159
749.193
834.702
891.972
926.153
938.343
938.856
938.092
936.312
933.764
930.841
927.747
924.517
921.147
917.647
914.028
910.318
906.557
902.731
898.885
895.049
891.196
887.33
883.458
879.58
875.746
871.821
226.798
221.727
216.561
211.543
206.983
203.231
200.751
200.143
202.16
207.729
217.821
233.756
256.999
289.522
333.78
393.002
471.448
570.938
683.387
789.675
871.266
925.135
955.876
964.297
963.431
961.797
958.874
954.972
950.627
946.112
941.555
937.008
932.492
927.976
923.453
918.918
914.341
909.736
905.152
900.585
896.103
891.71
887.379
883.103
878.932
874.728
315.365
307.909
300.734
294.086
288.227
283.517
280.495
279.893
282.637
289.837
302.81
323.417
353.736
396.556
455.616
535.29
635.995
747.679
850.031
927.228
976.863
1002.21
1006.6
1003.95
1000.7
995.823
989.702
983.105
976.409
969.699
962.972
956.24
949.558
943.021
936.737
930.73
924.907
919.217
913.575
908.016
902.599
897.34
892.308
887.448
882.781
878.167
415.223
408.407
401.56
395.064
389.387
385.116
383.032
384.111
389.549
400.875
419.963
449.151
491.659
552.103
634.398
736.759
846.708
944.306
1015.17
1058.13
1076.73
1076.68
1071.47
1065.03
1056.7
1046.99
1036.65
1026.17
1015.73
1005.38
995.162
985.129
975.334
965.827
956.657
947.899
939.684
932.075
924.885
917.997
911.288
904.85
898.719
892.94
887.55
882.343
551.984
543.109
534.899
527.814
522.413
519.436
519.881
525.067
536.643
556.678
588.023
634.681
701.066
789.178
893.877
1000.59
1090.69
1152.68
1186.2
1196.8
1191.21
1181.86
1169.98
1155.84
1140.34
1124.13
1107.65
1091.2
1074.91
1058.88
1043.2
1027.96
1013.27
999.216
985.873
973.272
961.434
950.409
940.344
931.278
922.839
914.841
907.235
900.14
893.6
887.519
721.459
713.793
707.29
702.708
701.033
703.566
711.998
728.474
755.679
796.85
855.379
933.505
1029.56
1134.91
1234.37
1312.5
1361.68
1383.86
1384.84
1372.47
1356.13
1335.82
1313.18
1289.09
1264.03
1238.43
1212.68
1187.08
1161.84
1137.16
1113.21
1090.17
1068.16
1047.34
1027.76
1009.5
992.575
976.96
962.624
949.621
938.126
927.935
918.469
909.616
901.523
894.1
963.213
963.661
968.449
979.268
998.157
1027.46
1069.7
1127.16
1201.07
1289.96
1388.2
1485.74
1569.97
1630.66
1663.76
1673.27
1663.25
1642.63
1616.33
1585.17
1551.09
1515.19
1477.89
1439.58
1400.74
1361.83
1323.25
1285.31
1248.33
1212.6
1178.37
1145.87
1115.29
1086.75
1060.33
1036.06
1013.92
993.855
975.744
959.492
945.226
932.968
921.962
911.863
902.65
1362.33
1379.38
1403.56
1436.47
1479.67
1534.3
1600.65
1677.51
1761.5
1846.93
1925.26
1987.69
2028.55
2046.94
2045.21
2027.1
1998.93
1963.36
1922.25
1877.18
1829.22
1778.85
1726.42
1672.43
1617.47
1562.15
1507.04
1452.69
1399.6
1348.26
1299.07
1252.42
1208.59
1167.79
1130.15
1095.74
1064.53
1036.44
1011.35
989.077
969.372
952.192
937.686
925.136
913.705
1882.42
1913.16
1950.44
1994.82
2046.38
2104.44
2167.29
2232.03
2294.56
2350.12
2393.63
2421.32
2432.02
2426.95
2408.15
2377.64
2339.24
2295.3
2246.67
2193.86
2137.24
2077.01
2013.43
1946.92
1878.04
1807.47
1735.93
1664.24
1593.25
1523.8
1456.68
1392.58
1332.06
1275.55
1223.34
1175.59
1132.34
1093.54
1059.03
1028.58
1001.91
978.674
958.575
941.871
927.696
2365
2399.79
2438.76
2481.45
2526.81
2573.17
2618.29
2659.24
2692.61
2715.77
2727.19
2726.4