/*--------------------------------*- C++ -*----------------------------------*\
| =========                 |                                                 |
| \\      /  F ield         | OpenFOAM: The Open Source CFD Toolbox           |
|  \\    /   O peration     | Version:  v1706                                 |
|   \\  /    A nd           | Web:      www.OpenFOAM.com                      |
|    \\/     M anipulation  |                                                 |
\*---------------------------------------------------------------------------*/
FoamFile
{
    version     2.0;
    format      ascii;
    class       volScalarField;
    location    "5e-06";
    object      Tov;
}
// * * * * * * * * * * * * * * * * * * * * * * * * * * * * * * * * * * * * * //

dimensions      [0 0 0 1 0 0 0];


internalField   nonuniform List<scalar> 
30038
(
144.4
144.4
144.4
144.4
144.4
144.4
144.4
144.4
144.4
144.4
144.4
144.4
144.4
144.4
144.4
144.4
144.4
144.4
144.4
144.4
144.4
144.4
144.4
144.4
144.4
144.4
144.4
144.4
144.4
144.4
144.4
144.4
144.4
144.4
144.4
144.4
144.4
144.4
144.4
144.4
144.4
144.4
144.4
144.4
144.4
144.4
144.4
144.4
144.4
144.4
144.4
144.4
144.4
144.4
144.4
144.4
144.4
144.4
144.4
144.4
144.4
144.4
144.4
144.4
144.4
144.4
144.4
144.4
144.4
144.4
144.4
144.4
144.4
144.4
144.4
144.4
144.4
144.4
144.4
144.4
144.4
144.4
144.4
144.4
144.4
144.4
144.4
144.4
144.4
144.4
144.4
144.4
144.4
144.4
144.4
144.4
144.4
144.4
144.4
144.4
144.4
144.4
144.4
144.4
144.4
144.4
144.4
144.4
144.4
144.4
144.4
144.4
144.4
144.4
144.4
144.4
144.4
144.4
144.4
144.4
144.4
144.4
144.4
144.4
144.4
144.4
144.4
144.4
144.4
144.4
144.4
144.4
144.4
144.4
144.4
144.4
144.4
144.4
144.4
144.4
144.4
144.4
144.4
144.4
144.4
144.4
144.4
144.4
144.4
144.4
144.4
144.4
144.4
144.4
144.4
144.4
144.4
144.4
144.4
144.4
144.4
144.4
144.4
144.4
144.4
144.4
144.4
144.4
144.4
144.4
144.4
144.4
144.4
144.4
144.4
144.4
144.4
144.4
144.4
144.4
144.4
144.4
144.4
144.4
144.4
144.4
144.4
144.4
144.4
144.4
144.4
144.4
144.4
144.4
144.4
144.4
144.4
144.4
144.4
144.4
144.4
144.4
144.4
144.4
144.4
144.4
144.4
144.4
144.4
144.4
144.4
144.4
144.4
144.4
144.4
144.4
144.4
144.4
144.4
144.4
144.4
144.4
144.4
144.4
144.4
144.4
144.4
144.4
144.4
144.4
144.4
144.4
144.4
144.4
144.4
144.4
144.4
144.4
144.4
144.4
144.4
144.4
144.4
144.4
144.4
144.4
144.4
144.4
144.4
144.4
144.4
144.4
144.4
144.4
144.4
144.4
144.4
144.4
144.4
144.4
144.4
144.4
144.4
144.4
144.4
144.4
144.4
144.4
144.4
144.4
144.4
144.4
144.4
144.4
144.4
144.4
144.4
144.4
144.4
144.4
144.4
144.4
144.4
144.4
144.4
144.4
144.4
144.4
144.4
144.4
144.4
144.4
144.4
144.4
144.4
144.4
144.4
144.4
144.4
144.4
144.4
144.4
144.4
144.4
144.4
144.4
144.4
144.4
144.4
144.4
144.4
144.4
144.4
144.4
144.4
144.4
144.4
144.4
144.4
144.4
144.4
144.4
144.4
144.4
144.4
144.4
144.4
144.4
144.4
144.4
144.4
144.4
144.4
144.4
144.4
144.4
144.4
144.4
144.4
144.4
144.4
144.4
144.4
144.4
144.4
144.4
144.4
144.4
144.4
144.4
144.4
144.4
144.4
144.4
144.4
144.4
144.4
144.4
144.4
144.4
144.4
144.4
144.4
144.4
144.4
144.4
144.4
144.4
144.4
144.4
144.4
144.4
144.4
144.4
144.4
144.4
144.4
144.4
144.4
144.4
144.4
144.4
144.4
144.4
144.4
144.4
144.4
144.4
144.4
144.4
144.4
144.4
144.4
144.4
144.4
144.4
144.4
144.4
144.4
144.4
144.4
144.4
144.4
144.4
144.4
144.4
144.4
144.4
144.4
144.4
144.4
144.4
144.4
144.4
144.4
144.4
144.4
144.4
144.4
144.4
144.4
144.4
144.4
144.4
144.4
144.4
144.4
144.4
144.4
144.4
144.4
144.4
144.4
144.4
144.4
144.4
144.4
144.4
144.4
144.4
144.4
144.4
144.4
144.4
144.4
144.4
144.4
144.4
144.4
144.4
144.4
144.4
144.4
144.4
144.4
144.4
144.4
144.4
144.4
144.4
144.4
144.4
144.4
144.4
144.4
144.4
144.4
144.4
144.4
144.4
144.4
144.4
144.4
144.4
144.4
144.4
144.4
144.4
144.4
144.4
144.4
144.4
144.4
144.4
144.4
144.4
144.4
144.4
144.4
144.4
144.4
144.4
144.4
144.4
144.4
144.4
144.4
144.4
144.4
144.4
144.4
144.4
144.4
144.4
144.4
144.4
144.4
144.4
144.4
144.4
144.4
144.4
144.4
144.4
144.4
144.4
144.4
144.4
144.4
144.4
144.4
144.4
144.4
144.4
144.4
144.4
144.4
144.4
144.4
144.4
144.4
144.4
144.4
144.4
144.4
144.4
144.4
144.4
144.4
144.4
144.4
144.4
144.4
144.4
144.4
144.4
144.4
144.4
144.4
144.4
144.4
144.4
144.4
144.4
144.4
144.4
144.4
144.4
144.4
144.4
144.4
144.4
144.4
144.4
144.4
144.4
144.4
144.4
144.4
144.4
144.4
144.4
144.4
144.4
144.4
144.4
144.4
144.4
144.4
144.4
144.4
144.4
144.4
144.4
144.4
144.4
144.4
144.4
144.4
144.4
144.4
144.4
144.4
144.4
144.4
144.4
144.4
144.4
144.4
144.4
144.4
144.4
144.4
144.4
144.4
144.4
144.4
144.4
144.4
144.4
144.4
144.4
144.4
144.4
144.4
144.4
144.4
144.4
144.4
144.4
144.4
144.4
144.4
144.4
144.4
144.4
144.4
144.4
144.4
144.4
144.4
144.4
144.4
144.4
144.4
144.4
144.4
144.4
144.4
144.4
144.4
144.4
144.4
144.4
144.4
144.4
144.4
144.4
144.4
144.4
144.4
144.4
144.4
144.4
144.4
144.4
144.4
144.4
144.4
144.4
144.4
144.4
144.4
144.4
144.4
144.4
144.4
144.4
144.4
144.4
144.4
144.4
144.4
144.4
144.4
144.4
144.4
144.4
144.4
144.4
144.4
144.4
144.4
144.4
144.4
144.4
144.4
144.4
144.4
144.4
144.4
144.4
144.4
144.4
144.4
144.4
144.4
144.4
144.4
144.4
144.4
144.4
144.4
144.4
144.4
144.4
144.4
144.4
144.4
144.4
144.4
144.4
144.4
144.4
144.4
144.4
144.4
144.4
144.4
144.4
144.4
144.4
144.4
144.4
144.4
144.4
144.4
144.4
144.4
144.4
144.4
144.4
144.4
144.4
144.4
144.4
144.4
144.4
144.4
144.4
144.4
144.4
144.4
144.4
144.4
144.4
144.4
144.4
144.4
144.4
144.4
144.4
144.4
144.4
144.4
144.4
144.4
144.4
144.4
144.4
144.4
144.4
144.4
144.4
144.4
144.4
144.4
144.4
144.4
144.4
144.4
144.4
144.4
144.4
144.4
144.4
144.4
144.4
144.4
144.4
144.4
144.4
144.4
144.4
144.4
144.4
144.4
144.4
144.4
144.4
144.4
144.4
144.4
144.4
144.4
144.4
144.4
144.4
144.4
144.4
144.4
144.4
144.4
144.4
144.4
144.4
144.4
144.4
144.4
144.4
144.4
144.4
144.4
144.4
144.4
144.4
144.4
144.4
144.4
144.4
144.4
144.4
144.4
144.4
144.4
144.4
144.4
144.4
144.4
144.4
144.4
144.4
144.4
144.4
144.4
144.4
144.4
144.4
144.4
144.4
144.4
144.4
144.4
144.4
144.4
144.4
144.4
144.4
144.4
144.4
144.4
144.4
144.4
144.4
144.4
144.4
144.4
144.4
144.4
144.4
144.4
144.4
144.4
144.4
144.4
144.4
144.4
144.4
144.4
144.4
144.4
144.4
144.4
144.4
144.4
144.4
144.4
144.4
144.4
144.4
144.4
144.4
144.4
144.4
144.4
144.4
144.4
144.4
144.4
144.4
144.4
144.4
144.4
144.4
144.4
144.4
144.4
144.4
144.4
144.4
144.4
144.4
144.4
144.4
144.4
144.4
144.4
144.4
144.4
144.4
144.4
144.4
144.4
144.4
144.4
144.4
144.4
144.4
144.4
144.4
144.4
144.4
144.4
144.4
144.4
144.4
144.4
144.4
144.4
144.4
144.4
144.4
144.4
144.4
144.4
144.4
144.4
144.4
144.4
144.4
144.4
144.4
144.4
144.4
144.4
144.4
144.4
144.4
144.4
144.4
144.4
144.4
144.4
144.4
144.4
144.4
144.4
144.4
144.4
144.4
144.4
144.4
144.4
144.4
144.4
144.4
144.4
144.4
144.4
144.4
144.4
144.4
144.4
144.4
144.4
144.4
144.4
144.4
144.4
144.4
144.4
144.4
144.4
144.4
144.4
144.4
144.4
144.4
144.4
144.4
144.4
144.4
144.4
144.4
144.4
144.4
144.4
144.4
144.4
144.4
144.4
144.4
144.4
144.4
144.4
144.4
144.4
144.4
144.4
144.4
144.4
144.4
144.4
144.4
144.4
144.4
144.4
144.4
144.4
144.4
144.4
144.4
144.4
144.4
144.4
144.4
144.4
144.4
144.4
144.4
144.4
144.4
144.4
144.4
144.4
144.4
144.4
144.4
144.4
144.4
144.4
144.4
144.4
144.4
144.4
144.4
144.4
144.4
144.4
144.4
144.4
144.4
144.4
144.4
144.4
144.4
144.4
144.4
144.4
144.4
144.4
144.4
144.4
144.4
144.4
144.4
144.4
144.4
144.4
144.4
144.4
144.4
144.4
144.4
144.4
144.4
144.4
144.4
144.4
144.4
144.4
144.4
144.4
144.4
144.4
144.4
144.4
144.4
144.4
144.4
144.4
144.4
144.4
144.4
144.4
144.4
144.4
144.4
144.4
144.4
144.4
144.4
144.4
144.4
144.4
144.4
144.4
144.4
144.4
144.4
144.4
144.4
144.4
144.4
144.4
144.4
144.4
144.4
144.4
144.4
144.4
144.4
144.4
144.4
144.4
144.4
144.4
144.4
144.4
144.4
144.4
144.4
144.4
144.4
144.4
144.4
144.4
144.4
144.4
144.4
144.4
144.4
144.4
144.4
144.4
144.4
144.4
144.4
144.4
144.4
144.4
144.4
144.4
144.4
144.4
144.4
144.4
144.4
144.4
144.4
144.4
144.4
144.4
144.4
144.4
144.4
144.4
144.4
144.4
144.4
144.4
144.4
144.4
144.4
144.4
144.4
144.4
144.4
144.4
144.4
144.4
144.4
144.4
144.4
144.4
144.4
144.4
144.4
144.4
144.4
144.4
144.4
144.4
144.4
144.4
144.4
144.4
144.4
144.4
144.4
144.4
144.4
144.4
144.4
144.4
144.4
144.4
144.4
144.4
144.4
144.4
144.4
144.4
144.4
144.4
144.4
144.4
144.4
144.4
144.4
144.4
144.4
144.4
144.4
144.4
144.4
144.4
144.4
144.4
144.4
144.4
144.4
144.4
144.4
144.4
144.4
144.4
144.4
144.4
144.4
144.4
144.4
144.4
144.4
144.4
144.4
144.4
144.4
144.4
144.4
144.4
144.4
144.4
144.4
144.4
144.4
144.4
144.4
144.4
144.4
144.4
144.4
144.4
144.4
144.4
144.4
144.4
144.4
144.4
144.4
144.4
144.4
144.4
144.4
144.4
144.4
144.4
144.4
144.4
144.4
144.4
144.4
144.4
144.4
144.4
144.4
144.4
144.4
144.4
144.4
144.4
144.4
144.4
144.4
144.4
144.4
144.4
144.4
144.4
144.4
144.4
144.4
144.4
144.4
144.4
144.4
144.4
144.4
144.4
144.4
144.4
144.4
144.4
144.4
144.4
144.4
144.4
144.4
144.4
144.4
144.4
144.4
144.4
144.4
144.4
144.4
144.4
144.4
144.4
144.4
144.4
144.4
144.4
144.4
144.4
144.4
144.4
144.4
144.4
144.4
144.4
144.4
144.4
144.4
144.4
144.4
144.4
144.4
144.4
144.4
144.4
144.4
144.4
144.4
144.4
144.4
144.4
144.4
144.4
144.4
144.4
144.4
144.4
144.4
144.4
144.4
144.4
144.4
144.4
144.4
144.4
144.4
144.4
144.4
144.4
144.4
144.4
144.4
144.4
144.4
144.4
144.4
144.4
144.4
144.4
144.4
144.4
144.4
144.4
144.4
144.4
144.401
144.4
144.4
144.4
144.4
144.4
144.4
144.4
144.4
144.4
144.4
144.4
144.4
144.4
144.4
144.4
144.4
144.4
144.4
144.4
144.4
144.4
144.4
144.4
144.4
144.4
144.4
144.4
144.4
144.4
144.4
144.4
144.4
144.4
144.4
144.4
144.4
144.4
144.4
144.4
144.4
144.4
144.4
144.4
144.4
144.4
144.4
144.4
144.401
144.401
144.402
144.4
144.4
144.4
144.4
144.4
144.4
144.4
144.4
144.4
144.4
144.4
144.4
144.4
144.4
144.4
144.4
144.4
144.4
144.4
144.4
144.4
144.4
144.4
144.4
144.4
144.4
144.4
144.4
144.4
144.4
144.4
144.4
144.4
144.4
144.4
144.4
144.4
144.4
144.4
144.4
144.4
144.4
144.4
144.4
144.4
144.4
144.401
144.402
144.404
144.408
144.4
144.4
144.4
144.4
144.4
144.4
144.4
144.4
144.4
144.4
144.4
144.4
144.4
144.4
144.4
144.4
144.4
144.4
144.4
144.4
144.4
144.4
144.4
144.4
144.4
144.4
144.4
144.4
144.4
144.4
144.4
144.4
144.4
144.4
144.4
144.4
144.4
144.4
144.4
144.4
144.4
144.4
144.4
144.4
144.401
144.401
144.403
144.406
144.413
144.428
144.4
144.4
144.4
144.4
144.4
144.4
144.4
144.4
144.4
144.4
144.4
144.4
144.4
144.4
144.4
144.4
144.4
144.4
144.4
144.4
144.4
144.4
144.4
144.4
144.4
144.4
144.4
144.4
144.4
144.4
144.4
144.4
144.4
144.4
144.4
144.4
144.4
144.4
144.4
144.4
144.4
144.4
144.401
144.401
144.402
144.405
144.41
144.422
144.445
144.495
144.4
144.4
144.4
144.4
144.4
144.4
144.4
144.4
144.4
144.4
144.4
144.4
144.4
144.4
144.4
144.4
144.4
144.4
144.4
144.4
144.4
144.4
144.4
144.4
144.4
144.4
144.4
144.4
144.4
144.4
144.4
144.4
144.4
144.4
144.4
144.4
144.4
144.4
144.4
144.4
144.4
144.401
144.402
144.404
144.408
144.417
144.435
144.472
144.551
144.718
144.4
144.4
144.4
144.4
144.4
144.4
144.4
144.4
144.4
144.4
144.4
144.4
144.4
144.4
144.4
144.4
144.4
144.4
144.4
144.4
144.4
144.4
144.4
144.4
144.4
144.4
144.4
144.4
144.4
144.4
144.4
144.4
144.4
144.4
144.4
144.4
144.4
144.4
144.4
144.401
144.401
144.403
144.406
144.413
144.427
144.456
144.515
144.639
144.899
145.446
144.4
144.4
144.4
144.4
144.4
144.4
144.4
144.4
144.4
144.4
144.4
144.4
144.4
144.4
144.4
144.4
144.4
144.4
144.4
144.4
144.4
144.4
144.4
144.4
144.4
144.4
144.4
144.4
144.4
144.4
144.4
144.4
144.4
144.4
144.4
144.4
144.4
144.401
144.401
144.402
144.405
144.41
144.421
144.443
144.488
144.582
144.776
145.18
146.017
147.766
144.4
144.4
144.4
144.4
144.4
144.4
144.4
144.4
144.4
144.4
144.4
144.4
144.4
144.4
144.4
144.4
144.4
144.4
144.4
144.4
144.4
144.4
144.4
144.4
144.4
144.4
144.4
144.4
144.4
144.4
144.4
144.4
144.4
144.4
144.4
144.4
144.401
144.402
144.404
144.408
144.416
144.432
144.467
144.538
144.684
144.985
145.608
146.889
149.518
154.868
144.4
144.4
144.4
144.4
144.4
144.4
144.4
144.4
144.4
144.4
144.4
144.4
144.4
144.4
144.4
144.4
144.4
144.4
144.4
144.4
144.4
144.4
144.4
144.4
144.4
144.4
144.4
144.4
144.4
144.4
144.4
144.4
144.4
144.4
144.401
144.401
144.403
144.406
144.412
144.425
144.45
144.503
144.612
144.837
145.299
146.249
148.19
152.118
159.917
174.851
144.4
144.4
144.4
144.4
144.4
144.4
144.4
144.4
144.4
144.4
144.4
144.4
144.4
144.4
144.4
144.4
144.4
144.4
144.4
144.4
144.4
144.4
144.4
144.4
144.4
144.4
144.4
144.4
144.4
144.4
144.4
144.4
144.401
144.401
144.402
144.404
144.409
144.418
144.438
144.477
144.558
144.724
145.065
145.765
147.195
150.095
155.878
167.067
187.635
222.614
144.4
144.4
144.4
144.4
144.4
144.4
144.4
144.4
144.4
144.4
144.4
144.4
144.4
144.4
144.4
144.4
144.4
144.4
144.4
144.4
144.4
144.4
144.4
144.4
144.4
144.4
144.4
144.4
144.4
144.4
144.4
144.4
144.401
144.402
144.403
144.407
144.414
144.428
144.457
144.517
144.639
144.889
145.401
146.447
148.571
152.831
161.178
176.849
204.363
248.495
312.165
144.4
144.4
144.4
144.4
144.4
144.4
144.4
144.4
144.4
144.4
144.4
144.4
144.4
144.4
144.4
144.4
144.4
144.4
144.4
144.4
144.4
144.4
144.4
144.4
144.4
144.4
144.4
144.4
144.4
144.4
144.401
144.401
144.402
144.405
144.41
144.421
144.442
144.486
144.575
144.757
145.129
145.887
147.429
150.536
156.684
168.455
189.773
225.369
279.101
352.063
441.854
144.4
144.4
144.4
144.4
144.4
144.4
144.4
144.4
144.4
144.4
144.4
144.4
144.4
144.4
144.4
144.4
144.4
144.4
144.4
144.4
144.4
144.4
144.4
144.4
144.4
144.4
144.4
144.4
144.4
144.4
144.401
144.402
144.404
144.407
144.415
144.431
144.462
144.527
144.659
144.927
145.473
146.583
148.825
153.295
161.987
178.16
206.246
250.69
313.951
395.134
490.436
594.372
144.4
144.4
144.4
144.4
144.4
144.4
144.4
144.4
144.4
144.4
144.4
144.4
144.4
144.4
144.4
144.4
144.4
144.4
144.4
144.4
144.4
144.4
144.4
144.4
144.4
144.4
144.4
144.4
144.401
144.401
144.403
144.405
144.411
144.422
144.445
144.492
144.586
144.778
145.169
145.962
147.564
150.776
157.093
169.107
190.705
226.486
280.073
352.24
440.403
539.702
644.272
748.16
144.4
144.4
144.4
144.4
144.4
144.4
144.4
144.4
144.4
144.4
144.4
144.4
144.4
144.4
144.4
144.4
144.4
144.4
144.4
144.4
144.4
144.4
144.4
144.4
144.4
144.4
144.4
144.401
144.402
144.404
144.408
144.416
144.433
144.466
144.533
144.67
144.948
145.51
146.646
148.929
153.456
162.211
178.412
206.396
250.477
313.006
393.06
486.794
588.751
692.882
793.099
884.244
144.4
144.4
144.4
144.4
144.4
144.4
144.4
144.4
144.4
144.4
144.4
144.4
144.4
144.4
144.4
144.4
144.4
144.4
144.4
144.4
144.4
144.4
144.4
144.4
144.4
144.401
144.401
144.403
144.406
144.412
144.423
144.447
144.495
144.592
144.788
145.183
145.983
147.59
150.795
157.07
168.95
190.225
225.379
277.967
348.815
435.515
533.384
636.711
739.423
835.675
919.906
987.059
144.4
144.4
144.4
144.4
144.4
144.4
144.4
144.4
144.4
144.4
144.4
144.4
144.4
144.4
144.4
144.4
144.4
144.4
144.4
144.4
144.4
144.4
144.4
144.401
144.401
144.402
144.404
144.408
144.417
144.433
144.467
144.535
144.673
144.95
145.508
146.631
148.876
153.308
161.846
177.6
204.776
247.607
308.502
386.747
478.781
579.442
682.939
783.342
875.049
952.641
1011.18
1049.66
144.4
144.4
144.4
144.4
144.4
144.4
144.4
144.4
144.4
144.4
144.4
144.4
144.4
144.4
144.4
144.4
144.4
144.4
144.4
144.4
144.4
144.4
144.401
144.401
144.403
144.406
144.412
144.424
144.447
144.495
144.591
144.783
145.171
145.949
147.508
150.6
156.632
168.022
188.411
222.16
272.844
341.502
426.051
522.143
624.388
727.025
824.318
910.961
981.627
1032.49
1063.89
1080.73
144.4
144.4
144.4
144.4
144.4
144.4
144.4
144.4
144.4
144.4
144.4
144.4
144.4
144.4
144.4
144.4
144.4
144.4
144.4
144.4
144.401
144.401
144.402
144.404
144.408
144.417
144.433
144.466
144.533
144.666
144.933
145.47
146.543
148.678
152.877
160.945
175.825
201.555
242.321
300.698
376.325
466.036
565.005
667.776
768.685
862.244
943.346
1007.01
1050.67
1076.29
1089.34
1095.75
144.4
144.4
144.4
144.4
144.4
144.4
144.4
144.4
144.4
144.4
144.4
144.4
144.4
144.4
144.4
144.4
144.4
144.4
144.401
144.402
144.403
144.406
144.412
144.423
144.446
144.492
144.584
144.767
145.134
145.868
147.329
150.217
155.833
166.431
185.444
217.1
265.054
330.676
412.337
506.094
606.884
709.272
807.743
897.069
972.306
1029.06
1066.17
1086.93
1097.16
1102.2
1104.57
144.4
144.4
144.4
144.4
144.4
144.4
144.4
144.4
144.4
144.4
144.4
144.4
144.4
144.4
144.4
144.4
144.401
144.401
144.402
144.404
144.408
144.416
144.432
144.464
144.526
144.652
144.901
145.4
146.392
148.358
152.211
159.604
173.262
197.01
234.991
290.03
362.239
448.946
545.715
647.402
748.644
844.107
928.819
998.018
1048.14
1079.43
1096.18
1104.27
1108.28
1110.02
1111.37
144.4
144.4
144.4
144.4
144.4
144.4
144.4
144.4
144.4
144.4
144.4
144.4
144.4
144.4
144.4
144.401
144.401
144.403
144.406
144.411
144.422
144.444
144.487
144.572
144.741
145.078
145.747
147.074
149.686
154.756
164.328
181.581
210.571
255.06
316.842
394.849
485.634
584.485
686.274
785.742
877.752
957.578
1020.72
1064.63
1090.85
1104.37
1110.81
1114.02
1115.38
1116.65
1117.78
144.4
144.4
144.4
144.4
144.4
144.4
144.4
144.4
144.4
144.4
144.4
144.4
144.401
144.401
144.402
144.404
144.408
144.415
144.43
144.459
144.517
144.631
144.857
145.306
146.196
147.95
151.378
157.952
170.134
191.488
226.086
277.044
345.042
428.007
521.962
622.08
723.296
820.482
908.713
983.478
1040.69
1078.9
1100.79
1111.71
1116.93
1119.44
1120.6
1121.79
1122.82
1123.9
144.4
144.4
144.4
144.4
144.4
144.4
144.4
144.4
144.4
144.4
144.4
144.401
144.401
144.403
144.405
144.411
144.421
144.44
144.479
144.556
144.708
145.008
145.6
146.77
149.063
153.504
161.9
177.128
203.021
243.427
300.615
374.182
461.269
557.573
658.252
758.334
852.838
937.059
1006.69
1058.21
1091.31
1109.55
1118.42
1122.68
1124.6
1125.71
1126.83
1127.82
1128.84
1130
144.4
144.4
144.4
144.4
144.4
144.4
144.4
144.4
144.4
144.401
144.401
144.402
144.404
144.407
144.414
144.428
144.454
144.506
144.607
144.807
145.2
145.975
147.497
150.459
156.136
166.697
185.389
216.158
262.394
325.411
403.843
494.258
592.183
692.824
791.312
882.828
962.889
1027.41
1073.59
1102.17
1117.37
1124.61
1128.14
1129.63
1130.74
1131.76
1132.72
1133.72
1134.85
1136.22
144.4
144.4
144.4
144.4
144.4
144.4
144.401
144.401
144.401
144.402
144.403
144.406
144.41
144.42
144.437
144.472
144.54
144.674
144.935
145.447
146.451
148.409
152.193
159.354
172.429
194.962
230.818
282.74
351.073
433.654
526.666
625.579
725.677
822.205
910.512
986.336
1045.87
1087.11
1111.74
1124.43
1130.41
1133.34
1134.54
1135.62
1136.56
1137.49
1138.49
1139.63
1140.98
1142.59
144.402
144.402
144.402
144.402
144.402
144.402
144.402
144.403
144.404
144.405
144.409
144.415
144.428
144.452
144.498
144.587
144.761
145.101
145.762
147.052
149.55
154.328
163.244
179.178
205.859
246.877
304.202
377.271
463.304
558.257
657.61
756.747
851.028
935.978
1007.56
1062.3
1099.04
1120.27
1130.91
1135.89
1138.31
1139.32
1140.34
1141.25
1142.17
1143.17
1144.32
1145.68
1147.27
1149.14
144.409
144.409
144.408
144.408
144.408
144.408
144.408
144.41
144.412
144.417
144.426
144.443
144.475
144.536
144.655
144.882
145.322
146.174
147.82
150.98
156.953
167.908
187.027
218.078
264.203
326.537
403.729
492.558
588.864
688.188
786.015
877.833
959.342
1026.73
1076.94
1109.63
1127.95
1136.91
1141.11
1143.09
1143.99
1144.97
1145.84
1146.75
1147.76
1148.92
1150.29
1151.89
1153.73
1155.87
144.44
144.438
144.436
144.435
144.434
144.433
144.434
144.437
144.443
144.455
144.478
144.523
144.606
144.764
145.063
145.636
146.732
148.827
152.802
160.2
173.498
196.099
231.649
282.699
349.567
430.26
521.267
618.401
717.286
813.516
902.708
980.743
1044.04
1090.01
1119.1
1134.95
1142.54
1146.12
1147.71
1148.58
1149.51
1150.36
1151.25
1152.26
1153.43
1154.81
1156.41
1158.26
1160.36
1162.77
144.567
144.559
144.551
144.544
144.54
144.539
144.544
144.559
144.59
144.65
144.765
144.98
145.381
146.135
147.556
150.231
155.218
164.32
180.287
206.628
246.704
302.387
373.247
456.809
549.404
646.879
744.957
839.342
925.785
1000.35
1059.69
1101.75
1127.65
1141.4
1147.89
1150.96
1152.24
1153.11
1153.97
1154.8
1155.68
1156.68
1157.86
1159.24
1160.85
1162.69
1164.79
1167.16
1169.84
145.117
145.078
145.041
145.008
144.981
144.966
144.969
144.999
145.075
145.23
145.526
146.076
147.091
148.963
152.408
158.684
169.841
188.832
219.124
263.636
323.534
397.763
483.53
577.116
674.447
771.36
863.667
947.254
1018.37
1073.91
1112.37
1135.48
1147.45
1153.03
1155.69
1156.74
1157.59
1158.38
1159.18
1160.04
1161.04
1162.22
1163.61
1165.21
1167.05
1169.13
1171.49
1174.13
1177.09
147.393
147.219
147.052
146.898
146.767
146.67
146.631
146.671
146.84
147.224
147.974
149.361
151.874
156.377
164.325
177.975
200.355
234.707
283.386
346.895
423.721
510.922
604.824
701.472
796.82
886.788
967.397
1035.07
1086.97
1122.14
1142.77
1153.24
1158.06
1160.36
1161.23
1162.04
1162.77
1163.54
1164.39
1165.38
1166.55
1167.93
1169.52
1171.35
1173.42
1175.75
1178.36
1181.27
1184.52
155.63
154.936
154.283
153.7
153.228
152.921
152.87
153.167
154.036
155.835
159.168
165.046
175.085
191.632
217.599
255.806
307.994
374.134
452.472
540.081
633.419
728.679
821.934
909.209
986.648
1050.84
1099.23
1131.34
1149.78
1158.95
1163.12
1165.11
1165.83
1166.56
1167.23
1167.96
1168.79
1169.76
1170.91
1172.26
1173.83
1175.63
1177.67
1179.97
1182.55
1185.42
1188.59
1192.12
185.199
182.742
180.378
178.196
176.312
174.878
174.129
174.323
175.895
179.622
186.63
198.586
217.724
246.608
287.505
341.61
408.591
486.685
573.129
664.585
757.401
847.764
931.784
1005.71
1066.28
1111.19
1140.41
1156.84
1164.84
1168.42
1170.1
1170.71
1171.33
1171.92
1172.58
1173.37
1174.29
1175.4
1176.7
1178.22
1179.97
1181.97
1184.22
1186.74
1189.55
1192.67
1196.1
1199.89
260.737
254.369
248.282
242.743
238.103
234.844
233.677
235.194
240.756
251.991
270.868
299.484
339.591
392.044
456.458
531.252
613.92
701.338
790
876.156
955.962
1025.73
1082.3
1123.6
1149.96
1164.46
1171.33
1174.32
1175.66
1176.13
1176.6
1177.07
1177.63
1178.33
1179.18
1180.2
1181.42
1182.86
1184.52
1186.43
1188.59
1191.04
1193.76
1196.79
1200.14
1203.81
1207.84
417.69
405.588
393.634
382.265
372.054
363.766
358.428
357.381
361.77
373.764
395.225
427.691
472.004
527.987
594.377
668.961
748.804
830.478
910.235
984.18
1048.62
1100.43
1137.69
1161.01
1173.49
1179.17
1181.48
1182.37
1182.58
1182.85
1183.13
1183.53
1184.06
1184.77
1185.65
1186.72
1188
1189.52
1191.28
1193.3
1195.61
1198.2
1201.1
1204.31
1207.85
1211.74
1215.99
630.879
613.206
595.77
579.246
564.55
552.896
545.767
544.954
551.944
568.905
597.092
636.942
687.825
748.04
814.947
885.208
955.032
1020.42
1077.5
1123.15
1155.48
1175.19
1185.33
1189.54
1191.02
1191.22
1191.03
1190.94
1190.9
1190.98
1191.23
1191.66
1192.28
1193.09
1194.13
1195.4
1196.91
1198.7
1200.77
1203.14
1205.82
1208.83
1212.18
1215.88
1219.92
1224.35
905.623
882.795
859.761
837.159
815.865
797.024
782.087
772.719
770.927
777.983
795.583
824.171
863.023
910.324
963.195
1017.99
1070.68
1117.28
1154.37
1180.15
1195.19
1202.22
1204.59
1204.62
1204
1203.09
1202.44
1201.85
1201.37
1201.07
1200.98
1201.1
1201.45
1202.03
1202.86
1203.96
1205.36
1207.05
1209.05
1211.39
1214.07
1217.1
1220.51
1224.28
1228.43
1232.97
1200.24
1173.81
1146.56
1119.01
1091.9
1066.24
1043.31
1024.6
1011.79
1006.65
1010.08
1023.15
1045.17
1074.55
1108.39
1143.04
1174.7
1199.9
1216.41
1225.07
1227.8
1227.22
1225.59
1223.39
1221.41
1219.88
1218.4
1217.01
1215.79
1214.77
1213.97
1213.42
1213.17
1213.2
1213.56
1214.26
1215.3
1216.7
1218.48
1220.63
1223.16
1226.1
1229.43
1233.18
1237.33
1241.9
1500.24
1469.81
1438.23
1405.86
1373.22
1341.05
1310.34
1282.31
1258.32
1239.84
1227.9
1223.53
1225.97
1234.26
1245.86
1257.68
1266.65
1270.94
1270.12
1267.07
1262.57
1257.87
1253.6
1250.03
1247.03
1244.11
1241.28
1238.6
1236.11
1233.87
1231.88
1230.19
1228.82
1227.82
1227.23
1227.1
1227.43
1228.24
1229.5
1231.23
1233.42
1236.07
1239.17
1242.74
1246.76
1251.25
1780.86
1748.35
1714.08
1678.27
1641.31
1603.74
1566.26
1529.78
1495.34
1464.04
1436.85
1414.46
1396.78
1383.15
1371.82
1360.9
1349.37
1337.47
1325.84
1315.75
1307.19
1300.04
1294.18
1288.92
1283.83
1278.84
1273.96
1269.24
1264.73
1260.51
1256.61
1253.09
1249.99
1247.37
1245.26
1243.7
1242.74
1242.45
1242.77
1243.72
1245.25
1247.36
1250.01
1253.19
1256.9
1261.14
2035.99
2000.33
1962.71
1923.21
1882
1839.37
1795.73
1751.65
1707.81
1664.93
1623.73
1584.84
1548.54
1514.74
1483.29
1454.61
1429.54
1408.66
1391.76
1378.45
1367.79
1358.93
1350.73
1342.76
1334.89
1327.07
1319.29
1311.65
1304.23
1297.13
1290.42
1284.19
1278.51
1273.46
1269.08
1265.44
1262.56
1260.47
1259.2
1258.84
1259.24
1260.42
1262.29
1264.82
1267.98
1271.76
2244.23
2206.39
2166.22
2123.71
2078.92
2031.97
1983.07
1932.52
1880.72
1828.08
1775.03
1722.26
1670.97
1622.8
1579.58
1542.8
1513.12
1489.94
1472.01
1457.88
1445.73
1434.43
1423.45
1412.49
1401.41
1390.18
1378.87
1367.59
1356.49
1345.68
1335.3
1325.46
1316.28
1307.87
1300.32
1293.72
1288.11
1283.54
1280.01
1277.54
1276.15
1275.89
1276.51
1278.01
1280.3
1283.35
2355.81
2312.5
2266.49
2217.73
2166.23
2112.02
2055.28
1996.34
1935.74
1874.29
1813.65
1756.34
1704.99
1661.48
1626.42
1599.26
1578.39
1561.74
1547.34
1533.98
1520.92
1507.76
1494.25
1480.29
1465.9
1451.17
1436.26
1421.31
1406.49
1391.97
1377.93
1364.55
1351.99
1340.42
1329.96
1320.73
1312.79
1306.2
1300.96
1297.05
1294.47
1293.26
1293.26
1294.25
1296.21
2431.46
2383.79
2333.32
2279.93
2223.65
2164.65
2103.39
2040.68
1977.8
1916.69
1859.08
1807.08
1762.91
1727.2
1699.43
1678.16
1660.95
1646.25
1632.85
1619.8
1606.56
1592.8
1578.32
1563.05
1546.99
1530.21
1512.83
1494.99
1476.88
1458.69
1440.65
1423.02
1406.05
1389.98
1375.05
1361.44
1349.33
1338.81
1329.96
1322.79
1317.28
1313.36
1311.06
1310.31
1310.73
2433.34
2381.73
2327.65
2271.23
2212.76
2152.81
2092.24
2032.32
1974.68
1921.29
1873.74
1833.1
1800.02
1774.16
1754.4
1738.23
1724.66
1712.78
1701.5
1690.16
1678.38
1665.91
1652.55
1638.19
1622.77
1606.27
1588.7
1570.14
1550.68
1530.51
1509.86
1489.01
1468.3
1448.07
1428.68
1410.45
1393.67
1378.59
1365.39
1354.16
1344.94
1337.71
1332.37
1328.94
1327.3
2332.39
2277.61
2221.6
2165
2108.65
2053.69
2001.45
1953.36
1910.61
1874.45
1845.15
1822.1
1804.51
1790.17
1777.95
1767.7
1758.43
1749.42
1740.24
1730.65
1720.43
1709.42
1697.48
1684.48
1670.3
1654.84
1638
1619.75
1600.13
1579.26
1557.35
1534.71
1511.73
1488.87
1466.59
1445.35
1425.57
1407.61
1391.74
1378.12
1366.82
1357.84
1351.06
1346.49
2261.34
2208.81
2156.47
2105.09
2055.58
2009.05
1966.58
1929.17
1897.5
1871.78
1851.46
1835.88
1823.67
1812.68
1803.57
1795.66
1788.3
1781.08
1773.73
1766.08
1757.99
1749.34
1740.01
1729.85
1718.71
1706.41
1692.76
1677.57
1660.7
1642.05
1621.64
1599.6
1576.2
1551.87
1527.1
1502.51
1478.68
1456.2
1435.56
1417.14
1401.21
1387.89
1377.19
1369.06
2188.16
2140.08
2093.48
2049.16
2007.92
1970.65
1937.99
1910.43
1888.06
1870.43
1856.77
1846.23
1836.83
1828.55
1821.48
1815.09
1809.02
1803.02
1796.94
1790.67
1784.14
1777.26
1769.95
1762.1
1753.58
1744.22
1733.81
1722.11
1708.86
1693.82
1676.76
1657.55
1636.19
1612.87
1587.94
1561.97
1535.63
1509.67
1484.83
1461.76
1441
1422.9
1407.68
1395.43
2121.84
2079.62
2039.88
2003.35
1970.6
1942.19
1918.28
1898.98
1883.86
1871.87
1862.74
1855.21
1847.95
1841.56
1835.82
1830.45
1825.25
1820.07
1814.82
1809.46
1803.94
1798.23
1792.27
1785.99
1779.3
1772.09
1764.17
1755.35
1745.38
1733.96
1720.76
1705.44
1687.74
1667.51
1644.76
1619.8
1593.14
1565.53
1537.83
1510.96
1485.73
1462.84
1442.77
1425.89
2030.29
1997.76
1968.93
1944.08
1923.45
1906.81
1894.25
1883.91
1875.96
1870.02
1864.09
1858.31
1853.12
1848.29
1843.68
1839.16
1834.65
1830.09
1825.44
1820.67
1815.73
1810.62
1805.32
1799.77
1793.92
1787.65
1780.82
1773.24
1764.65
1754.75
1743.16
1729.47
1713.28
1694.28
1672.34
1647.63
1620.6
1592.04
1562.91
1534.28
1507.13
1482.35
1460.6
1992.46
1966.9
1945.13
1927.06
1913.14
1902.53
1893.41
1886.6
1881.57
1877.01
1872.12
1867.45
1863.04
1858.83
1854.78
1850.8
1846.84
1842.86
1838.85
1834.78
1830.64
1826.4
1822.01
1817.39
1812.47
1807.23
1801.63
1795.56
1788.87
1781.33
1772.62
1762.34
1750.03
1735.17
1717.32
1696.19
1671.8
1644.54
1615.2
1584.82
1554.61
1525.78
1499.39
1965.29
1946.05
1930.42
1918.92
1909.09
1901.47
1895.75
1891.44
1888.06
1884.14
1880.08
1876.1
1872.21
1868.43
1864.75
1861.13
1857.53
1853.95
1850.38
1846.81
1843.25
1839.65
1835.99
1832.21
1828.29
1824.12
1819.6
1814.6
1809.12
1803.08
1796.29
1788.47
1779.2
1767.98
1754.2
1737.3
1716.84
1692.7
1665.19
1635.09
1603.54
1571.91
1541.63
1934.29
1923.71
1915.22
1909.07
1904.25
1900.75
1898.14
1895.41
1892.1
1888.58
1885.02
1881.48
1878.01
1874.59
1871.21
1867.85
1864.52
1861.2
1857.92
1854.65
1851.41
1848.18
1844.94
1841.65
1838.26
1834.68
1830.84
1826.58
1821.71
1816.21
1809.99
1802.82
1794.31
1783.91
1770.96
1754.75
1734.74
1710.66
1682.78
1651.85
1619.14
1586.24
1928.36
1921.4
1916.17
1912.37
1909.69
1907.76
1905.96
1903.52
1900.64
1897.47
1894.19
1890.91
1887.66
1884.44
1881.24
1878.06
1874.9
1871.77
1868.66
1865.6
1862.56
1859.56
1856.58
1853.61
1850.63
1847.6
1844.47
1841.13
1837.49
1833.3
1828.35
1822.63
1815.94
1807.98
1798.18
1785.8
1770.04
1750.2
1725.94
1697.46
1665.58
1631.75
1927.32
1923.07
1920.08
1918.19
1916.96
1915.96
1914.35
1912.15
1909.5
1906.55
1903.48
1900.39
1897.3
1894.24
1891.18
1888.14
1885.11
1882.1
1879.13
1876.18
1873.28
1870.41
1867.58
1864.78
1862.01
1859.26
1856.49
1853.67
1850.72
1847.51
1843.89
1839.51
1834.25
1827.97
1820.41
1811.02
1798.98
1783.38
1763.42
1738.69
1709.38
1676.46
1929.67
1927.52
1926.31
1925.7
1925.35
1924.59
1923.11
1921.02
1918.48
1915.67
1912.75
1909.8
1906.84
1903.88
1900.93
1897.98
1895.05
1892.13
1889.24
1886.38
1883.55
1880.76
1878.01
1875.31
1872.64
1870.03
1867.45
1864.89
1862.31
1859.64
1856.79
1853.58
1849.71
1844.87
1838.95
1831.68
1822.54
1810.62
1794.91
1774.53
1749.02
1718.68
1934.06
1934.05
1934.22
1934.17
1933.45
1931.99
1929.91
1927.42
1924.7
1921.88
1919.03
1916.16
1913.28
1910.39
1907.51
1904.63
1901.77
1898.93
1896.11
1893.32
1890.56
1887.85
1885.18
1882.56
1880.01
1877.52
1875.09
1872.7
1870.33
1867.91
1865.34
1862.47
1858.99
1854.53
1848.91
1841.84
1832.8
1820.78
1804.68
1783.56
1757.02
1941.94
1942.64
1943.2
1943.07
1942.31
1940.78
1938.67
1936.2
1933.53
1930.78
1927.98
1925.15
1922.32
1919.47
1916.61
1913.76
1910.92
1908.08
1905.27
1902.49
1899.73
1897.02
1894.35
1891.74
1889.2
1886.74
1884.36
1882.07