/*--------------------------------*- C++ -*----------------------------------*\
| =========                 |                                                 |
| \\      /  F ield         | OpenFOAM: The Open Source CFD Toolbox           |
|  \\    /   O peration     | Version:  v1706                                 |
|   \\  /    A nd           | Web:      www.OpenFOAM.com                      |
|    \\/     M anipulation  |                                                 |
\*---------------------------------------------------------------------------*/
FoamFile
{
    version     2.0;
    format      ascii;
    class       volScalarField;
    location    "5e-06";
    object      Tv;
}
// * * * * * * * * * * * * * * * * * * * * * * * * * * * * * * * * * * * * * //

dimensions      [0 0 0 1 0 0 0];


internalField   nonuniform List<scalar> 
30038
(
144.4
144.4
144.4
144.4
144.4
144.4
144.4
144.4
144.4
144.4
144.4
144.4
144.4
144.4
144.4
144.4
144.4
144.4
144.4
144.4
144.4
144.4
144.4
144.4
144.4
144.4
144.4
144.4
144.4
144.4
144.4
144.4
144.4
144.4
144.4
144.4
144.4
144.4
144.4
144.4
144.4
144.4
144.4
144.4
144.4
144.4
144.4
144.4
144.4
144.4
144.4
144.4
144.4
144.4
144.4
144.4
144.4
144.4
144.4
144.4
144.4
144.4
144.4
144.4
144.4
144.4
144.4
144.4
144.4
144.4
144.4
144.4
144.4
144.4
144.4
144.4
144.4
144.4
144.4
144.4
144.4
144.4
144.4
144.4
144.4
144.4
144.4
144.4
144.4
144.4
144.4
144.4
144.4
144.4
144.4
144.4
144.4
144.4
144.4
144.4
144.4
144.4
144.4
144.4
144.4
144.4
144.4
144.4
144.4
144.4
144.4
144.4
144.4
144.4
144.4
144.4
144.4
144.4
144.4
144.4
144.4
144.4
144.4
144.4
144.4
144.4
144.4
144.4
144.4
144.4
144.4
144.4
144.4
144.4
144.4
144.4
144.4
144.4
144.4
144.4
144.4
144.4
144.4
144.4
144.4
144.4
144.4
144.4
144.4
144.4
144.4
144.4
144.4
144.4
144.4
144.4
144.4
144.4
144.4
144.4
144.4
144.4
144.4
144.4
144.4
144.4
144.4
144.4
144.4
144.4
144.4
144.4
144.4
144.4
144.4
144.4
144.4
144.4
144.4
144.4
144.4
144.4
144.4
144.4
144.4
144.4
144.4
144.4
144.4
144.4
144.4
144.4
144.4
144.4
144.4
144.4
144.4
144.4
144.4
144.4
144.4
144.4
144.4
144.4
144.4
144.4
144.4
144.4
144.4
144.4
144.4
144.4
144.4
144.4
144.4
144.4
144.4
144.4
144.4
144.4
144.4
144.4
144.4
144.4
144.4
144.4
144.4
144.4
144.4
144.4
144.4
144.4
144.4
144.4
144.4
144.4
144.4
144.4
144.4
144.4
144.4
144.4
144.4
144.4
144.4
144.4
144.4
144.4
144.4
144.4
144.4
144.4
144.4
144.4
144.4
144.4
144.4
144.4
144.4
144.4
144.4
144.4
144.4
144.4
144.4
144.4
144.4
144.4
144.4
144.4
144.4
144.4
144.4
144.4
144.4
144.4
144.4
144.4
144.4
144.4
144.4
144.4
144.4
144.4
144.4
144.4
144.4
144.4
144.4
144.4
144.4
144.4
144.4
144.4
144.4
144.4
144.4
144.4
144.4
144.4
144.4
144.4
144.4
144.4
144.4
144.4
144.4
144.4
144.4
144.4
144.4
144.4
144.4
144.4
144.4
144.4
144.4
144.4
144.4
144.4
144.4
144.4
144.4
144.4
144.4
144.4
144.4
144.4
144.4
144.4
144.4
144.4
144.4
144.4
144.4
144.4
144.4
144.4
144.4
144.4
144.4
144.4
144.4
144.4
144.4
144.4
144.4
144.4
144.4
144.4
144.4
144.4
144.4
144.4
144.4
144.4
144.4
144.4
144.4
144.4
144.4
144.4
144.4
144.4
144.4
144.4
144.4
144.4
144.4
144.4
144.4
144.4
144.4
144.4
144.4
144.4
144.4
144.4
144.4
144.4
144.4
144.4
144.4
144.4
144.4
144.4
144.4
144.4
144.4
144.4
144.4
144.4
144.4
144.4
144.4
144.4
144.4
144.4
144.4
144.4
144.4
144.4
144.4
144.4
144.4
144.4
144.4
144.4
144.4
144.4
144.4
144.4
144.4
144.4
144.4
144.4
144.4
144.4
144.4
144.4
144.4
144.4
144.4
144.4
144.4
144.4
144.4
144.4
144.4
144.4
144.4
144.4
144.4
144.4
144.4
144.4
144.4
144.4
144.4
144.4
144.4
144.4
144.4
144.4
144.4
144.4
144.4
144.4
144.4
144.4
144.4
144.4
144.4
144.4
144.4
144.4
144.4
144.4
144.4
144.4
144.4
144.4
144.4
144.4
144.4
144.4
144.4
144.4
144.4
144.4
144.4
144.4
144.4
144.4
144.4
144.4
144.4
144.4
144.4
144.4
144.4
144.4
144.4
144.4
144.4
144.4
144.4
144.4
144.4
144.4
144.4
144.4
144.4
144.4
144.4
144.4
144.4
144.4
144.4
144.4
144.4
144.4
144.4
144.4
144.4
144.4
144.4
144.4
144.4
144.4
144.4
144.4
144.4
144.4
144.4
144.4
144.4
144.4
144.4
144.4
144.4
144.4
144.4
144.4
144.4
144.4
144.4
144.4
144.4
144.4
144.4
144.4
144.4
144.4
144.4
144.4
144.4
144.4
144.4
144.4
144.4
144.4
144.4
144.4
144.4
144.4
144.4
144.4
144.4
144.4
144.4
144.4
144.4
144.4
144.4
144.4
144.4
144.4
144.4
144.4
144.4
144.4
144.4
144.4
144.4
144.4
144.4
144.4
144.4
144.4
144.4
144.4
144.4
144.4
144.4
144.4
144.4
144.4
144.4
144.4
144.4
144.4
144.4
144.4
144.4
144.4
144.4
144.4
144.4
144.4
144.4
144.4
144.4
144.4
144.4
144.4
144.4
144.4
144.4
144.4
144.4
144.4
144.4
144.4
144.4
144.4
144.4
144.4
144.4
144.4
144.4
144.4
144.4
144.4
144.4
144.4
144.4
144.4
144.4
144.4
144.4
144.4
144.4
144.4
144.4
144.4
144.4
144.4
144.4
144.4
144.4
144.4
144.4
144.4
144.4
144.4
144.4
144.4
144.4
144.4
144.4
144.4
144.4
144.4
144.4
144.4
144.4
144.4
144.4
144.4
144.4
144.4
144.4
144.4
144.4
144.4
144.4
144.4
144.4
144.4
144.4
144.4
144.4
144.4
144.4
144.4
144.4
144.4
144.4
144.4
144.4
144.4
144.4
144.4
144.4
144.4
144.4
144.4
144.4
144.4
144.4
144.4
144.4
144.4
144.4
144.4
144.4
144.4
144.4
144.4
144.4
144.4
144.4
144.4
144.4
144.4
144.4
144.4
144.4
144.4
144.4
144.4
144.4
144.4
144.4
144.4
144.4
144.4
144.4
144.4
144.4
144.4
144.4
144.4
144.4
144.4
144.4
144.4
144.4
144.4
144.4
144.4
144.4
144.4
144.4
144.4
144.4
144.4
144.4
144.4
144.4
144.4
144.4
144.4
144.4
144.4
144.4
144.4
144.4
144.4
144.4
144.4
144.4
144.4
144.4
144.4
144.4
144.4
144.4
144.4
144.4
144.4
144.4
144.4
144.4
144.4
144.4
144.4
144.4
144.4
144.4
144.4
144.4
144.4
144.4
144.4
144.4
144.4
144.4
144.4
144.4
144.4
144.4
144.4
144.4
144.4
144.4
144.4
144.4
144.4
144.4
144.4
144.4
144.4
144.4
144.4
144.4
144.4
144.4
144.4
144.4
144.4
144.4
144.4
144.4
144.4
144.4
144.4
144.4
144.4
144.4
144.4
144.4
144.4
144.4
144.4
144.4
144.4
144.4
144.4
144.4
144.4
144.4
144.4
144.4
144.4
144.4
144.4
144.4
144.4
144.4
144.4
144.4
144.4
144.4
144.4
144.4
144.4
144.4
144.4
144.4
144.4
144.4
144.4
144.4
144.4
144.4
144.4
144.4
144.4
144.4
144.4
144.4
144.4
144.4
144.4
144.4
144.4
144.4
144.4
144.4
144.4
144.4
144.4
144.4
144.4
144.4
144.4
144.4
144.4
144.4
144.4
144.4
144.4
144.4
144.4
144.4
144.4
144.4
144.4
144.4
144.4
144.4
144.4
144.4
144.4
144.4
144.4
144.4
144.4
144.4
144.4
144.4
144.4
144.4
144.4
144.4
144.4
144.4
144.4
144.4
144.4
144.4
144.4
144.4
144.4
144.4
144.4
144.4
144.4
144.4
144.4
144.4
144.4
144.4
144.4
144.4
144.4
144.4
144.4
144.4
144.4
144.4
144.4
144.4
144.4
144.4
144.4
144.4
144.4
144.4
144.4
144.4
144.4
144.4
144.4
144.4
144.4
144.4
144.4
144.4
144.4
144.4
144.4
144.4
144.4
144.4
144.4
144.4
144.4
144.4
144.4
144.4
144.4
144.4
144.4
144.4
144.4
144.4
144.4
144.4
144.4
144.4
144.4
144.4
144.4
144.4
144.4
144.4
144.4
144.4
144.4
144.4
144.4
144.4
144.4
144.4
144.4
144.4
144.4
144.4
144.4
144.4
144.4
144.4
144.4
144.4
144.4
144.4
144.4
144.4
144.4
144.4
144.4
144.4
144.4
144.4
144.4
144.4
144.4
144.4
144.4
144.4
144.4
144.4
144.4
144.4
144.4
144.4
144.4
144.4
144.4
144.4
144.4
144.4
144.4
144.4
144.4
144.4
144.4
144.4
144.4
144.4
144.4
144.4
144.4
144.4
144.4
144.4
144.4
144.4
144.4
144.4
144.4
144.4
144.4
144.4
144.4
144.4
144.4
144.4
144.4
144.4
144.4
144.4
144.4
144.4
144.4
144.4
144.4
144.4
144.4
144.4
144.4
144.4
144.4
144.4
144.4
144.4
144.4
144.4
144.4
144.4
144.4
144.4
144.4
144.4
144.4
144.4
144.4
144.4
144.4
144.4
144.4
144.4
144.4
144.4
144.4
144.4
144.4
144.4
144.4
144.4
144.4
144.4
144.4
144.4
144.4
144.4
144.4
144.4
144.4
144.4
144.4
144.4
144.4
144.4
144.4
144.4
144.4
144.4
144.4
144.4
144.4
144.4
144.4
144.4
144.4
144.4
144.4
144.4
144.4
144.4
144.4
144.4
144.4
144.4
144.4
144.4
144.4
144.4
144.4
144.4
144.4
144.4
144.4
144.4
144.4
144.4
144.4
144.4
144.4
144.4
144.4
144.4
144.4
144.4
144.4
144.4
144.4
144.4
144.4
144.4
144.4
144.4
144.4
144.4
144.4
144.4
144.4
144.4
144.4
144.4
144.4
144.4
144.4
144.4
144.4
144.4
144.4
144.4
144.4
144.4
144.4
144.4
144.4
144.4
144.4
144.4
144.4
144.4
144.4
144.4
144.4
144.4
144.4
144.4
144.4
144.4
144.4
144.4
144.4
144.4
144.4
144.4
144.4
144.4
144.4
144.4
144.4
144.4
144.4
144.4
144.4
144.4
144.4
144.4
144.4
144.4
144.4
144.4
144.4
144.4
144.4
144.4
144.4
144.4
144.4
144.4
144.4
144.4
144.4
144.4
144.4
144.4
144.4
144.4
144.4
144.4
144.4
144.4
144.4
144.4
144.4
144.4
144.4
144.4
144.4
144.4
144.4
144.4
144.4
144.4
144.4
144.4
144.4
144.4
144.4
144.4
144.4
144.4
144.4
144.4
144.4
144.4
144.4
144.4
144.4
144.4
144.4
144.4
144.4
144.4
144.4
144.4
144.4
144.4
144.4
144.4
144.4
144.4
144.4
144.4
144.4
144.4
144.4
144.4
144.4
144.4
144.4
144.4
144.4
144.4
144.4
144.4
144.4
144.4
144.4
144.4
144.4
144.4
144.4
144.4
144.4
144.4
144.4
144.4
144.4
144.4
144.4
144.4
144.4
144.4
144.4
144.4
144.4
144.4
144.4
144.4
144.4
144.4
144.4
144.4
144.4
144.4
144.4
144.4
144.4
144.4
144.4
144.4
144.4
144.4
144.4
144.4
144.4
144.4
144.4
144.4
144.4
144.4
144.4
144.4
144.4
144.4
144.4
144.4
144.4
144.4
144.4
144.4
144.4
144.4
144.4
144.4
144.4
144.4
144.4
144.4
144.4
144.4
144.4
144.4
144.4
144.4
144.4
144.4
144.4
144.4
144.4
144.4
144.4
144.4
144.4
144.4
144.4
144.4
144.4
144.4
144.4
144.4
144.4
144.4
144.4
144.4
144.4
144.4
144.4
144.4
144.4
144.4
144.4
144.4
144.4
144.4
144.4
144.4
144.4
144.4
144.4
144.4
144.4
144.4
144.4
144.4
144.4
144.4
144.4
144.4
144.4
144.4
144.4
144.4
144.4
144.4
144.4
144.4
144.4
144.4
144.4
144.4
144.4
144.4
144.4
144.4
144.4
144.4
144.4
144.4
144.4
144.4
144.4
144.4
144.4
144.4
144.4
144.4
144.4
144.4
144.4
144.4
144.4
144.4
144.4
144.4
144.4
144.4
144.4
144.4
144.4
144.4
144.4
144.4
144.4
144.4
144.4
144.4
144.4
144.4
144.4
144.4
144.4
144.4
144.4
144.4
144.4
144.4
144.4
144.4
144.4
144.4
144.4
144.4
144.4
144.4
144.4
144.4
144.4
144.4
144.4
144.4
144.4
144.4
144.4
144.4
144.4
144.4
144.4
144.4
144.4
144.4
144.4
144.4
144.4
144.4
144.4
144.4
144.4
144.4
144.4
144.4
144.4
144.4
144.4
144.4
144.4
144.4
144.4
144.4
144.4
144.4
144.4
144.4
144.4
144.4
144.4
144.4
144.4
144.4
144.4
144.4
144.4
144.4
144.4
144.4
144.4
144.4
144.4
144.4
144.4
144.4
144.4
144.4
144.4
144.4
144.4
144.4
144.4
144.4
144.4
144.4
144.4
144.4
144.4
144.4
144.4
144.4
144.4
144.4
144.4
144.4
144.4
144.4
144.4
144.4
144.4
144.4
144.4
144.4
144.4
144.4
144.4
144.4
144.4
144.4
144.4
144.4
144.4
144.4
144.4
144.4
144.4
144.4
144.4
144.4
144.4
144.4
144.4
144.4
144.4
144.4
144.4
144.4
144.4
144.4
144.4
144.4
144.4
144.4
144.4
144.4
144.4
144.4
144.4
144.4
144.4
144.4
144.4
144.4
144.4
144.4
144.4
144.4
144.4
144.4
144.4
144.4
144.4
144.4
144.4
144.4
144.4
144.4
144.4
144.4
144.4
144.4
144.4
144.4
144.4
144.4
144.4
144.4
144.4
144.4
144.4
144.4
144.4
144.4
144.4
144.4
144.4
144.4
144.4
144.4
144.4
144.4
144.4
144.4
144.4
144.4
144.4
144.4
144.4
144.4
144.4
144.4
144.4
144.4
144.4
144.4
144.4
144.4
144.4
144.4
144.4
144.4
144.4
144.4
144.4
144.4
144.4
144.4
144.4
144.4
144.4
144.4
144.4
144.4
144.4
144.401
144.402
144.4
144.4
144.4
144.4
144.4
144.4
144.4
144.4
144.4
144.4
144.4
144.4
144.4
144.4
144.4
144.4
144.4
144.4
144.4
144.4
144.4
144.4
144.4
144.4
144.4
144.4
144.4
144.4
144.4
144.4
144.4
144.4
144.4
144.4
144.4
144.4
144.4
144.4
144.4
144.4
144.4
144.4
144.4
144.4
144.4
144.4
144.4
144.401
144.403
144.408
144.4
144.4
144.4
144.4
144.4
144.4
144.4
144.4
144.4
144.4
144.4
144.4
144.4
144.4
144.4
144.4
144.4
144.4
144.4
144.4
144.4
144.4
144.4
144.4
144.4
144.4
144.4
144.4
144.4
144.4
144.4
144.4
144.4
144.4
144.4
144.4
144.4
144.4
144.4
144.4
144.4
144.4
144.4
144.4
144.4
144.401
144.402
144.405
144.415
144.44
144.4
144.4
144.4
144.4
144.4
144.4
144.4
144.4
144.4
144.4
144.4
144.4
144.4
144.4
144.4
144.4
144.4
144.4
144.4
144.4
144.4
144.4
144.4
144.4
144.4
144.4
144.4
144.4
144.4
144.4
144.4
144.4
144.4
144.4
144.4
144.4
144.4
144.4
144.4
144.4
144.4
144.4
144.4
144.401
144.401
144.404
144.41
144.427
144.471
144.59
144.4
144.4
144.4
144.4
144.4
144.4
144.4
144.4
144.4
144.4
144.4
144.4
144.4
144.4
144.4
144.4
144.4
144.4
144.4
144.4
144.4
144.4
144.4
144.4
144.4
144.4
144.4
144.4
144.4
144.4
144.4
144.4
144.4
144.4
144.4
144.4
144.4
144.4
144.4
144.4
144.4
144.4
144.401
144.403
144.407
144.418
144.448
144.527
144.726
145.205
144.4
144.4
144.4
144.4
144.4
144.4
144.4
144.4
144.4
144.4
144.4
144.4
144.4
144.4
144.4
144.4
144.4
144.4
144.4
144.4
144.4
144.4
144.4
144.4
144.4
144.4
144.4
144.4
144.4
144.4
144.4
144.4
144.4
144.4
144.4
144.4
144.4
144.4
144.4
144.4
144.401
144.402
144.405
144.412
144.433
144.486
144.622
144.952
145.686
147.099
144.4
144.4
144.4
144.4
144.4
144.4
144.4
144.4
144.4
144.4
144.4
144.4
144.4
144.4
144.4
144.4
144.4
144.4
144.4
144.4
144.4
144.4
144.4
144.4
144.4
144.4
144.4
144.4
144.4
144.4
144.4
144.4
144.4
144.4
144.4
144.4
144.4
144.4
144.4
144.4
144.401
144.403
144.408
144.422
144.458
144.55
144.779
145.308
146.387
148.229
150.819
144.4
144.4
144.4
144.4
144.4
144.4
144.4
144.4
144.4
144.4
144.4
144.4
144.4
144.4
144.4
144.4
144.4
144.4
144.4
144.4
144.4
144.4
144.4
144.4
144.4
144.4
144.4
144.4
144.4
144.4
144.4
144.4
144.4
144.4
144.4
144.4
144.4
144.4
144.401
144.402
144.405
144.414
144.438
144.499
144.655
145.027
145.833
147.324
149.59
152.451
155.613
144.4
144.4
144.4
144.4
144.4
144.4
144.4
144.4
144.4
144.4
144.4
144.4
144.4
144.4
144.4
144.4
144.4
144.4
144.4
144.4
144.4
144.4
144.4
144.4
144.4
144.4
144.4
144.4
144.4
144.4
144.4
144.4
144.4
144.4
144.4
144.4
144.4
144.401
144.401
144.404
144.409
144.425
144.465
144.568
144.822
145.402
146.56
148.487
151.115
154.161
157.347
160.513
144.4
144.4
144.4
144.4
144.4
144.4
144.4
144.4
144.4
144.4
144.4
144.4
144.4
144.4
144.4
144.4
144.4
144.4
144.4
144.4
144.4
144.4
144.4
144.4
144.4
144.4
144.4
144.4
144.4
144.4
144.4
144.4
144.4
144.4
144.4
144.4
144.401
144.402
144.406
144.416
144.442
144.509
144.678
145.079
145.938
147.502
149.838
152.736
155.887
159.059
162.148
165.136
144.4
144.4
144.4
144.4
144.4
144.4
144.4
144.4
144.4
144.4
144.4
144.4
144.4
144.4
144.4
144.4
144.4
144.4
144.4
144.4
144.4
144.4
144.4
144.4
144.4
144.4
144.4
144.4
144.4
144.4
144.4
144.4
144.4
144.4
144.401
144.401
144.404
144.41
144.427
144.47
144.579
144.848
145.457
146.662
148.644
151.32
154.396
157.586
160.724
163.741
166.635
169.448
144.4
144.4
144.4
144.4
144.4
144.4
144.4
144.4
144.4
144.4
144.4
144.4
144.4
144.4
144.4
144.4
144.4
144.4
144.4
144.4
144.4
144.4
144.4
144.4
144.4
144.4
144.4
144.4
144.4
144.4
144.4
144.4
144.4
144.401
144.402
144.406
144.417
144.444
144.514
144.689
145.102
145.984
147.579
149.949
152.877
156.05
159.237
162.323
165.276
168.1
170.824
173.497
144.4
144.4
144.4
144.4
144.4
144.4
144.4
144.4
144.4
144.4
144.4
144.4
144.4
144.4
144.4
144.4
144.4
144.4
144.4
144.4
144.4
144.4
144.4
144.4
144.4
144.4
144.4
144.4
144.4
144.4
144.4
144.401
144.402
144.404
144.41
144.427
144.471
144.582
144.853
145.467
146.68
148.674
151.366
154.461
157.671
160.825
163.853
166.744
169.514
172.184
174.767
177.287
144.4
144.4
144.4
144.4
144.4
144.4
144.4
144.4
144.4
144.4
144.4
144.4
144.4
144.4
144.4
144.4
144.4
144.4
144.4
144.4
144.4
144.4
144.4
144.4
144.4
144.4
144.4
144.4
144.4
144.4
144.401
144.402
144.406
144.417
144.444
144.513
144.685
145.094
145.966
147.549
149.913
152.847
156.035
159.241
162.346
165.313
168.147
170.868
173.495
176.029
178.448
180.761
144.4
144.4
144.4
144.4
144.4
144.4
144.4
144.4
144.4
144.4
144.4
144.4
144.4
144.4
144.4
144.4
144.4
144.4
144.4
144.4
144.4
144.4
144.4
144.4
144.4
144.4
144.4
144.4
144.401
144.401
144.404
144.41
144.426
144.469
144.576
144.838
145.432
146.614
148.577
151.252
154.35
157.576
160.75
163.798
166.706
169.486
172.163
174.749
177.238
179.598
181.806
183.889
144.4
144.4
144.4
144.4
144.4
144.4
144.4
144.4
144.4
144.4
144.4
144.4
144.4
144.4
144.4
144.4
144.4
144.4
144.4
144.4
144.4
144.4
144.4
144.4
144.4
144.4
144.401
144.402
144.406
144.416
144.441
144.506
144.669
145.056
145.886
147.416
149.734
152.648
155.841
159.066
162.194
165.183
168.034
170.766
173.401
175.948
178.389
180.693
182.838
184.826
186.699
144.4
144.4
144.4
144.4
144.4
144.4
144.4
144.4
144.4
144.4
144.4
144.4
144.4
144.4
144.4
144.4
144.4
144.4
144.4
144.4
144.4
144.4
144.4
144.4
144.401
144.401
144.404
144.409
144.425
144.463
144.562
144.804
145.356
146.471
148.359
150.982
154.063
157.3
160.498
163.572
166.502
169.3
171.988
174.585
177.091
179.483
181.73
183.817
185.748
187.541
189.254
144.4
144.4
144.4
144.4
144.4
144.4
144.4
144.4
144.4
144.4
144.4
144.4
144.4
144.4
144.4
144.4
144.4
144.4
144.4
144.4
144.4
144.4
144.4
144.401
144.402
144.406
144.414
144.437
144.496
144.643
144.993
145.755
147.19
149.419
152.283
155.469
158.712
161.868
164.884
167.758
170.507
173.154
175.715
178.18
180.523
182.714
184.745
186.624
188.373
190.02
191.612
144.4
144.4
144.4
144.4
144.4
144.4
144.4
144.4
144.4
144.4
144.4
144.4
144.4
144.4
144.4
144.4
144.4
144.4
144.4
144.4
144.4
144.401
144.403
144.408
144.422
144.456
144.543
144.756
145.249
146.265
148.033
150.564
153.606
156.845
160.068
163.173
166.133
168.954
171.658
174.268
176.792
179.216
181.508
183.645
185.623
187.454
189.163
190.776
192.314
193.815
144.4
144.4
144.4
144.4
144.4
144.4
144.4
144.4
144.4
144.4
144.4
144.4
144.4
144.4
144.4
144.4
144.4
144.4
144.4
144.401
144.402
144.405
144.412
144.432
144.483
144.609
144.913
145.586
146.888
148.983
151.763
154.922
158.179
161.365
164.416
167.32
170.093
172.756
175.331
177.819
180.201
182.443
184.527
186.455
188.242
189.915
191.497
193.007
194.461
195.889
144.4
144.4
144.4
144.4
144.4
144.4
144.4
144.4
144.4
144.4
144.4
144.4
144.4
144.4
144.4
144.4
144.4
144.4
144.401
144.403
144.407
144.418
144.447
144.521
144.701
145.123
146.014
147.622
150.016
152.986
156.214
159.461
162.602
165.598
168.449
171.177
173.803
176.344
178.797
181.134
183.327
185.362
187.244
188.99
190.629
192.183
193.669
195.1
196.486
197.856
144.4
144.4
144.4
144.4
144.4
144.4
144.4
144.4
144.4
144.4
144.4
144.4
144.4
144.4
144.4
144.4
144.401
144.402
144.404
144.41
144.427
144.469
144.573
144.826
145.397
146.537
148.453
151.103
154.209
157.469
160.688
163.778
166.72
169.523
172.208
174.8
177.309
179.725
182.02
184.165
186.152
187.991
189.7
191.308
192.835
194.299
195.709
197.077
198.409
199.729
144.4
144.4
144.4
144.4
144.4
144.4
144.4
144.4
144.4
144.4
144.4
144.4
144.4
144.4
144.4
144.401
144.402
144.406
144.415
144.439
144.498
144.645
144.993
145.744
147.158
149.366
152.222
155.416
158.678
161.858
164.896
167.786
170.543
173.19
175.749
178.227
180.607
182.858
184.957
186.9
188.698
190.374
191.954
193.457
194.898
196.29
197.64
198.956
200.242
201.519
144.403
144.403
144.402
144.402
144.401
144.401
144.401
144.401
144.401
144.4
144.4
144.4
144.401
144.401
144.402
144.404
144.409
144.423
144.457
144.541
144.745
145.211
146.175
147.871
150.339
153.351
156.594
159.839
162.972
165.957
168.797
171.512
174.124
176.653
179.099
181.442
183.652
185.707
187.608
189.369
191.014
192.567
194.047
195.469
196.843
198.177
199.477
200.749
201.994
203.233
144.423
144.419
144.415
144.412
144.41
144.408
144.406
144.405
144.404
144.403
144.403
144.403
144.403
144.404
144.408
144.416
144.435
144.484
144.603
144.882
145.497
146.698
148.673
151.36
154.479
157.738
160.95
164.033
166.965
169.759
172.433
175.013
177.512
179.927
182.234
184.402
186.416
188.278
190.005
191.621
193.15
194.609
196.012
197.369
198.687
199.974
201.232
202.464
203.673
204.875
144.532
144.508
144.487
144.47
144.455
144.444
144.434
144.427
144.422
144.419
144.417
144.418
144.422
144.434
144.464
144.535
144.703
145.083
145.878
147.334
149.565
152.421
155.602
158.849
162.016
165.044
167.925
170.673
173.31
175.858
178.328
180.712
182.983
185.112
187.086
188.912
190.607
192.197
193.703
195.142
196.528
197.869
199.173
200.446
201.691
202.911
204.108
205.283
206.45
145.27
145.117
144.983
144.869
144.773
144.694
144.631
144.583
144.547
144.522
144.507
144.506
144.518
144.561
144.666
144.904
145.416
146.422
148.131
150.572
153.535
156.729
159.938
163.046
166.015
168.842
171.545
174.146
176.663
179.104
181.457
183.693
185.783
187.72
189.513
191.178
192.743
194.228
195.649
197.018
198.344
199.634
200.894
202.127
203.335
204.521
205.685
206.827
207.961
148.85
148.207
147.606
147.058
146.572
146.152
145.802
145.52
145.301
145.141
145.037
144.994
145.018
145.144
145.462
146.122
147.328
149.229
151.78
154.756
157.898
161.029
164.059
166.958
169.727
172.383
174.946
177.432
179.844
182.165
184.365
186.419
188.321
190.082
191.72
193.262
194.727
196.131
197.484
198.795
200.072
201.32
202.541
203.738
204.913
206.067
207.199
208.309
209.41
156.706
155.406
154.114
152.855
151.656
150.549
149.561
148.719
148.04
147.538
147.235
147.175
147.38
148.001
149.186
151.019
153.434
156.234
159.202
162.184
165.094
167.9
170.598
173.2
175.72
178.172
180.552
182.84
185.005
187.022
188.891
190.622
192.236
193.756
195.202
196.589
197.927
199.225
200.489
201.724
202.934
204.12
205.285
206.429
207.551
208.652
209.731
210.798
169.388
167.649
165.862
164.044
162.22
160.419
158.685
157.065
155.612
154.389
153.462
152.91
152.835
153.283
154.382
156.111
158.336
160.869
163.54
166.236
168.894
171.49
174.018
176.485
178.895
181.238
183.49
185.618
187.6
189.436
191.139
192.728
194.228
195.656
197.026
198.349
199.634
200.885
202.109
203.307
204.483
205.638
206.772
207.885
208.977
210.047
211.094
212.128
181.373
179.311
177.184
175.009
172.807
170.612
168.466
166.422
164.542
162.902
161.59
160.712
160.426
160.759
161.782
163.389
165.411
167.678
170.06
172.477
174.887
177.274
179.624
181.92
184.129
186.215
188.16
189.963
191.637
193.203
194.682
196.092
197.446
198.755
200.025
201.265
202.476
203.664
204.829
205.973
207.098
208.201
209.285
210.346
211.385
212.401
213.401
194.464
192.246
189.942
187.561
185.115
182.625
180.12
177.64
175.232
172.959
170.906
169.187
167.955
167.39
167.554
168.402
169.828
171.654
173.72
175.91
178.153
180.407
182.631
184.781
186.818
188.72
190.487
192.13
193.67
195.127
196.518
197.855
199.148
200.405
201.631
202.83
204.006
205.16
206.294
207.408
208.503
209.577
210.631
211.662
212.669
213.652
214.619
203.625
201.21
198.7
196.098
193.414
190.663
187.871
185.072
182.317
179.682
177.284
175.281
173.873
173.236
173.384
174.193
175.562
177.307
179.27
181.342
183.442
185.501
187.468
189.313
191.034
192.64
194.149
195.58
196.949
198.266
199.541
200.781
201.992
203.177
204.34
205.482
206.604
207.708
208.792
209.857
210.902
211.925
212.925
213.9
214.85
215.782
213.391
210.891
208.285
205.573
202.754
199.838
196.837
193.776
190.695
187.663
184.788
182.227
180.179
178.845
178.366
178.628
179.523
180.926
182.639
184.503
186.4
188.25
190.008
191.662
193.214
194.679
196.074
197.412
198.702
199.953
201.172
202.363
203.531
204.677
205.804
206.912
208.003
209.075
210.129
211.164
212.178
213.169
214.138
215.08
215.997
216.892
221.902
219.322
216.633
213.829
210.91
207.877
204.737
201.509
198.224
194.944
191.766
188.836
186.342
184.49
183.444
183.254
183.685
184.709
186.119
187.712
189.349
190.953
192.491
193.953
195.347
196.682
197.968
199.214
200.427
201.612
202.774
203.915
205.037
206.143
207.232
208.306
209.363
210.402
211.424
212.427
213.408
214.368
215.303
216.212
217.093
217.952
229.498
226.845
224.081
221.201
218.203
215.087
211.857
208.528
205.129
201.712
198.367
195.224
192.457
190.26
188.799
188.163
188.227
188.832
189.871
191.124
192.448
193.775
195.072
196.333
197.557
198.749
199.914
201.057
202.182
203.29
204.385
205.467
206.537
207.595
208.641
209.675
210.694
211.697
212.684
213.651
214.598
215.523
216.423
217.296
218.141
218.964
236.468
233.743
230.91
227.965
224.905
221.731
218.447
215.067
211.62
208.154
204.75
201.527
198.64
196.264
194.549
193.577
193.311
193.524
194.145
195.005
195.97
196.975
197.992
199.009
200.022
201.031
202.039
203.045
204.051
205.056
206.061
207.065
208.066
209.063
210.053
211.036
212.009
212.97
213.915
214.844
215.752
216.639
217.501
218.337
219.145
219.928
242.976
240.19
237.3
234.304
231.201
227.993
224.689
221.303
217.866
214.425
211.058
207.871
205.004
202.608
200.809
199.658
199.105
199.014
199.224
199.671
200.239
200.872
201.545
202.249
202.98
203.738
204.522
205.331
206.164
207.018
207.891
208.78
209.681
210.59
211.504
212.419
213.331
214.236
215.132
216.013
216.878
217.722
218.543
219.338
220.106
220.849
249.124
246.286
243.351
240.319
237.193
233.979
230.688
227.34
223.969
220.624
217.38
214.339
211.623
209.357
207.624
206.434
205.719
205.363
205.261
205.317
205.482
205.71
205.987
206.312
206.686
207.11
207.586
208.115
208.696
209.326
210.001
210.716
211.467
212.246
213.047
213.865
214.692
215.523
216.352
217.174
217.985
218.78
219.554
220.305
221.029
221.73
252.026
249.061
246.013
242.888
239.696
236.455
233.189
229.938
226.758
223.722
220.924
218.469
216.442
214.879
213.749
212.974
212.453
212.098
211.842
211.649
211.497
211.383
211.311
211.288
211.323
211.423
211.592
211.836
212.155
212.548
213.012
213.541
214.126
214.761
215.435
216.14
216.866
217.605
218.349
219.091
219.824
220.543
221.243
221.92
222.574
257.292
254.311
251.264
248.161
245.019
241.86
238.717
235.637
232.681
229.925
227.45
225.329
223.605
222.265
221.252
220.481
219.868
219.344
218.863
218.402
217.952
217.515
217.097
216.71
216.365
216.075
215.851
215.706
215.65
215.683
215.813
216.038
216.352
216.747
217.215
217.743
218.319
218.931
219.568
220.218
220.873
221.524
222.163
222.784
223.388
261.803
258.813
255.78
252.718
249.652
246.612
243.642
240.796
238.138
235.736
233.649
231.907
230.505
229.397
228.514
227.778
227.126
226.508
225.892
225.265
224.622
223.965
223.302
222.64
221.992
221.371
220.792
220.273
219.827
219.47
219.215
219.071
219.04
219.118
219.305
219.588
219.953
220.388
220.875
221.401
221.951
222.513
223.077
223.633
224.179
262.263
259.279
256.307
253.381
250.54
247.834
245.316
243.042
241.057
239.381
238.007
236.895
235.986
235.214
234.524
233.869
233.211
232.533
231.823
231.081
230.306
229.502
228.674
227.83
226.981
226.141
225.324
224.549
223.835
223.202
222.669
222.251
221.959
221.799
221.768
221.851
222.046
222.328
222.684
223.093
223.538
224.005
224.48
224.955
264.704
261.848
259.058
256.373
253.833
251.486
249.372
247.523
245.953
244.65
243.579
242.69
241.929
241.245
240.598
239.954
239.288
238.59
237.852
237.072
236.249
235.383
234.477
233.535
232.561
231.564
230.556
229.55
228.566
227.623
226.747
225.961
225.287
224.745
224.344
224.089
223.981
223.995
224.123
224.344
224.633
224.973
225.343
225.732
266.502
263.869
261.356
258.999
256.833
254.889
253.188
251.736
250.521
249.51
248.663
247.93
247.27
246.648
246.034
245.404
244.744
244.045
243.304
242.518
241.685
240.803
239.873
238.894
237.868
236.798
235.691
234.555
233.402
232.249
231.117
230.033
229.023
228.117
227.34
226.713
226.245
225.936
225.781
225.759
225.841
226.014
226.248
226.527
268.049
265.716
263.542
261.557
259.78
258.225
256.892
255.767
254.822
254.022
253.326
252.696
252.104
251.522
250.93
250.312
249.66
248.968
248.233
247.453
246.624
245.746
244.815
243.831
242.793
241.7
240.555
239.36
238.122
236.851
235.562
234.273
233.012
231.809
230.697
229.708
228.869
228.201
227.708
227.383
227.212
227.173
227.228
227.366
267.632
265.817
264.198
262.779
261.559
260.52
259.64
258.887
258.228
257.631
257.066
256.515
255.958
255.379
254.77
254.125
253.441
252.714
251.942
251.122
250.253
249.33
248.353
247.319
246.226
245.074
243.862
242.592
241.269
239.899
238.495
237.074
235.663
234.292
232.998
231.819
230.79
229.937
229.271
228.792
228.484
228.32
228.281
269.731
268.253
266.958
265.838
264.88
264.059
263.351
262.725
262.157
261.619
261.094
260.565
260.02
259.448
258.844
258.204
257.526
256.806
256.042
255.232
254.372
253.461
252.494
251.471
250.387
249.241
248.032
246.757
245.418
244.017
242.559
241.055
239.52
237.978
236.461
235.007
233.66
232.459
231.439
230.619
229.998
229.565
229.298
272.028
270.841
269.81
268.921
268.152
267.482
266.887
266.343
265.829
265.326
264.821
264.302
263.761
263.19
262.587
261.949
261.273
260.557
259.798
258.995
258.143
257.242
256.287
255.275
254.205
253.072
251.873
250.607
249.272
247.866
246.393
244.854
243.26
241.622
239.964
238.317
236.722
235.224
233.872
232.704
231.745
231
230.462
273.531
272.701
271.978
271.341
270.771
270.248
269.752
269.267
268.781
268.284
267.766
267.222
266.648
266.042
265.401
264.724
264.007
263.25
262.449
261.603
260.708
259.761
258.761
257.703
256.584
255.401
254.15
252.829
251.434
249.965
248.421
246.807
245.128
243.396
241.633
239.869
238.146
236.515
235.028
233.73
232.651
231.805
276.262
275.577
274.968
274.42
273.913
273.432
272.962
272.491
272.009
271.51
270.986
270.435
269.854
269.24
268.593
267.911
267.19
266.43
265.628
264.782
263.89
262.948
261.955
260.907
259.801
258.633
257.4
256.097
254.721
253.269
251.737
250.127
248.439
246.68
244.86
242.998
241.127
239.289
237.538
235.933
234.523
233.349
278.982
278.397
277.865
277.371
276.902
276.442
275.981
275.512
275.026
274.518
273.984
273.422
272.83
272.207
271.55
270.859
270.13
269.364
268.557
267.708
266.815
265.875
264.885
263.844
262.748
261.593
260.375
259.092
257.737
256.307
254.799
253.207
251.531
249.772
247.936
246.031
244.078
242.106
240.163
238.305
236.596
235.1
281.649
281.13
280.646
280.184
279.732
279.279
278.817
278.341
277.845
277.324
276.776
276.2
275.595
274.958
274.289
273.586
272.848
272.072
271.257
270.402
269.505
268.563
267.574
266.536
265.447
264.301
263.098
261.831
260.498
259.092
257.609
256.045
254.394
252.655
250.827
248.916
246.93
244.887
242.821
240.78
238.827
237.039
283.756
283.299
282.85
282.402
281.945
281.476
280.987
280.475
279.937
279.373
278.781
278.16
277.508
276.825
276.108
275.356
274.569
273.745
272.881
271.978
271.031
270.041
269.004
267.918
266.78
265.587
264.335
263.021
261.638
260.182
258.648
257.029
255.32
253.519
251.623
249.638
247.572
245.443
243.287
241.156
239.128
286.26
285.813
285.366
284.912
284.445
283.961
283.455
282.924
282.369
281.786
281.176
280.537
279.868
279.168
278.435
277.67
276.869
276.033
275.16
274.248
273.296
272.302
271.264
270.18
269.047
267.862
266.623
265.325
263.963
262.532
261.027
259.442
257.77
256.004
254.141
252.178
250.119
247.973
245.76
243.518
241.313
288.632
288.184
287.729
287.263
286.781
286.278
285.752
285.201
284.625
284.022
283.392
282.734
282.046
281.328
280.579
279.798
278.983
278.134
277.25
276.329
275.369
274.37
273.33
272.246
271.117
269.939
268.71
267.426
266.083
264.676
263.199
261.646
260.011
258.286
256.463
254.538
252.507
250.375
248.149
245.852