/*--------------------------------*- C++ -*----------------------------------*\
| =========                 |                                                 |
| \\      /  F ield         | OpenFOAM: The Open Source CFD Toolbox           |
|  \\    /   O peration     | Version:  v1706                                 |
|   \\  /    A nd           | Web:      www.OpenFOAM.com                      |
|    \\/     M anipulation  |                                                 |
\*---------------------------------------------------------------------------*/
FoamFile
{
    version     2.0;
    format      ascii;
    class       volVectorField;
    location    "5e-06";
    object      U;
}
// * * * * * * * * * * * * * * * * * * * * * * * * * * * * * * * * * * * * * //

dimensions      [0 1 -1 0 0 0 0];


internalField   nonuniform List<vector> 
30038
(
(2764.5 -3.81756e-11 8.34783e-15)
(2764.5 -4.21488e-11 1.0982e-15)
(2764.5 -4.30152e-11 9.07489e-15)
(2764.5 -4.02004e-11 3.52064e-15)
(2764.5 -3.99195e-11 3.78896e-15)
(2764.5 -3.50362e-11 4.75995e-15)
(2764.5 -3.98818e-11 6.14398e-15)
(2764.5 -4.02625e-11 9.79951e-15)
(2764.5 -3.93108e-11 6.84436e-15)
(2764.5 -3.91249e-11 6.74466e-16)
(2764.5 -3.7293e-11 1.03678e-14)
(2764.5 -4.09689e-11 8.5287e-15)
(2764.5 -4.6589e-11 6.52343e-15)
(2764.5 -4.6564e-11 3.06824e-15)
(2764.5 -4.79386e-11 3.69862e-15)
(2764.5 -4.64976e-11 9.3064e-15)
(2764.5 -4.76782e-11 7.75726e-15)
(2764.5 -4.63858e-11 2.4752e-15)
(2764.5 -4.70032e-11 2.47164e-15)
(2764.5 -5.02686e-11 8.86689e-15)
(2764.5 -5.15347e-11 7.90383e-15)
(2764.5 -5.41077e-11 8.51655e-15)
(2764.5 -5.83078e-11 -1.73888e-15)
(2764.5 -6.01234e-11 7.30641e-15)
(2764.5 -5.94564e-11 7.58628e-15)
(2764.5 -5.84057e-11 5.06229e-15)
(2764.5 -5.41583e-11 9.13568e-16)
(2764.5 -5.75142e-11 4.49448e-15)
(2764.5 -6.09522e-11 9.7263e-15)
(2764.5 -6.20324e-11 8.27225e-15)
(2764.5 -5.81493e-11 5.75098e-15)
(2764.5 -6.4537e-11 1.02214e-14)
(2764.5 -6.75144e-11 7.73541e-15)
(2764.5 -7.05898e-11 5.92069e-15)
(2764.5 -7.25205e-11 1.00092e-14)
(2764.5 -7.11534e-11 1.06935e-14)
(2764.5 -7.23292e-11 5.47474e-16)
(2764.5 -7.69733e-11 3.9717e-15)
(2764.5 -1.03192e-10 1.96746e-14)
(2764.5 -1.05378e-10 1.89338e-14)
(2764.5 -1.11969e-10 2.36774e-14)
(2764.5 -1.1252e-10 1.52438e-14)
(2764.5 -1.15847e-10 2.38989e-14)
(2764.5 -1.15223e-10 2.42682e-14)
(2764.5 -1.11623e-10 2.04251e-14)
(2764.5 -1.16298e-10 2.38532e-14)
(2764.5 -1.17211e-10 1.94414e-14)
(2764.5 -1.25114e-10 1.932e-14)
(2764.5 -1.23343e-10 2.54952e-14)
(2764.5 -1.21118e-10 1.6439e-14)
(2764.5 -1.27443e-10 1.81205e-14)
(2764.5 -1.26744e-10 1.88095e-14)
(2764.5 -1.3251e-10 1.71128e-14)
(2764.5 -1.3604e-10 2.06206e-14)
(2764.5 -1.36856e-10 1.94414e-14)
(2764.5 -1.44628e-10 2.01488e-14)
(2764.5 -1.43732e-10 1.60921e-14)
(2764.5 -1.45376e-10 1.83819e-14)
(2764.5 -1.46162e-10 1.65775e-14)
(2764.5 -1.49416e-10 1.86723e-14)
(2764.5 -1.50383e-10 2.0901e-14)
(2764.5 -1.57887e-10 2.10037e-14)
(2764.5 -1.61393e-10 1.77526e-14)
(2764.5 -1.70178e-10 1.84915e-14)
(2764.5 -1.72308e-10 1.89198e-14)
(2764.5 -1.71333e-10 1.71423e-14)
(2764.5 -1.72438e-10 1.83742e-14)
(2764.5 -1.81686e-10 2.35617e-14)
(2764.5 -1.83567e-10 1.25331e-14)
(2764.5 -1.77919e-10 2.26156e-14)
(2764.5 -1.8509e-10 2.91763e-14)
(2764.5 -1.83505e-10 2.11197e-14)
(2764.5 -1.92992e-10 2.49332e-14)
(2764.5 -1.97559e-10 2.0428e-14)
(2764.5 -2.03815e-10 1.9533e-14)
(2764.5 -2.08166e-10 2.05932e-14)
(2764.5 -1.85633e-10 3.31074e-14)
(2764.5 -1.81852e-10 3.70285e-14)
(2764.5 -1.86969e-10 3.60366e-14)
(2764.5 -1.91994e-10 2.79894e-14)
(2764.5 -1.93487e-10 3.25771e-14)
(2764.5 -1.97177e-10 3.28308e-14)
(2764.5 -1.93993e-10 3.46833e-14)
(2764.5 -1.98157e-10 3.02151e-14)
(2764.5 -1.97232e-10 2.93205e-14)
(2764.5 -2.03403e-10 3.11474e-14)
(2764.5 -2.03035e-10 2.8055e-14)
(2764.5 -1.99389e-10 3.01074e-14)
(2764.5 -2.02089e-10 3.13576e-14)
(2764.5 -2.04929e-10 3.34889e-14)
(2764.5 -2.07336e-10 3.09476e-14)
(2764.5 -2.13806e-10 3.51637e-14)
(2764.5 -2.16934e-10 3.33369e-14)
(2764.5 -2.2339e-10 3.51158e-14)
(2764.5 -2.27254e-10 3.28671e-14)
(2764.5 -2.31315e-10 3.29423e-14)
(2764.5 -2.34066e-10 2.79746e-14)
(2764.5 -2.35659e-10 3.17771e-14)
(2764.5 -2.36473e-10 2.94159e-14)
(2764.5 -2.40799e-10 2.71979e-14)
(2764.5 -2.4657e-10 3.32109e-14)
(2764.5 -2.55237e-10 3.44292e-14)
(2764.5 -2.66876e-10 3.06955e-14)
(2764.5 -2.73677e-10 2.6536e-14)
(2764.5 -2.76905e-10 2.79933e-14)
(2764.5 -2.83381e-10 3.26067e-14)
(2764.5 -2.93003e-10 3.06178e-14)
(2764.5 -2.93862e-10 3.37014e-14)
(2764.5 -2.99258e-10 3.30856e-14)
(2764.5 -3.00432e-10 3.24386e-14)
(2764.5 -3.06551e-10 3.26674e-14)
(2764.5 -3.13075e-10 3.7318e-14)
(2764.5 -3.25723e-10 3.04242e-14)
(2764.5 -3.33145e-10 3.17536e-14)
(2764.5 -2.56588e-10 4.503e-14)
(2764.5 -2.54416e-10 4.48459e-14)
(2764.5 -2.55724e-10 4.53761e-14)
(2764.5 -2.59988e-10 3.98723e-14)
(2764.5 -2.62749e-10 4.84712e-14)
(2764.5 -2.66953e-10 4.29353e-14)
(2764.5 -2.70364e-10 4.21573e-14)
(2764.5 -2.7212e-10 3.99539e-14)
(2764.5 -2.7883e-10 4.52234e-14)
(2764.5 -2.83585e-10 4.08776e-14)
(2764.5 -2.87736e-10 4.41434e-14)
(2764.5 -2.87283e-10 4.383e-14)
(2764.5 -2.88911e-10 4.79397e-14)
(2764.5 -2.91544e-10 4.1003e-14)
(2764.5 -2.91064e-10 3.98923e-14)
(2764.5 -2.94832e-10 4.35288e-14)
(2764.5 -2.99768e-10 3.89893e-14)
(2764.5 -3.027e-10 4.26081e-14)
(2764.5 -3.0948e-10 4.59928e-14)
(2764.5 -3.14266e-10 4.25218e-14)
(2764.5 -3.20715e-10 4.08766e-14)
(2764.5 -3.27509e-10 4.22821e-14)
(2764.5 -3.28806e-10 4.47571e-14)
(2764.5 -3.30959e-10 4.75259e-14)
(2764.5 -3.35073e-10 4.34615e-14)
(2764.5 -3.34955e-10 4.50704e-14)
(2764.5 -3.40397e-10 4.48152e-14)
(2764.5 -3.50642e-10 4.28055e-14)
(2764.5 -3.57485e-10 4.20098e-14)
(2764.5 -3.64353e-10 4.77187e-14)
(2764.5 -3.72997e-10 4.55754e-14)
(2764.5 -3.84641e-10 4.73847e-14)
(2764.5 -3.96323e-10 4.67004e-14)
(2764.5 -4.04835e-10 4.4541e-14)
(2764.5 -4.15617e-10 4.53356e-14)
(2764.5 -4.19179e-10 5.02947e-14)
(2764.5 -4.33414e-10 4.86813e-14)
(2764.5 -4.45927e-10 4.94447e-14)
(2764.5 -3.23577e-10 5.44954e-14)
(2764.5 -3.24286e-10 5.67013e-14)
(2764.5 -3.22411e-10 5.97683e-14)
(2764.5 -3.24935e-10 5.82323e-14)
(2764.5 -3.29576e-10 5.66078e-14)
(2764.5 -3.32619e-10 5.3905e-14)
(2764.5 -3.37924e-10 5.9012e-14)
(2764.5 -3.40061e-10 5.78405e-14)
(2764.5 -3.43552e-10 5.99984e-14)
(2764.5 -3.54176e-10 5.9163e-14)
(2764.5 -3.66283e-10 5.74738e-14)
(2764.5 -3.69317e-10 5.55515e-14)
(2764.5 -3.70493e-10 5.45244e-14)
(2764.5 -3.74706e-10 5.04994e-14)
(2764.5 -3.76095e-10 5.15575e-14)
(2764.5 -3.77506e-10 5.72773e-14)
(2764.5 -3.80431e-10 6.17595e-14)
(2764.5 -3.8365e-10 5.91289e-14)
(2764.5 -3.90409e-10 5.47345e-14)
(2764.5 -3.97032e-10 5.98311e-14)
(2764.5 -4.04707e-10 5.78751e-14)
(2764.5 -4.12053e-10 4.96828e-14)
(2764.5 -4.18225e-10 5.74914e-14)
(2764.5 -4.22669e-10 5.5754e-14)
(2764.5 -4.29229e-10 5.85638e-14)
(2764.5 -4.35523e-10 6.15334e-14)
(2764.5 -4.3363e-10 6.38556e-14)
(2764.5 -4.37631e-10 5.5049e-14)
(2764.5 -4.46186e-10 4.9137e-14)
(2764.5 -4.54142e-10 4.94472e-14)
(2764.5 -4.61061e-10 5.3028e-14)
(2764.5 -4.67914e-10 6.25359e-14)
(2764.5 -4.75441e-10 6.11311e-14)
(2764.5 -4.84079e-10 5.85752e-14)
(2764.5 -4.98135e-10 5.69779e-14)
(2764.5 -5.05125e-10 5.77999e-14)
(2764.5 -5.17195e-10 6.19254e-14)
(2764.5 -5.33596e-10 6.30447e-14)
(2764.5 -3.83892e-10 7.1087e-14)
(2764.5 -3.89702e-10 7.39304e-14)
(2764.5 -3.91869e-10 7.12554e-14)
(2764.5 -3.96011e-10 6.20922e-14)
(2764.5 -4.01582e-10 6.29335e-14)
(2764.5 -4.0449e-10 6.68972e-14)
(2764.5 -4.07426e-10 6.11824e-14)
(2764.5 -4.13406e-10 7.07592e-14)
(2764.5 -4.1477e-10 7.78088e-14)
(2764.5 -4.1785e-10 7.1458e-14)
(2764.5 -4.26385e-10 7.0866e-14)
(2764.5 -4.35078e-10 6.9776e-14)
(2764.5 -4.38805e-10 6.83348e-14)
(2764.5 -4.43588e-10 6.9253e-14)
(2764.5 -4.47686e-10 6.96497e-14)
(2764.5 -4.53311e-10 6.82562e-14)
(2764.5 -4.56688e-10 7.35837e-14)
(2764.5 -4.59503e-10 7.25162e-14)
(2764.5 -4.6429e-10 6.49739e-14)
(2764.5 -4.69963e-10 6.85278e-14)
(2764.5 -4.80185e-10 7.11463e-14)
(2764.5 -4.90216e-10 7.24884e-14)
(2764.5 -4.97228e-10 7.24916e-14)
(2764.5 -5.03999e-10 6.82687e-14)
(2764.5 -5.10306e-10 6.68415e-14)
(2764.5 -5.19797e-10 6.69274e-14)
(2764.5 -5.2622e-10 7.74842e-14)
(2764.5 -5.28784e-10 6.94099e-14)
(2764.5 -5.35411e-10 7.16429e-14)
(2764.5 -5.38472e-10 7.5437e-14)
(2764.5 -5.49058e-10 6.84432e-14)
(2764.5 -5.58896e-10 6.91129e-14)
(2764.5 -5.68674e-10 6.91322e-14)
(2764.5 -5.73649e-10 7.44487e-14)
(2764.5 -5.83948e-10 7.66415e-14)
(2764.5 -5.93177e-10 6.87534e-14)
(2764.5 -6.04329e-10 6.88424e-14)
(2764.5 -6.22158e-10 7.27693e-14)
(2764.5 -4.35596e-10 7.95163e-14)
(2764.5 -4.46426e-10 7.59548e-14)
(2764.5 -4.51754e-10 7.96696e-14)
(2764.5 -4.57527e-10 8.40269e-14)
(2764.5 -4.67073e-10 8.16515e-14)
(2764.5 -4.73615e-10 7.93202e-14)
(2764.5 -4.75284e-10 7.94178e-14)
(2764.5 -4.79901e-10 8.70296e-14)
(2764.5 -4.80088e-10 7.66577e-14)
(2764.5 -4.83522e-10 8.10093e-14)
(2764.5 -4.91038e-10 8.4466e-14)
(2764.5 -4.99814e-10 8.14898e-14)
(2764.5 -5.07538e-10 8.07847e-14)
(2764.5 -5.13438e-10 7.95412e-14)
(2764.5 -5.20138e-10 7.7648e-14)
(2764.5 -5.26316e-10 8.22605e-14)
(2764.5 -5.32305e-10 7.92673e-14)
(2764.5 -5.37124e-10 8.5664e-14)
(2764.5 -5.40634e-10 8.09416e-14)
(2764.5 -5.43363e-10 8.28223e-14)
(2764.5 -5.49144e-10 8.37434e-14)
(2764.5 -5.58718e-10 8.07799e-14)
(2764.5 -5.68547e-10 8.02917e-14)
(2764.5 -5.74339e-10 8.47167e-14)
(2764.5 -5.81473e-10 8.36624e-14)
(2764.5 -5.89774e-10 8.27015e-14)
(2764.5 -5.99456e-10 8.96088e-14)
(2764.5 -6.06501e-10 8.01801e-14)
(2764.5 -6.17083e-10 7.69094e-14)
(2764.5 -6.20935e-10 8.04271e-14)
(2764.5 -6.26311e-10 8.15168e-14)
(2764.5 -6.3689e-10 7.95144e-14)
(2764.5 -6.47082e-10 8.26007e-14)
(2764.5 -6.5768e-10 8.58366e-14)
(2764.5 -6.69717e-10 9.04111e-14)
(2764.5 -6.77708e-10 8.63137e-14)
(2764.5 -6.9007e-10 8.48392e-14)
(2764.5 -7.08489e-10 8.76315e-14)
(2764.5 -4.91123e-10 9.53723e-14)
(2764.5 -5.00612e-10 9.41276e-14)
(2764.5 -5.09876e-10 9.32912e-14)
(2764.5 -5.16158e-10 9.7383e-14)
(2764.5 -5.2465e-10 9.82552e-14)
(2764.5 -5.3292e-10 9.17506e-14)
(2764.5 -5.3677e-10 9.09968e-14)
(2764.5 -5.42141e-10 9.35209e-14)
(2764.5 -5.44976e-10 9.54774e-14)
(2764.5 -5.47635e-10 9.63429e-14)
(2764.5 -5.53977e-10 9.00687e-14)
(2764.5 -5.63219e-10 9.33748e-14)
(2764.5 -5.73017e-10 9.04708e-14)
(2764.5 -5.80891e-10 9.44022e-14)
(2764.5 -5.87574e-10 9.15521e-14)
(2764.5 -5.97486e-10 9.63571e-14)
(2764.5 -6.03509e-10 9.91261e-14)
(2764.5 -6.08173e-10 9.74958e-14)
(2764.5 -6.11236e-10 9.3377e-14)
(2764.5 -6.15481e-10 9.81604e-14)
(2764.5 -6.24261e-10 9.01847e-14)
(2764.5 -6.33529e-10 9.70323e-14)
(2764.5 -6.41723e-10 9.26101e-14)
(2764.5 -6.49952e-10 9.27805e-14)
(2764.5 -6.61522e-10 8.9617e-14)
(2764.5 -6.70961e-10 9.53398e-14)
(2764.5 -6.80956e-10 9.43772e-14)
(2764.5 -6.87208e-10 9.21423e-14)
(2764.5 -6.97099e-10 9.69994e-14)
(2764.5 -7.0659e-10 9.84022e-14)
(2764.5 -7.11297e-10 1.01286e-13)
(2764.5 -7.21704e-10 9.87538e-14)
(2764.5 -7.32804e-10 1.01809e-13)
(2764.5 -7.40238e-10 9.73374e-14)
(2764.5 -7.52866e-10 9.69789e-14)
(2764.5 -7.61615e-10 1.0579e-13)
(2764.5 -7.68608e-10 1.0034e-13)
(2764.5 -7.83729e-10 9.48404e-14)
(2764.5 -5.41138e-10 1.07865e-13)
(2764.5 -5.46986e-10 1.06603e-13)
(2764.5 -5.5556e-10 1.1283e-13)
(2764.5 -5.64436e-10 1.10621e-13)
(2764.5 -5.695e-10 1.09362e-13)
(2764.5 -5.75805e-10 1.08455e-13)
(2764.5 -5.85838e-10 1.14002e-13)
(2764.5 -5.95355e-10 1.08603e-13)
(2764.5 -6.01986e-10 1.08028e-13)
(2764.5 -6.06636e-10 1.08276e-13)
(2764.5 -6.09883e-10 9.93487e-14)
(2764.5 -6.15787e-10 1.09365e-13)
(2764.5 -6.25617e-10 9.99373e-14)
(2764.5 -6.32584e-10 1.06481e-13)
(2764.5 -6.42664e-10 1.09205e-13)
(2764.5 -6.49771e-10 1.09026e-13)
(2764.5 -6.57238e-10 1.11279e-13)
(2764.5 -6.68051e-10 1.05703e-13)
(2764.5 -6.78015e-10 1.05345e-13)
(2764.5 -6.83306e-10 1.05533e-13)
(2764.5 -6.88838e-10 1.06439e-13)
(2764.5 -6.95286e-10 1.06482e-13)
(2764.5 -7.06114e-10 1.05746e-13)
(2764.5 -7.15488e-10 1.02802e-13)
(2764.5 -7.22964e-10 1.05965e-13)
(2764.5 -7.33995e-10 1.07686e-13)
(2764.5 -7.44363e-10 1.10569e-13)
(2764.5 -7.53464e-10 1.06528e-13)
(2764.5 -7.62289e-10 1.07783e-13)
(2764.5 -7.71278e-10 1.06837e-13)
(2764.5 -7.82516e-10 1.09578e-13)
(2764.5 -7.92231e-10 1.09353e-13)
(2764.5 -8.0088e-10 1.12264e-13)
(2764.5 -8.1314e-10 1.08845e-13)
(2764.5 -8.2272e-10 1.15708e-13)
(2764.5 -8.32871e-10 1.16454e-13)
(2764.5 -8.41112e-10 1.12524e-13)
(2764.5 -8.49775e-10 1.10722e-13)
(2764.5 -8.63268e-10 1.08451e-13)
(2764.5 -5.99563e-10 1.22955e-13)
(2764.5 -6.03157e-10 1.15827e-13)
(2764.5 -6.07851e-10 1.16999e-13)
(2764.5 -6.16919e-10 1.23676e-13)
(2764.5 -6.24232e-10 1.23245e-13)
(2764.5 -6.29907e-10 1.2381e-13)
(2764.5 -6.37364e-10 1.26236e-13)
(2764.5 -6.50241e-10 1.17677e-13)
(2764.5 -6.61152e-10 1.17056e-13)
(2764.5 -6.70134e-10 1.14986e-13)
(2764.5 -6.74708e-10 1.20072e-13)
(2764.5 -6.77197e-10 1.16972e-13)
(2764.5 -6.85171e-10 1.10442e-13)
(2764.5 -6.9111e-10 1.21771e-13)
(2764.5 -6.98142e-10 1.20481e-13)
(2764.5 -7.06301e-10 1.2171e-13)
(2764.5 -7.17354e-10 1.13011e-13)
(2764.5 -7.30729e-10 1.19921e-13)
(2764.5 -7.44112e-10 1.18677e-13)
(2764.5 -7.52227e-10 1.2023e-13)
(2764.5 -7.59708e-10 1.17167e-13)
(2764.5 -7.65422e-10 1.16254e-13)
(2764.5 -7.73886e-10 1.15918e-13)
(2764.5 -7.83806e-10 1.17922e-13)
(2764.5 -7.92671e-10 1.22745e-13)
(2764.5 -8.03906e-10 1.20201e-13)
(2764.5 -8.13068e-10 1.22741e-13)
(2764.5 -8.21761e-10 1.17731e-13)
(2764.5 -8.30493e-10 1.15336e-13)
(2764.5 -8.40543e-10 1.2147e-13)
(2764.5 -8.5495e-10 1.22506e-13)
(2764.5 -8.69016e-10 1.22873e-13)
(2764.5 -8.80385e-10 1.24011e-13)
(2764.5 -8.90076e-10 1.22446e-13)
(2764.5 -9.0079e-10 1.25762e-13)
(2764.5 -9.12588e-10 1.24126e-13)
(2764.5 -9.21713e-10 1.19293e-13)
(2764.5 -9.30773e-10 1.24154e-13)
(2764.5 -9.45001e-10 1.25467e-13)
(2764.5 -6.6126e-10 1.33518e-13)
(2764.5 -6.63699e-10 1.38461e-13)
(2764.5 -6.6709e-10 1.33362e-13)
(2764.5 -6.73213e-10 1.34685e-13)
(2764.5 -6.80027e-10 1.29263e-13)
(2764.5 -6.85446e-10 1.28833e-13)
(2764.5 -6.89052e-10 1.34629e-13)
(2764.5 -7.00814e-10 1.36509e-13)
(2764.5 -7.12118e-10 1.28715e-13)
(2764.5 -7.20891e-10 1.3049e-13)
(2764.5 -7.29101e-10 1.29685e-13)
(2764.5 -7.33701e-10 1.31562e-13)
(2764.5 -7.40288e-10 1.30193e-13)
(2764.5 -7.4807e-10 1.24168e-13)
(2764.5 -7.55307e-10 1.33128e-13)
(2764.5 -7.63983e-10 1.375e-13)
(2764.5 -7.72489e-10 1.39336e-13)
(2764.5 -7.83421e-10 1.36986e-13)
(2764.5 -7.94657e-10 1.29917e-13)
(2764.5 -8.06356e-10 1.30265e-13)
(2764.5 -8.17618e-10 1.32772e-13)
(2764.5 -8.26904e-10 1.34811e-13)
(2764.5 -8.36111e-10 1.32367e-13)
(2764.5 -8.4624e-10 1.32551e-13)
(2764.5 -8.53375e-10 1.32137e-13)
(2764.5 -8.62168e-10 1.3631e-13)
(2764.5 -8.7399e-10 1.2994e-13)
(2764.5 -8.84847e-10 1.27323e-13)
(2764.5 -8.96463e-10 1.33676e-13)
(2764.5 -9.04776e-10 1.36421e-13)
(2764.5 -9.14722e-10 1.37741e-13)
(2764.5 -9.27358e-10 1.33411e-13)
(2764.5 -9.40025e-10 1.33351e-13)
(2764.5 -9.54151e-10 1.33175e-13)
(2764.5 -9.69952e-10 1.34329e-13)
(2764.5 -9.86422e-10 1.34706e-13)
(2764.5 -9.96461e-10 1.363e-13)
(2764.5 -1.01265e-09 1.38649e-13)
(2764.5 -1.0152e-09 1.40246e-13)
(2764.5 -7.07049e-10 1.49779e-13)
(2764.5 -7.1406e-10 1.45728e-13)
(2764.5 -7.17367e-10 1.40965e-13)
(2764.5 -7.21961e-10 1.46645e-13)
(2764.5 -7.25254e-10 1.46466e-13)
(2764.5 -7.32168e-10 1.48514e-13)
(2764.5 -7.39643e-10 1.46706e-13)
(2764.5 -7.45083e-10 1.47552e-13)
(2764.5 -7.52913e-10 1.4452e-13)
(2764.5 -7.626e-10 1.47554e-13)
(2764.5 -7.7014e-10 1.46133e-13)
(2764.5 -7.77168e-10 1.45611e-13)
(2764.5 -7.83248e-10 1.44712e-13)
(2764.5 -7.90271e-10 1.38218e-13)
(2764.5 -7.97031e-10 1.44773e-13)
(2764.5 -8.02998e-10 1.48508e-13)
(2764.5 -8.14417e-10 1.43801e-13)
(2764.5 -8.26236e-10 1.4443e-13)
(2764.5 -8.37452e-10 1.45567e-13)
(2764.5 -8.45753e-10 1.46209e-13)
(2764.5 -8.54733e-10 1.40049e-13)
(2764.5 -8.64135e-10 1.40479e-13)
(2764.5 -8.73508e-10 1.41874e-13)
(2764.5 -8.83816e-10 1.39644e-13)
(2764.5 -8.9628e-10 1.41313e-13)
(2764.5 -9.09624e-10 1.50125e-13)
(2764.5 -9.19928e-10 1.45848e-13)
(2764.5 -9.31607e-10 1.38769e-13)
(2764.5 -9.44297e-10 1.45896e-13)
(2764.5 -9.57189e-10 1.44695e-13)
(2764.5 -9.67744e-10 1.4779e-13)
(2764.5 -9.77075e-10 1.4426e-13)
(2764.5 -9.89465e-10 1.44203e-13)
(2764.5 -1.00394e-09 1.46407e-13)
(2764.5 -1.01889e-09 1.5065e-13)
(2764.5 -1.03232e-09 1.52137e-13)
(2764.5 -1.05103e-09 1.48206e-13)
(2764.5 -1.06588e-09 1.52207e-13)
(2764.5 -1.08414e-09 1.4499e-13)
(2764.5 -1.08615e-09 1.56592e-13)
(2764.5 -7.54628e-10 1.61425e-13)
(2764.5 -7.63937e-10 1.61825e-13)
(2764.5 -7.70199e-10 1.62922e-13)
(2764.5 -7.77375e-10 1.57366e-13)
(2764.5 -7.8239e-10 1.59478e-13)
(2764.5 -7.86087e-10 1.59311e-13)
(2764.5 -7.90569e-10 1.61042e-13)
(2764.5 -7.97816e-10 1.60589e-13)
(2764.5 -8.04729e-10 1.58274e-13)
(2764.5 -8.14001e-10 1.63143e-13)
(2764.5 -8.22794e-10 1.54796e-13)
(2764.5 -8.29984e-10 1.55322e-13)
(2764.5 -8.34379e-10 1.55291e-13)
(2764.5 -8.42495e-10 1.5418e-13)
(2764.5 -8.50076e-10 1.55113e-13)
(2764.5 -8.54331e-10 1.57199e-13)
(2764.5 -8.62274e-10 1.54509e-13)
(2764.5 -8.72024e-10 1.49388e-13)
(2764.5 -8.83396e-10 1.53011e-13)
(2764.5 -8.95403e-10 1.50275e-13)
(2764.5 -9.06089e-10 1.53377e-13)
(2764.5 -9.17968e-10 1.56655e-13)
(2764.5 -9.26533e-10 1.59967e-13)
(2764.5 -9.36302e-10 1.59275e-13)
(2764.5 -9.47291e-10 1.55245e-13)
(2764.5 -9.59941e-10 1.56274e-13)
(2764.5 -9.74095e-10 1.552e-13)
(2764.5 -9.87844e-10 1.55448e-13)
(2764.5 -1.00282e-09 1.54327e-13)
(2764.5 -1.01783e-09 1.56416e-13)
(2764.5 -1.03062e-09 1.57961e-13)
(2764.5 -1.04044e-09 1.57986e-13)
(2764.5 -1.05287e-09 1.58103e-13)
(2764.5 -1.06396e-09 1.59383e-13)
(2764.5 -1.0784e-09 1.64227e-13)
(2764.5 -1.09314e-09 1.5705e-13)
(2764.5 -1.11028e-09 1.56952e-13)
(2764.5 -1.1253e-09 1.61111e-13)
(2764.5 -1.14537e-09 1.59453e-13)
(2764.5 -1.15313e-09 1.60928e-13)
(2764.5 -8.04161e-10 1.75417e-13)
(2764.5 -8.14411e-10 1.69768e-13)
(2764.5 -8.22976e-10 1.70174e-13)
(2764.5 -8.30159e-10 1.72724e-13)
(2764.5 -8.3621e-10 1.74411e-13)
(2764.5 -8.39894e-10 1.79091e-13)
(2764.5 -8.42692e-10 1.73491e-13)
(2764.5 -8.50997e-10 1.66031e-13)
(2764.5 -8.59443e-10 1.71248e-13)
(2764.5 -8.6883e-10 1.75826e-13)
(2764.5 -8.78237e-10 1.67655e-13)
(2764.5 -8.88667e-10 1.73161e-13)
(2764.5 -8.94447e-10 1.74937e-13)
(2764.5 -9.00152e-10 1.69871e-13)
(2764.5 -9.05212e-10 1.72423e-13)
(2764.5 -9.08678e-10 1.64622e-13)
(2764.5 -9.14987e-10 1.61246e-13)
(2764.5 -9.25075e-10 1.64048e-13)
(2764.5 -9.34245e-10 1.65508e-13)
(2764.5 -9.45986e-10 1.64824e-13)
(2764.5 -9.54671e-10 1.76059e-13)
(2764.5 -9.64271e-10 1.72515e-13)
(2764.5 -9.75181e-10 1.69233e-13)
(2764.5 -9.88992e-10 1.69506e-13)
(2764.5 -1.00305e-09 1.70089e-13)
(2764.5 -1.01695e-09 1.67919e-13)
(2764.5 -1.03255e-09 1.69054e-13)
(2764.5 -1.04619e-09 1.62228e-13)
(2764.5 -1.05945e-09 1.74657e-13)
(2764.5 -1.07319e-09 1.74643e-13)
(2764.5 -1.08482e-09 1.67577e-13)
(2764.5 -1.09322e-09 1.65986e-13)
(2764.5 -1.10562e-09 1.63599e-13)
(2764.5 -1.11956e-09 1.67763e-13)
(2764.5 -1.13447e-09 1.72539e-13)
(2764.5 -1.14736e-09 1.73369e-13)
(2764.5 -1.16506e-09 1.70781e-13)
(2764.5 -1.17718e-09 1.69578e-13)
(2764.5 -1.19672e-09 1.74202e-13)
(2764.5 -1.20556e-09 1.84927e-13)
(2764.5 -8.49599e-10 1.88951e-13)
(2764.5 -8.63107e-10 1.8937e-13)
(2764.5 -8.74457e-10 1.90495e-13)
(2764.5 -8.84439e-10 1.85522e-13)
(2764.5 -8.92177e-10 1.83233e-13)
(2764.5 -8.97188e-10 1.87663e-13)
(2764.5 -8.97827e-10 1.91894e-13)
(2764.5 -9.02371e-10 1.79615e-13)
(2764.5 -9.09554e-10 1.80722e-13)
(2764.5 -9.19862e-10 1.86811e-13)
(2764.5 -9.29285e-10 1.80353e-13)
(2764.5 -9.39832e-10 1.86701e-13)
(2764.5 -9.47594e-10 1.85322e-13)
(2764.5 -9.54286e-10 1.77969e-13)
(2764.5 -9.60288e-10 1.81861e-13)
(2764.5 -9.63335e-10 1.82709e-13)
(2764.5 -9.67638e-10 1.76397e-13)
(2764.5 -9.7742e-10 1.77934e-13)
(2764.5 -9.86523e-10 1.79678e-13)
(2764.5 -9.977e-10 1.83412e-13)
(2764.5 -1.00887e-09 1.8665e-13)
(2764.5 -1.01915e-09 1.798e-13)
(2764.5 -1.02997e-09 1.83156e-13)
(2764.5 -1.04416e-09 1.85897e-13)
(2764.5 -1.05885e-09 1.78427e-13)
(2764.5 -1.06991e-09 1.85255e-13)
(2764.5 -1.08219e-09 1.79497e-13)
(2764.5 -1.09425e-09 1.78754e-13)
(2764.5 -1.10712e-09 1.82804e-13)
(2764.5 -1.12158e-09 1.76622e-13)
(2764.5 -1.13493e-09 1.80967e-13)
(2764.5 -1.14337e-09 1.82927e-13)
(2764.5 -1.15397e-09 1.82514e-13)
(2764.5 -1.16705e-09 1.76338e-13)
(2764.5 -1.1816e-09 1.82173e-13)
(2764.5 -1.19418e-09 1.82726e-13)
(2764.5 -1.21183e-09 1.8345e-13)
(2764.5 -1.22697e-09 1.84482e-13)
(2764.5 -1.24972e-09 1.8358e-13)
(2764.5 -1.25832e-09 1.79926e-13)
(2764.5 -8.95735e-10 2.01015e-13)
(2764.5 -9.05302e-10 2.02009e-13)
(2764.5 -9.19207e-10 2.00146e-13)
(2764.5 -9.31295e-10 2.00044e-13)
(2764.5 -9.38345e-10 1.98545e-13)
(2764.5 -9.45137e-10 1.9242e-13)
(2764.5 -9.51602e-10 1.95321e-13)
(2764.5 -9.55335e-10 1.95106e-13)
(2764.5 -9.59539e-10 1.96018e-13)
(2764.5 -9.67224e-10 1.96052e-13)
(2764.5 -9.77608e-10 1.93342e-13)
(2764.5 -9.8918e-10 1.96048e-13)
(2764.5 -1.00125e-09 1.91755e-13)
(2764.5 -1.01201e-09 1.89794e-13)
(2764.5 -1.02094e-09 1.94475e-13)
(2764.5 -1.02594e-09 1.95071e-13)
(2764.5 -1.0282e-09 1.94155e-13)
(2764.5 -1.03527e-09 1.94783e-13)
(2764.5 -1.04551e-09 1.91568e-13)
(2764.5 -1.05664e-09 1.92775e-13)
(2764.5 -1.06715e-09 1.93477e-13)
(2764.5 -1.07767e-09 1.92701e-13)
(2764.5 -1.08881e-09 1.91592e-13)
(2764.5 -1.10189e-09 1.921e-13)
(2764.5 -1.11241e-09 1.90779e-13)
(2764.5 -1.12233e-09 1.90158e-13)
(2764.5 -1.13444e-09 1.91383e-13)
(2764.5 -1.14537e-09 1.94811e-13)
(2764.5 -1.15722e-09 1.88816e-13)
(2764.5 -1.1707e-09 1.94245e-13)
(2764.5 -1.18683e-09 1.92255e-13)
(2764.5 -1.19903e-09 1.99352e-13)
(2764.5 -1.20829e-09 1.94918e-13)
(2764.5 -1.21751e-09 1.90857e-13)
(2764.5 -1.22826e-09 1.94485e-13)
(2764.5 -1.23993e-09 1.99035e-13)
(2764.5 -1.25952e-09 1.99339e-13)
(2764.5 -1.27636e-09 1.96866e-13)
(2764.5 -1.30167e-09 1.94721e-13)
(2764.5 -1.31071e-09 1.98891e-13)
(2764.5 -9.41237e-10 2.14135e-13)
(2764.5 -9.45457e-10 2.1264e-13)
(2764.5 -9.57928e-10 2.13377e-13)
(2764.5 -9.73314e-10 2.09765e-13)
(2764.5 -9.82568e-10 2.07303e-13)
(2764.5 -9.90421e-10 2.13228e-13)
(2764.5 -1.00039e-09 2.16036e-13)
(2764.5 -1.00544e-09 2.09356e-13)
(2764.5 -1.00953e-09 2.09236e-13)
(2764.5 -1.01542e-09 2.1108e-13)
(2764.5 -1.02739e-09 2.08753e-13)
(2764.5 -1.04034e-09 2.10328e-13)
(2764.5 -1.05435e-09 2.05476e-13)
(2764.5 -1.06837e-09 2.03856e-13)
(2764.5 -1.08108e-09 2.10249e-13)
(2764.5 -1.08969e-09 2.05521e-13)
(2764.5 -1.09527e-09 2.02853e-13)
(2764.5 -1.10079e-09 2.09992e-13)
(2764.5 -1.10647e-09 2.09106e-13)
(2764.5 -1.11478e-09 2.03182e-13)
(2764.5 -1.12315e-09 2.04775e-13)
(2764.5 -1.13211e-09 1.98213e-13)
(2764.5 -1.14239e-09 2.03458e-13)
(2764.5 -1.15502e-09 2.06919e-13)
(2764.5 -1.16728e-09 2.09351e-13)
(2764.5 -1.17588e-09 2.09794e-13)
(2764.5 -1.18589e-09 2.03913e-13)
(2764.5 -1.19789e-09 2.04772e-13)
(2764.5 -1.20976e-09 2.01888e-13)
(2764.5 -1.22307e-09 2.06469e-13)
(2764.5 -1.23677e-09 2.04898e-13)
(2764.5 -1.2487e-09 2.03229e-13)
(2764.5 -1.25889e-09 2.04635e-13)
(2764.5 -1.26798e-09 2.08002e-13)
(2764.5 -1.27927e-09 2.02072e-13)
(2764.5 -1.29107e-09 2.0435e-13)
(2764.5 -1.30942e-09 2.06436e-13)
(2764.5 -1.32642e-09 2.0416e-13)
(2764.5 -1.35511e-09 2.04123e-13)
(2764.5 -1.36611e-09 2.07803e-13)
(2764.5 -9.92051e-10 2.31384e-13)
(2764.5 -9.89602e-10 2.2981e-13)
(2764.5 -9.98533e-10 2.26058e-13)
(2764.5 -1.01532e-09 2.22094e-13)
(2764.5 -1.02787e-09 2.24936e-13)
(2764.5 -1.03828e-09 2.21236e-13)
(2764.5 -1.05009e-09 2.22957e-13)
(2764.5 -1.05802e-09 2.22407e-13)
(2764.5 -1.06349e-09 2.2637e-13)
(2764.5 -1.06926e-09 2.2335e-13)
(2764.5 -1.07737e-09 2.17979e-13)
(2764.5 -1.08891e-09 2.21143e-13)
(2764.5 -1.10334e-09 2.18942e-13)
(2764.5 -1.1191e-09 2.21721e-13)
(2764.5 -1.1319e-09 2.21383e-13)
(2764.5 -1.14392e-09 2.22915e-13)
(2764.5 -1.15656e-09 2.24841e-13)
(2764.5 -1.16729e-09 2.22001e-13)
(2764.5 -1.17453e-09 2.22954e-13)
(2764.5 -1.18032e-09 2.26564e-13)
(2764.5 -1.18398e-09 2.20706e-13)
(2764.5 -1.1883e-09 2.17169e-13)
(2764.5 -1.19483e-09 2.20147e-13)
(2764.5 -1.20434e-09 2.1522e-13)
(2764.5 -1.21625e-09 2.17841e-13)
(2764.5 -1.22726e-09 2.16093e-13)
(2764.5 -1.23854e-09 2.1487e-13)
(2764.5 -1.2505e-09 2.18026e-13)
(2764.5 -1.26495e-09 2.1269e-13)
(2764.5 -1.27705e-09 2.13822e-13)
(2764.5 -1.28703e-09 2.17453e-13)
(2764.5 -1.29979e-09 2.18714e-13)
(2764.5 -1.31144e-09 2.21547e-13)
(2764.5 -1.32134e-09 2.17245e-13)
(2764.5 -1.33179e-09 2.15537e-13)
(2764.5 -1.34264e-09 2.19016e-13)
(2764.5 -1.36029e-09 2.20562e-13)
(2764.5 -1.37594e-09 2.19357e-13)
(2764.5 -1.40657e-09 2.19031e-13)
(2764.5 -1.4237e-09 2.21272e-13)
(2764.5 -1.07324e-09 2.41832e-13)
(2764.5 -1.06621e-09 2.47066e-13)
(2764.5 -1.0544e-09 2.40023e-13)
(2764.5 -1.0482e-09 2.37889e-13)
(2764.5 -1.05801e-09 2.4199e-13)
(2764.5 -1.07268e-09 2.35722e-13)
(2764.5 -1.08557e-09 2.38012e-13)
(2764.5 -1.09883e-09 2.35158e-13)
(2764.5 -1.10983e-09 2.30851e-13)
(2764.5 -1.11693e-09 2.35787e-13)
(2764.5 -1.12405e-09 2.35203e-13)
(2764.5 -1.13188e-09 2.31924e-13)
(2764.5 -1.14064e-09 2.30432e-13)
(2764.5 -1.15268e-09 2.33575e-13)
(2764.5 -1.16684e-09 2.33774e-13)
(2764.5 -1.17885e-09 2.30969e-13)
(2764.5 -1.18858e-09 2.37076e-13)
(2764.5 -1.20084e-09 2.34155e-13)
(2764.5 -1.21497e-09 2.30565e-13)
(2764.5 -1.22743e-09 2.29898e-13)
(2764.5 -1.23674e-09 2.32499e-13)
(2764.5 -1.2439e-09 2.29244e-13)
(2764.5 -1.24911e-09 2.31763e-13)
(2764.5 -1.25506e-09 2.31218e-13)
(2764.5 -1.2602e-09 2.25799e-13)
(2764.5 -1.26739e-09 2.31319e-13)
(2764.5 -1.27634e-09 2.31896e-13)
(2764.5 -1.28811e-09 2.28636e-13)
(2764.5 -1.29967e-09 2.28649e-13)
(2764.5 -1.31298e-09 2.3175e-13)
(2764.5 -1.32664e-09 2.35931e-13)
(2764.5 -1.33769e-09 2.25405e-13)
(2764.5 -1.35139e-09 2.28372e-13)
(2764.5 -1.36655e-09 2.36496e-13)
(2764.5 -1.37862e-09 2.28563e-13)
(2764.5 -1.38748e-09 2.29583e-13)
(2764.5 -1.39407e-09 2.33582e-13)
(2764.5 -1.40769e-09 2.35359e-13)
(2764.5 -1.41836e-09 2.31086e-13)
(2764.5 -1.44349e-09 2.33709e-13)
(2764.5 -1.4583e-09 2.32138e-13)
(2764.5 -1.12611e-09 2.58895e-13)
(2764.5 -1.12979e-09 2.62127e-13)
(2764.5 -1.12593e-09 2.50888e-13)
(2764.5 -1.11335e-09 2.51527e-13)
(2764.5 -1.10817e-09 2.54985e-13)
(2764.5 -1.11861e-09 2.50814e-13)
(2764.5 -1.13182e-09 2.47363e-13)
(2764.5 -1.14674e-09 2.45172e-13)
(2764.5 -1.16125e-09 2.51136e-13)
(2764.5 -1.17049e-09 2.51915e-13)
(2764.5 -1.17723e-09 2.46457e-13)
(2764.5 -1.18344e-09 2.44017e-13)
(2764.5 -1.19005e-09 2.46401e-13)
(2764.5 -1.20039e-09 2.47536e-13)
(2764.5 -1.21462e-09 2.44266e-13)
(2764.5 -1.22744e-09 2.42276e-13)
(2764.5 -1.23729e-09 2.47246e-13)
(2764.5 -1.24663e-09 2.46743e-13)
(2764.5 -1.25664e-09 2.44991e-13)
(2764.5 -1.26909e-09 2.44509e-13)
(2764.5 -1.27948e-09 2.41773e-13)
(2764.5 -1.2913e-09 2.49232e-13)
(2764.5 -1.30229e-09 2.46073e-13)
(2764.5 -1.31233e-09 2.31864e-13)
(2764.5 -1.31955e-09 2.37732e-13)
(2764.5 -1.325e-09 2.44896e-13)
(2764.5 -1.33079e-09 2.39479e-13)
(2764.5 -1.33685e-09 2.39689e-13)
(2764.5 -1.34582e-09 2.39013e-13)
(2764.5 -1.36008e-09 2.41308e-13)
(2764.5 -1.37609e-09 2.39545e-13)
(2764.5 -1.38977e-09 2.38964e-13)
(2764.5 -1.40159e-09 2.45659e-13)
(2764.5 -1.41458e-09 2.43809e-13)
(2764.5 -1.42913e-09 2.47635e-13)
(2764.5 -1.44259e-09 2.48416e-13)
(2764.5 -1.45176e-09 2.43827e-13)
(2764.5 -1.46186e-09 2.45661e-13)
(2764.5 -1.46779e-09 2.53169e-13)
(2764.5 -1.4924e-09 2.4652e-13)
(2764.5 -1.51285e-09 2.43594e-13)
(2764.5 -1.1674e-09 2.76292e-13)
(2764.5 -1.17457e-09 2.79031e-13)
(2764.5 -1.17952e-09 2.65714e-13)
(2764.5 -1.18433e-09 2.6306e-13)
(2764.5 -1.18464e-09 2.6907e-13)
(2764.5 -1.18178e-09 2.66485e-13)
(2764.5 -1.18176e-09 2.61408e-13)
(2764.5 -1.188e-09 2.63224e-13)
(2764.5 -1.19982e-09 2.63141e-13)
(2764.5 -1.21251e-09 2.64346e-13)
(2764.5 -1.22172e-09 2.65242e-13)
(2764.5 -1.22664e-09 2.57973e-13)
(2764.5 -1.23206e-09 2.56917e-13)
(2764.5 -1.23721e-09 2.57605e-13)
(2764.5 -1.2466e-09 2.58207e-13)
(2764.5 -1.26071e-09 2.58414e-13)
(2764.5 -1.27278e-09 2.66649e-13)
(2764.5 -1.28328e-09 2.62461e-13)
(2764.5 -1.29106e-09 2.5415e-13)
(2764.5 -1.29955e-09 2.53165e-13)
(2764.5 -1.31223e-09 2.54742e-13)
(2764.5 -1.32358e-09 2.57026e-13)
(2764.5 -1.33425e-09 2.56749e-13)
(2764.5 -1.34719e-09 2.51157e-13)
(2764.5 -1.36042e-09 2.553e-13)
(2764.5 -1.3724e-09 2.56688e-13)
(2764.5 -1.38026e-09 2.57435e-13)
(2764.5 -1.38611e-09 2.5603e-13)
(2764.5 -1.38993e-09 2.5641e-13)
(2764.5 -1.39605e-09 2.54174e-13)
(2764.5 -1.40964e-09 2.55613e-13)
(2764.5 -1.42624e-09 2.63445e-13)
(2764.5 -1.44063e-09 2.55913e-13)
(2764.5 -1.45331e-09 2.46876e-13)
(2764.5 -1.46641e-09 2.4967e-13)
(2764.5 -1.47761e-09 2.53212e-13)
(2764.5 -1.48755e-09 2.55161e-13)
(2764.5 -1.49614e-09 2.52967e-13)
(2764.5 -1.51214e-09 2.56792e-13)
(2764.5 -1.52952e-09 2.59891e-13)
(2764.5 -1.53621e-09 2.56575e-13)
(2764.5 -1.51784e-09 2.56102e-13)
(2764.5 -1.18644e-09 2.88697e-13)
(2764.5 -1.20526e-09 2.85643e-13)
(2764.5 -1.21636e-09 2.82736e-13)
(2764.5 -1.22526e-09 2.79507e-13)
(2764.5 -1.23259e-09 2.8547e-13)
(2764.5 -1.23652e-09 2.85846e-13)
(2764.5 -1.23731e-09 2.81845e-13)
(2764.5 -1.23703e-09 2.79858e-13)
(2764.5 -1.24069e-09 2.77007e-13)
(2764.5 -1.25145e-09 2.77823e-13)
(2764.5 -1.26272e-09 2.78708e-13)
(2764.5 -1.27171e-09 2.75082e-13)
(2764.5 -1.27868e-09 2.67627e-13)
(2764.5 -1.28218e-09 2.6933e-13)
(2764.5 -1.28523e-09 2.72529e-13)
(2764.5 -1.2909e-09 2.69507e-13)
(2764.5 -1.30205e-09 2.71976e-13)
(2764.5 -1.3156e-09 2.69373e-13)
(2764.5 -1.32847e-09 2.65917e-13)
(2764.5 -1.34024e-09 2.63681e-13)
(2764.5 -1.34906e-09 2.66883e-13)
(2764.5 -1.3603e-09 2.7121e-13)
(2764.5 -1.37456e-09 2.68833e-13)
(2764.5 -1.38558e-09 2.62236e-13)
(2764.5 -1.3953e-09 2.67785e-13)
(2764.5 -1.40361e-09 2.67876e-13)
(2764.5 -1.41409e-09 2.66382e-13)
(2764.5 -1.42505e-09 2.65903e-13)
(2764.5 -1.43437e-09 2.6699e-13)
(2764.5 -1.44198e-09 2.66961e-13)
(2764.5 -1.44885e-09 2.63537e-13)
(2764.5 -1.45796e-09 2.66483e-13)
(2764.5 -1.47337e-09 2.65633e-13)
(2764.5 -1.49024e-09 2.56629e-13)
(2764.5 -1.50411e-09 2.6076e-13)
(2764.5 -1.51521e-09 2.66106e-13)
(2764.5 -1.52191e-09 2.64264e-13)