/*--------------------------------*- C++ -*----------------------------------*\
| =========                 |                                                 |
| \\      /  F ield         | OpenFOAM: The Open Source CFD Toolbox           |
|  \\    /   O peration     | Version:  v1706                                 |
|   \\  /    A nd           | Web:      www.OpenFOAM.com                      |
|    \\/     M anipulation  |                                                 |
\*---------------------------------------------------------------------------*/
FoamFile
{
    version     2.0;
    format      ascii;
    class       volScalarField;
    location    "5e-06";
    object      wallHeatFlux;
}
// * * * * * * * * * * * * * * * * * * * * * * * * * * * * * * * * * * * * * //

dimensions      [1 0 -3 0 0 0 0];


internalField   uniform 0;

boundaryField
{
    cone
    {
        type            calculated;
        value           nonuniform List<scalar> 
153
(
513212
505281
497583
490139
482965
476080
469497
463234
457307
451727
446502
441645
437161
433055
429332
425995
423046
420491
418334
416579
415225
414258
413654
413409
413537
414065
415031
416439
418289
420577
423301
426460
430061
434114
438626
443605
449061
455014
461477
468478
476051
484264
493170
502822
513273
524541
536444
548388
562023
578669
596785
616352
637177
659124
682079
705947
730654
756132
782313
809126
836487
864298
892442
920775
949140
977375
1.00532e+06
1.03284e+06
1.05983e+06
1.08604e+06
1.11113e+06
1.13482e+06
1.15699e+06
1.17751e+06
1.19639e+06
1.21369e+06
1.22956e+06
1.24414e+06
1.25762e+06
1.27013e+06
1.28176e+06
1.29258e+06
1.30268e+06
1.31216e+06
1.32116e+06
1.32979e+06
1.33815e+06
1.34629e+06
1.35423e+06
1.3619e+06
1.36918e+06
1.37587e+06
1.3817e+06
1.38632e+06
1.38927e+06
1.38998e+06
1.38776e+06
1.3818e+06
1.37125e+06
1.35537e+06
1.33362e+06
1.30579e+06
1.27208e+06
1.23312e+06
1.18982e+06
1.14329e+06
1.09465e+06
1.04496e+06
995125
945852
897676
850962
805939
762731
721383
681882
644180
608205
573873
541095
509782
479849
451220
423826
397604
372503
348477
325488
303502
282493
262437
243314
225106
207798
191374
175820
161122
147263
134230
122002
110564
99892.1
89966.2
80761.8
72253.4
64413.4
57212.8
50621.2
44606.2
39134.3
34171.6
29688.6
25667.3
)
;
    }
    inlet
    {
        type            calculated;
        value           uniform 0;
    }
    rWedge
    {
        type            wedge;
    }
    lWedge
    {
        type            wedge;
    }
    outlet
    {
        type            calculated;
        value           nonuniform 0();
    }
    procBoundary2to0
    {
        type            processor;
        value           uniform 0;
    }
    procBoundary2to1
    {
        type            processor;
        value           uniform 0;
    }
    procBoundary2to3
    {
        type            processor;
        value           uniform 0;
    }
}


// ************************************************************************* //
