/*--------------------------------*- C++ -*----------------------------------*\
| =========                 |                                                 |
| \\      /  F ield         | OpenFOAM: The Open Source CFD Toolbox           |
|  \\    /   O peration     | Version:  v1706                                 |
|   \\  /    A nd           | Web:      www.OpenFOAM.com                      |
|    \\/     M anipulation  |                                                 |
\*---------------------------------------------------------------------------*/
FoamFile
{
    version     2.0;
    format      ascii;
    class       volScalarField;
    location    "7e-06";
    object      p;
}
// * * * * * * * * * * * * * * * * * * * * * * * * * * * * * * * * * * * * * //

dimensions      [1 -1 -2 0 0 0 0];


internalField   nonuniform List<scalar> 
29871
(
21.9139
21.9139
21.9139
21.9139
21.9139
21.9139
21.9139
21.9139
21.9139
21.9139
21.9139
21.9139
21.9139
21.9139
21.9139
21.9139
21.9139
21.9139
21.9139
21.9139
21.9139
21.9139
21.9139
21.9139
21.9139
21.9139
21.9139
21.9139
21.9139
21.9139
21.9139
21.9139
21.9139
21.9139
21.9139
21.9139
21.9139
21.9139
21.9139
21.9139
21.9139
21.9139
21.9139
21.9139
21.9139
21.9139
21.9139
21.9139
21.9139
21.9139
21.9139
21.9139
21.9139
21.9139
21.9139
21.9139
21.9139
21.9139
21.9139
21.9139
21.9139
21.9139
21.9139
21.9139
21.9139
21.9139
21.9139
21.9139
21.9139
21.9139
21.9139
21.9139
21.9139
21.9139
21.9139
21.9139
21.9139
21.9139
21.9139
21.9139
21.9139
21.9139
21.9139
21.9139
21.9139
21.9139
21.9139
21.9139
21.9139
21.9139
21.9139
21.9139
21.9139
21.9139
21.9139
21.9139
21.9139
21.9139
21.9139
21.9139
21.9139
21.9139
21.9139
21.9139
21.9139
21.9139
21.9139
21.9139
21.9139
21.9139
21.9139
21.9139
21.9139
21.9139
21.9139
21.9139
21.9139
21.9139
21.9139
21.9139
21.9139
21.9139
21.9139
21.9139
21.9139
21.9139
21.9139
21.9139
21.9139
21.9139
21.9139
21.9139
21.9139
21.9139
21.9139
21.9139
21.9139
21.9139
21.9139
21.9139
21.9139
21.9139
21.9139
21.9139
21.9139
21.9139
21.9139
21.9139
21.9139
21.9139
21.9139
21.9139
21.9139
21.9139
21.9139
21.9139
21.9139
21.9139
21.9139
21.9139
21.9139
21.9139
21.9139
21.9139
21.9139
21.9139
21.9139
21.9139
21.9139
21.9139
21.9139
21.9139
21.9139
21.9139
21.9139
21.9139
21.9139
21.9139
21.9139
21.9139
21.9139
21.9139
21.9139
21.9139
21.9139
21.9139
21.9139
21.9139
21.9139
21.9139
21.9139
21.9139
21.9139
21.9139
21.9139
21.9139
21.9139
21.9139
21.9139
21.9139
21.9139
21.9139
21.9139
21.9139
21.9139
21.9139
21.9139
21.9139
21.9139
21.9139
21.9139
21.9139
21.9139
21.9139
21.9139
21.9139
21.9139
21.9139
21.9139
21.9139
21.9139
21.9139
21.9139
21.9139
21.9139
21.9139
21.9139
21.9139
21.9139
21.9139
21.9139
21.9139
21.9139
21.9139
21.9139
21.9139
21.9139
21.9139
21.9139
21.9139
21.9139
21.9139
21.9139
21.9139
21.9139
21.9139
21.9139
21.9139
21.9139
21.9139
21.9139
21.9139
21.9139
21.9139
21.9139
21.9139
21.9139
21.9139
21.9139
21.9139
21.9139
21.9139
21.9139
21.9139
21.9139
21.9139
21.9139
21.9139
21.9139
21.9139
21.9139
21.9139
21.9139
21.9139
21.9139
21.9139
21.9139
21.9139
21.9139
21.9139
21.9139
21.9139
21.9139
21.9139
21.9139
21.9139
21.9139
21.9139
21.9139
21.9139
21.9139
21.9139
21.9139
21.9139
21.9139
21.9139
21.9139
21.9139
21.9139
21.9139
21.9139
21.9139
21.9139
21.9139
21.9139
21.9139
21.9139
21.9139
21.9139
21.9139
21.9139
21.9139
21.9139
21.9139
21.9139
21.9139
21.9139
21.9139
21.9139
21.9139
21.9139
21.9139
21.9139
21.9139
21.9139
21.9139
21.9139
21.9139
21.9139
21.9139
21.9139
21.9139
21.9139
21.9139
21.9139
21.9139
21.9139
21.9139
21.9139
21.9139
21.9139
21.9139
21.9139
21.9139
21.9139
21.9139
21.9139
21.9139
21.9139
21.9139
21.9139
21.9139
21.9139
21.9139
21.9139
21.9139
21.9139
21.9139
21.9139
21.9139
21.9139
21.9139
21.9139
21.9139
21.9139
21.9139
21.9139
21.9139
21.9139
21.9139
21.9139
21.9139
21.9139
21.9139
21.9139
21.9139
21.9139
21.9139
21.9139
21.9139
21.9139
21.9139
21.9139
21.9139
21.9139
21.9139
21.9139
21.9139
21.9139
21.9139
21.9139
21.9139
21.9139
21.9139
21.9139
21.9139
21.9139
21.9139
21.9139
21.9139
21.9139
21.9139
21.9139
21.9139
21.9139
21.9139
21.9139
21.9139
21.9139
21.9139
21.9139
21.9139
21.9139
21.9139
21.9139
21.9139
21.9139
21.9139
21.9139
21.9139
21.9139
21.9139
21.9139
21.9139
21.9139
21.9139
21.9139
21.9139
21.9139
21.9139
21.9139
21.9139
21.9139
21.9139
21.9139
21.9139
21.9139
21.9139
21.9139
21.9139
21.9139
21.9139
21.9139
21.9139
21.9139
21.9139
21.9139
21.9139
21.9139
21.9139
21.9139
21.9139
21.9139
21.9139
21.9139
21.9139
21.9139
21.9139
21.9139
21.9139
21.9139
21.9139
21.9139
21.9139
21.9139
21.9139
21.9139
21.9139
21.9139
21.9139
21.9139
21.9139
21.9139
21.9139
21.9139
21.9139
21.9139
21.9139
21.9139
21.9139
21.9139
21.9139
21.9139
21.9139
21.9139
21.9139
21.9139
21.9139
21.9139
21.9139
21.9139
21.9139
21.9139
21.9139
21.9139
21.9139
21.9139
21.9139
21.9139
21.9139
21.9139
21.9139
21.9139
21.9139
21.9139
21.9139
21.9139
21.9139
21.9139
21.9139
21.9139
21.9139
21.9139
21.9139
21.9139
21.9139
21.9139
21.9139
21.9139
21.9139
21.9139
21.9139
21.9139
21.9139
21.9139
21.9139
21.9139
21.9139
21.9139
21.9139
21.9139
21.9139
21.9139
21.9139
21.9139
21.9139
21.9139
21.9139
21.9139
21.9139
21.9139
21.9139
21.9139
21.9139
21.9139
21.9139
21.9139
21.9139
21.9139
21.9139
21.9139
21.9139
21.9139
21.9139
21.9139
21.9139
21.9139
21.9139
21.9139
21.9139
21.9139
21.9139
21.9139
21.9139
21.9139
21.9139
21.9139
21.9139
21.9139
21.9139
21.9139
21.9139
21.9139
21.9139
21.9139
21.9139
21.9139
21.9139
21.9139
21.9139
21.9139
21.9139
21.9139
21.9139
21.9139
21.9139
21.9139
21.9139
21.9139
21.9139
21.9139
21.9139
21.9139
21.9139
21.9139
21.9139
21.9139
21.9139
21.9139
21.9139
21.9139
21.9139
21.9139
21.9139
21.9139
21.9139
21.9139
21.9139
21.9139
21.9139
21.9139
21.9139
21.9139
21.9139
21.9139
21.9139
21.9139
21.9139
21.9139
21.9139
21.9139
21.9139
21.9139
21.9139
21.9139
21.9139
21.9139
21.9139
21.9139
21.9139
21.9139
21.9139
21.9139
21.9139
21.9139
21.9139
21.9139
21.9139
21.9139
21.9139
21.9139
21.9139
21.9139
21.9139
21.9139
21.9139
21.9139
21.9139
21.9139
21.9139
21.9139
21.9139
21.9139
21.9139
21.9139
21.9139
21.9139
21.9139
21.9139
21.9139
21.9139
21.9139
21.9139
21.9139
21.9139
21.9139
21.9139
21.9139
21.9139
21.9139
21.9139
21.9139
21.9139
21.9139
21.9139
21.9139
21.9139
21.9139
21.9139
21.9139
21.9139
21.9139
21.9139
21.9139
21.9139
21.9139
21.9139
21.9139
21.9139
21.9139
21.9139
21.9139
21.9139
21.9139
21.9139
21.9139
21.9139
21.9139
21.9139
21.9139
21.9139
21.9139
21.9139
21.9139
21.9139
21.9139
21.9139
21.9139
21.9139
21.9139
21.9139
21.9139
21.9139
21.9139
21.9139
21.9139
21.9139
21.9139
21.9139
21.9139
21.9139
21.9139
21.9139
21.9139
21.9139
21.9139
21.9139
21.9139
21.9139
21.9139
21.9139
21.9139
21.9139
21.9139
21.9139
21.9139
21.9139
21.9139
21.9139
21.9139
21.9139
21.9139
21.9139
21.9139
21.9139
21.9139
21.9139
21.9139
21.9139
21.9139
21.9139
21.9139
21.9139
21.9139
21.9139
21.9139
21.9139
21.9139
21.9139
21.9139
21.9139
21.9139
21.9139
21.9139
21.9139
21.9139
21.9139
21.9139
21.9139
21.9139
21.9139
21.9139
21.9139
21.9139
21.9139
21.9139
21.9139
21.9139
21.9139
21.9139
21.9139
21.9139
21.9139
21.9139
21.9139
21.9139
21.9139
21.9139
21.9139
21.9139
21.9139
21.9139
21.9139
21.9139
21.9139
21.9139
21.9139
21.9139
21.9139
21.9139
21.9139
21.9139
21.9139
21.9139
21.9139
21.9139
21.9139
21.9139
21.9139
21.9139
21.9139
21.9139
21.9139
21.9139
21.9139
21.9139
21.9139
21.9139
21.9139
21.9139
21.9139
21.9139
21.9139
21.9139
21.9139
21.9139
21.9139
21.9139
21.9139
21.9139
21.9139
21.9139
21.9139
21.9139
21.9139
21.9139
21.9139
21.9139
21.9139
21.9139
21.9139
21.9139
21.9139
21.9139
21.9139
21.9139
21.9139
21.9139
21.9139
21.9139
21.9139
21.9139
21.9139
21.9139
21.9139
21.9139
21.9139
21.9139
21.9139
21.9139
21.9139
21.9139
21.9139
21.9139
21.9139
21.9139
21.9139
21.9139
21.9139
21.9139
21.9139
21.9139
21.9139
21.9139
21.9139
21.9139
21.9139
21.9139
21.9139
21.9139
21.9139
21.9139
21.9139
21.9139
21.9139
21.9139
21.9139
21.9139
21.9139
21.9139
21.9139
21.9139
21.9139
21.9139
21.9139
21.9139
21.9139
21.9139
21.9139
21.9139
21.9139
21.9139
21.9139
21.9139
21.9139
21.9139
21.9139
21.9139
21.9139
21.9139
21.9139
21.9139
21.9139
21.9139
21.9139
21.9139
21.9139
21.9139
21.9139
21.9139
21.9139
21.9139
21.9139
21.9139
21.9139
21.9139
21.9139
21.9139
21.9139
21.9139
21.9139
21.9139
21.9139
21.9139
21.9139
21.9139
21.9139
21.9139
21.9139
21.9139
21.9139
21.9139
21.9139
21.9139
21.9139
21.9139
21.9139
21.9139
21.9139
21.9139
21.9139
21.9139
21.9139
21.9139
21.9139
21.9139
21.9139
21.9139
21.9139
21.9139
21.9139
21.9139
21.9139
21.9139
21.9139
21.9139
21.9139
21.9139
21.9139
21.9139
21.9139
21.9139
21.9139
21.9139
21.9139
21.9139
21.9139
21.9139
21.9139
21.9139
21.9139
21.9139
21.9139
21.9139
21.9139
21.9139
21.9139
21.9139
21.9139
21.9139
21.9139
21.9139
21.9139
21.9139
21.9139
21.9139
21.9139
21.9139
21.9139
21.9139
21.9139
21.9139
21.9139
21.9139
21.9139
21.9139
21.9139
21.9139
21.9139
21.9139
21.9139
21.9139
21.9139
21.9139
21.9139
21.9139
21.9139
21.9139
21.9139
21.9139
21.9139
21.9139
21.9139
21.9139
21.9139
21.9139
21.9139
21.9139
21.9139
21.9139
21.9139
21.9139
21.9139
21.9139
21.9139
21.9139
21.9139
21.9139
21.9139
21.9139
21.9139
21.9139
21.9139
21.9139
21.9139
21.9139
21.9139
21.9139
21.9139
21.9139
21.9139
21.9139
21.9139
21.9139
21.9139
21.9139
21.9139
21.9139
21.9139
21.9139
21.9139
21.9139
21.9139
21.9139
21.9139
21.9139
21.9139
21.9139
21.9139
21.9139
21.9139
21.9139
21.9139
21.9139
21.9139
21.9139
21.9139
21.9139
21.9139
21.9139
21.9139
21.9139
21.9139
21.9139
21.9139
21.9139
21.9139
21.9139
21.9139
21.9139
21.9139
21.9139
21.9139
21.9139
21.9139
21.9139
21.9139
21.9139
21.9139
21.9139
21.9139
21.9139
21.9139
21.9139
21.9139
21.9139
21.9139
21.9139
21.9139
21.9139
21.9139
21.9139
21.9139
21.9139
21.9139
21.9139
21.9139
21.9139
21.9139
21.9139
21.9139
21.9139
21.9139
21.9139
21.9139
21.9139
21.9139
21.9139
21.9139
21.9139
21.9139
21.9139
21.9139
21.9139
21.9139
21.9139
21.9139
21.9139
21.9139
21.9139
21.9139
21.9139
21.9139
21.9139
21.9139
21.9139
21.9139
21.9139
21.9139
21.9139
21.9139
21.9139
21.9139
21.9139
21.9139
21.9139
21.9139
21.9139
21.9139
21.9139
21.9139
21.9139
21.9139
21.9139
21.9139
21.9139
21.9139
21.9139
21.9139
21.9139
21.9139
21.9139
21.9139
21.9139
21.9139
21.9139
21.9139
21.9139
21.9139
21.9139
21.9139
21.9139
21.9139
21.9139
21.9139
21.9139
21.9139
21.9139
21.9139
21.9139
21.9139
21.9139
21.9139
21.9139
21.9139
21.9139
21.9139
21.9139
21.9139
21.9139
21.9139
21.9139
21.9139
21.9139
21.9139
21.9139
21.9139
21.9139
21.9139
21.9139
21.9139
21.9139
21.9139
21.9139
21.9139
21.9139
21.9139
21.9139
21.9139
21.9139
21.9139
21.9139
21.9139
21.9139
21.9139
21.9139
21.9139
21.9139
21.9139
21.9139
21.9139
21.9139
21.9139
21.9139
21.9139
21.9139
21.9139
21.9139
21.9139
21.9139
21.9139
21.9139
21.9139
21.9139
21.9139
21.9139
21.9139
21.9139
21.9139
21.9139
21.9139
21.9139
21.9139
21.9139
21.9139
21.9139
21.9139
21.9139
21.9139
21.9139
21.9139
21.9139
21.9139
21.9139
21.9139
21.9139
21.9139
21.9139
21.9139
21.9139
21.9139
21.9139
21.9139
21.9139
21.9139
21.9139
21.9139
21.9139
21.9139
21.9139
21.9139
21.9139
21.9139
21.9139
21.9139
21.9139
21.9139
21.9139
21.9139
21.9139
21.9139
21.9139
21.9139
21.9139
21.9139
21.9139
21.9139
21.9139
21.9139
21.9139
21.9139
21.9139
21.9139
21.9139
21.9139
21.9139
21.9139
21.9139
21.9139
21.9139
21.9139
21.9139
21.9139
21.9139
21.9139
21.9139
21.9139
21.9139
21.9139
21.9139
21.9139
21.9139
21.9139
21.9139
21.9139
21.9139
21.9139
21.9139
21.9139
21.9139
21.9139
21.9139
21.9139
21.9139
21.9139
21.9139
21.9139
21.9139
21.9139
21.9139
21.9139
21.9139
21.9139
21.9139
21.9139
21.9139
21.9139
21.9139
21.9139
21.9139
21.9139
21.9139
21.9139
21.9139
21.9139
21.9139
21.9139
21.9139
21.9139
21.9139
21.9139
21.9139
21.9139
21.9139
21.9139
21.9139
21.9139
21.9139
21.9139
21.9139
21.9139
21.9139
21.9139
21.9139
21.9139
21.9139
21.9139
21.9139
21.9139
21.9139
21.9139
21.9139
21.9139
21.9139
21.9139
21.9139
21.9139
21.9139
21.9139
21.9139
21.9139
21.9139
21.9139
21.9139
21.9139
21.9139
21.9139
21.9139
21.9139
21.9139
21.9139
21.9139
21.9139
21.9139
21.9139
21.9139
21.9139
21.9139
21.9139
21.9139
21.9139
21.9139
21.9139
21.9139
21.9139
21.9139
21.9139
21.9139
21.9139
21.9139
21.9139
21.9139
21.9139
21.9139
21.9139
21.9139
21.9139
21.9139
21.9139
21.9139
21.9139
21.9139
21.9139
21.9139
21.9139
21.9139
21.9139
21.9139
21.9139
21.9139
21.9139
21.9139
21.9139
21.9139
21.9139
21.9139
21.9139
21.9139
21.9139
21.9139
21.9139
21.9139
21.9139
21.9139
21.9139
21.9139
21.9139
21.9139
21.9139
21.9139
21.9139
21.9139
21.9139
21.9139
21.9139
21.9139
21.9139
21.9139
21.9139
21.9139
21.9139
21.9139
21.9139
21.9139
21.9139
21.9139
21.9139
21.9139
21.9139
21.9139
21.9139
21.9139
21.9139
21.9139
21.9139
21.9139
21.9139
21.9139
21.9139
21.9139
21.9139
21.9139
21.9139
21.9139
21.9139
21.9139
21.9139
21.9139
21.9139
21.9139
21.9139
21.9139
21.9139
21.9139
21.9139
21.9139
21.9139
21.9139
21.9139
21.9139
21.9139
21.9139
21.9139
21.9139
21.9139
21.9139
21.9139
21.9139
21.9139
21.9139
21.9139
21.9139
21.9139
21.9139
21.9139
21.9139
21.9139
21.9139
21.9139
21.9139
21.9139
21.9139
21.9139
21.9139
21.9139
21.9139
21.9139
21.9139
21.9139
21.9139
21.9139
21.9139
21.9139
21.9139
21.9139
21.9139
21.9139
21.9139
21.9139
21.9139
21.9139
21.9139
21.9139
21.9139
21.9139
21.9139
21.9139
21.9139
21.9139
21.9139
21.9139
21.9139
21.9139
21.9139
21.9139
21.9139
21.9139
21.9139
21.9139
21.9139
21.9139
21.9139
21.9139
21.9139
21.9139
21.9139
21.9139
21.9139
21.9139
21.9139
21.9139
21.9139
21.9139
21.9139
21.9139
21.9139
21.9139
21.9139
21.9139
21.9139
21.9139
21.9139
21.9139
21.9139
21.9139
21.9139
21.9139
21.9139
21.9139
21.9139
21.9139
21.9139
21.9139
21.9139
21.9139
21.9139
21.9139
21.9139
21.9139
21.9139
21.9139
21.9139
21.9139
21.9139
21.9139
21.9139
21.9139
21.9139
21.9139
21.9139
21.9139
21.9139
21.9139
21.9139
21.9139
21.9139
21.9139
21.9139
21.9139
21.9139
21.9139
21.9139
21.9139
21.9139
21.9139
21.9139
21.9139
21.9139
21.9139
21.9139
21.9139
21.9139
21.9139
21.9139
21.9139
21.9139
21.9139
21.9139
21.9139
21.9139
21.9139
21.9139
21.9139
21.9139
21.9139
21.9139
21.9139
21.9139
21.9139
21.9139
21.9139
21.9139
21.9139
21.9139
21.9139
21.9139
21.9139
21.9139
21.9139
21.9139
21.9139
21.9139
21.9139
21.9139
21.9139
21.9139
21.9139
21.9139
21.9139
21.9139
21.9139
21.9139
21.9139
21.9139
21.9139
21.9139
21.9139
21.9139
21.9139
21.9139
21.9139
21.9139
21.9139
21.9139
21.9139
21.9139
21.9139
21.9139
21.9139
21.9139
21.9139
21.9139
21.9139
21.9139
21.9139
21.9139
21.9139
21.9139
21.9139
21.9139
21.9139
21.9139
21.9139
21.9139
21.9139
21.9139
21.9139
21.9139
21.9139
21.9139
21.9139
21.9139
21.9139
21.9139
21.9139
21.9139
21.9139
21.9139
21.9139
21.9139
21.9139
21.9139
21.9139
21.9139
21.9139
21.9139
21.9139
21.9139
21.9139
21.9139
21.9139
21.9139
21.9139
21.9139
21.9139
21.9139
21.9139
21.9139
21.9139
21.9139
21.9139
21.9139
21.9139
21.9139
21.9139
21.9139
21.9139
21.9139
21.9139
21.9139
21.9139
21.9139
21.9139
21.9139
21.9139
21.9139
21.9139
21.9139
21.9139
21.9139
21.9139
21.9139
21.9139
21.9139
21.9139
21.9139
21.9139
21.9139
21.9139
21.9139
21.9139
21.9139
21.9139
21.9139
21.9139
21.9139
21.9139
21.9139
21.9139
21.9139
21.9139
21.9139
21.9139
21.9139
21.9139
21.9139
21.9139
21.9139
21.9139
21.9139
21.9139
21.9139
21.9139
21.9139
21.9139
21.9139
21.9139
21.9139
21.9139
21.9139
21.9139
21.9139
21.9139
21.9139
21.9139
21.9139
21.9139
21.9139
21.9139
21.9139
21.9139
21.9139
21.9139
21.9139
21.9139
21.9139
21.9139
21.9139
21.9139
21.9139
21.9139
21.9139
21.9139
21.9139
21.9139
21.9139
21.9139
21.9139
21.9139
21.9139
21.9139
21.9139
21.9139
21.9139
21.9139
21.9139
21.9139
21.9139
21.9139
21.9139
21.9139
21.9139
21.9139
21.9139
21.9139
21.9139
21.9139
21.9139
21.9139
21.9139
21.9139
21.9139
21.9139
21.9139
21.9139
21.9139
21.9139
21.9139
21.9139
21.9139
21.9139
21.9139
21.9139
21.9139
21.9139
21.9139
21.9139
21.9139
21.9139
21.9139
21.9139
21.9139
21.9139
21.9139
21.9139
21.9139
21.9139
21.9139
21.9139
21.9139
21.9139
21.9139
21.9139
21.9139
21.9139
21.9139
21.9139
21.9139
21.9139
21.9139
21.9139
21.9139
21.9139
21.9139
21.9139
21.9139
21.9139
21.9139
21.9139
21.9139
21.9139
21.9139
21.9139
21.9139
21.9139
21.9139
21.9139
21.9139
21.9139
21.9139
21.9139
21.9139
21.9139
21.9139
21.9139
21.9139
21.9139
21.9139
21.9139
21.9139
21.9139
21.9139
21.9139
21.9139
21.9139
21.9139
21.9139
21.9139
21.9139
21.9139
21.9139
21.9139
21.9139
21.9139
21.9139
21.9139
21.9139
21.9139
21.9139
21.9139
21.9139
21.9139
21.9139
21.9139
21.9139
21.9139
21.9139
21.9139
21.9139
21.9139
21.9139
21.9139
21.9139
21.9139
21.9139
21.9139
21.9139
21.9139
21.9139
21.9139
21.9139
21.9139
21.9139
21.9139
21.9139
21.9139
21.9139
21.9139
21.9139
21.9139
21.9139
21.9139
21.9139
21.9139
21.9139
21.9139
21.9139
21.9139
21.9139
21.9139
21.9139
21.9139
21.9139
21.9139
21.9139
21.9139
21.9139
21.9139
21.9139
21.9139
21.9139
21.9139
21.9139
21.9139
21.9139
21.9139
21.9139
21.9139
21.9139
21.9139
21.9139
21.9139
21.9139
21.9139
21.9139
21.9139
21.9139
21.9139
21.9139
21.9139
21.9139
21.9139
21.9139
21.9139
21.9139
21.9139
21.9139
21.9139
21.9139
21.9139
21.9139
21.9139
21.9139
21.9139
21.9139
21.9139
21.9139
21.9139
21.9139
21.9139
21.9139
21.9139
21.9139
21.9139
21.9139
21.9139
21.9139
21.9139
21.9139
21.9139
21.9139
21.9139
21.9139
21.9139
21.9139
21.9139
21.9139
21.9139
21.9139
21.9139
21.9139
21.9139
21.914
21.914
21.914
21.914
21.914
21.914
21.914
21.914
21.914
21.914
21.914
21.914
21.914
21.914
21.914
21.914
21.914
21.914
21.914
21.914
21.914
21.914
21.914
21.914
21.914
21.9139
21.9139
21.9139
21.9139
21.9139
21.9139
21.9139
21.9139
21.9139
21.9139
21.9139
21.9139
21.9139
21.9139
21.9139
21.9139
21.9139
21.9139
21.9139
21.9139
21.9139
21.9139
21.9139
21.9139
21.9139
21.9139
21.9139
21.9139
21.9139
21.914
21.914
21.914
21.914
21.914
21.914
21.914
21.9139
21.9139
21.9139
21.9139
21.9139
21.9139
21.9139
21.9139
21.9139
21.9139
21.9139
21.9139
21.9139
21.9139
21.9139
21.9139
21.9139
21.9139
21.9139
21.9139
21.9139
21.9139
21.9139
21.9139
21.9139
21.9139
21.9139
21.9139
21.9139
21.9139
21.9139
21.9139
21.9139
21.9139
21.9139
21.9139
21.9139
21.9139
21.9139
21.9139
21.9139
21.9139
21.9139
21.9139
21.9139
21.9139
21.914
21.914
21.914
21.914
21.914
21.914
21.914
21.914
21.914
21.914
21.914
21.9141
21.9141
21.9141
21.9141
21.9141
21.9141
21.9141
21.9141
21.9141
21.9141
21.9142
21.9142
21.9142
21.9142
21.9142
21.9142
21.9142
21.9142
21.9142
21.9142
21.9142
21.9142
21.9142
21.9142
21.9141
21.9141
21.9141
21.9141
21.9141
21.9141
21.9141
21.9141
21.9141
21.9141
21.9141
21.9141
21.9141
21.9141
21.914
21.914
21.914
21.914
21.914
21.914
21.914
21.914
21.914
21.914
21.914
21.914
21.914
21.914
21.914
21.914
21.914
21.914
21.9141
21.9141
21.9141
21.9141
21.9142
21.9142
21.9143
21.9143
21.9144
21.9145
21.9146
21.9147
21.9139
21.9139
21.9139
21.9139
21.9139
21.9139
21.9139
21.9139
21.9139
21.9139
21.9139
21.9139
21.9139
21.9139
21.9139
21.9139
21.9139
21.9139
21.9139
21.9139
21.9139
21.9139
21.9139
21.9139
21.9139
21.9139
21.9139
21.9139
21.9139
21.9139
21.9139
21.9139
21.9139
21.9139
21.9139
21.9139
21.9139
21.914
21.914
21.914
21.914
21.914
21.914
21.9141
21.9141
21.9141
21.9141
21.9142
21.9142
21.9142
21.9143
21.9143
21.9144
21.9144
21.9144
21.9145
21.9145
21.9146
21.9146
21.9147
21.9147
21.9148
21.9148
21.9148
21.9149
21.9149
21.9149
21.915
21.915
21.915
21.915
21.915
21.915
21.915
21.915
21.915
21.915
21.915
21.915
21.915
21.9149
21.9149
21.9149
21.9148
21.9148
21.9148
21.9148
21.9147
21.9147
21.9147
21.9146
21.9146
21.9146
21.9145
21.9145
21.9145
21.9145
21.9145
21.9144
21.9144
21.9144
21.9144
21.9144
21.9144
21.9144
21.9144
21.9144
21.9144
21.9144
21.9144
21.9144
21.9145
21.9145
21.9146
21.9147
21.9148
21.9149
21.9151
21.9153
21.9155
21.9158
21.9162
21.9166
21.9171
21.9177
21.9139
21.9139
21.9139
21.9139
21.9139
21.9139
21.9139
21.9139
21.9139
21.9139
21.9139
21.9139
21.9139
21.9139
21.9139
21.9139
21.9139
21.9139
21.9139
21.9139
21.9139
21.9139
21.9139
21.9139
21.9139
21.9139
21.9139
21.9139
21.9139
21.9139
21.914
21.914
21.914
21.914
21.914
21.9141
21.9141
21.9142
21.9142
21.9143
21.9143
21.9144
21.9145
21.9146
21.9147
21.9148
21.9149
21.915
21.9152
21.9153
21.9155
21.9156
21.9158
21.916
21.9162
21.9164
21.9166
21.9167
21.9169
21.9171
21.9173
21.9175
21.9176
21.9178
21.9179
21.918
21.9181
21.9182
21.9183
21.9184
21.9184
21.9184
21.9184
21.9184
21.9184
21.9184
21.9183
21.9183
21.9182
21.9181
21.918
21.9179
21.9178
21.9177
21.9176
21.9174
21.9173
21.9172
21.9171
21.9169
21.9168
21.9167
21.9166
21.9165
21.9164
21.9163
21.9162
21.9161
21.916
21.916
21.9159
21.9159
21.9158
21.9158
21.9158
21.9158
21.9158
21.9159
21.9159
21.916
21.9161
21.9163
21.9165
21.9168
21.9172
21.9177
21.9183
21.9191
21.92
21.9211
21.9225
21.9242
21.9261
21.9284
21.9311
21.9139
21.9139
21.9139
21.9139
21.9139
21.9139
21.9139
21.9139
21.9139
21.9139
21.9139
21.9139
21.9139
21.9139
21.9139
21.9139
21.9139
21.9139
21.9139
21.9139
21.9139
21.9139
21.9139
21.9139
21.9139
21.914
21.914
21.914
21.914
21.9141
21.9141
21.9142
21.9142
21.9143
21.9144
21.9145
21.9147
21.9148
21.915
21.9152
21.9154
21.9157
21.916
21.9164
21.9167
21.9171
21.9176
21.9181
21.9186
21.9192
21.9198
21.9204
21.9211
21.9218
21.9225
21.9233
21.924
21.9248
21.9255
21.9262
21.9269
21.9276
21.9283
21.9289
21.9295
21.93
21.9305
21.9309
21.9313
21.9315
21.9318
21.9319
21.932
21.932
21.932
21.9319
21.9317
21.9315
21.9312
21.9309
21.9306
21.9302
21.9298
21.9293
21.9289
21.9284
21.9279
21.9274
21.9269
21.9265
21.926
21.9255
21.925
21.9246
21.9242
21.9238
21.9234
21.9231
21.9227
21.9224
21.9222
21.922
21.9218
21.9217
21.9216
21.9216
21.9216
21.9217
21.9219
21.9222
21.9226
21.9232
21.924
21.925
21.9263
21.928
21.9301
21.9328
21.9361
21.9402
21.9453
21.9513
21.9586
21.9672
21.9772
21.9889
21.9139
21.9139
21.9139
21.9139
21.9139
21.9139
21.9139
21.9139
21.9139
21.9139
21.9139
21.9139
21.9139
21.9139
21.9139
21.9139
21.9139
21.9139
21.9139
21.9139
21.914
21.914
21.914
21.9141
21.9141
21.9142
21.9143
21.9144
21.9145
21.9146
21.9148
21.9151
21.9153
21.9157
21.9161
21.9166
21.9171
21.9178
21.9185
21.9194
21.9204
21.9215
21.9227
21.9241
21.9257
21.9273
21.9292
21.9312
21.9333
21.9356
21.9381
21.9406
21.9433
21.9461
21.9489
21.9518
21.9547
21.9576
21.9605
21.9633
21.9661
21.9687
21.9712
21.9736
21.9757
21.9777
21.9794
21.9809
21.9822
21.9832
21.984
21.9845
21.9847
21.9847
21.9845
21.984
21.9833
21.9824
21.9813
21.98
21.9786
21.9771
21.9754
21.9737
21.9719
21.9701
21.9682
21.9663
21.9645
21.9626
21.9607
21.959
21.9572
21.9555
21.954
21.9525
21.951
21.9497
21.9485
21.9475
21.9465
21.9457
21.9451
21.9447
21.9446
21.9447
21.9449
21.9454
21.9462
21.9475
21.9493
21.9518
21.9552
21.9596
21.9652
21.9725
21.9817
21.9933
22.0078
22.0257
22.0478
22.0745
22.1066
22.1446
22.189
22.2402
22.2987
22.3649
21.9139
21.9139
21.9139
21.9139
21.9139
21.9139
21.9139
21.9139
21.9139
21.9139
21.9139
21.9139
21.9139
21.9139
21.9139
21.914
21.914
21.914
21.9141
21.9141
21.9142
21.9143
21.9144
21.9146
21.9148
21.9151
21.9154
21.9158
21.9164
21.917
21.9178
21.9188
21.92
21.9214
21.923
21.925
21.9273
21.9299
21.933
21.9365
21.9405
21.945
21.95
21.9556
21.9618
21.9686
21.9759
21.9838
21.9923
22.0013
22.0109
22.0208
22.0312
22.0419
22.0529
22.064
22.0752
22.0863
22.0973
22.1081
22.1184
22.1284
22.1378
22.1465
22.1545
22.1618
22.1682
22.1736
22.1782
22.1818
22.1844
22.186
22.1866
22.1864
22.1852
22.1831
22.1801
22.1764
22.1721
22.1671
22.1617
22.1557
22.1495
22.1429
22.136
22.129
22.1219
22.1147
22.1076
22.1005
22.0935
22.0868
22.0802
22.0739
22.068
22.0623
22.0571
22.0522
22.0478
22.0439
22.0404
22.0376
22.0355
22.0345
22.0345
22.035
22.0361
22.0385
22.0424
22.0481
22.0562
22.0672
22.0817
22.1006
22.1252
22.1565
22.1961
22.2459
22.3077
22.384
22.477
22.5894
22.7236
22.8822
23.0676
23.2819
23.5276
23.8069
21.9139
21.9139
21.9139
21.9139
21.9139
21.9139
21.9139
21.9139
21.9139
21.9139
21.9139
21.914
21.914
21.914
21.9141
21.9142
21.9143
21.9144
21.9146
21.9148
21.9151
21.9155
21.9161
21.9168
21.9177
21.9188
21.9202
21.922
21.9242
21.9269
21.9301
21.9341
21.9389
21.9446
21.9513
21.9593
21.9685
21.9792
21.9915
22.0055
22.0214
22.0392
22.059
22.0809
22.1051
22.1314
22.16
22.1908
22.2236
22.2584
22.295
22.3332
22.3728
22.4135
22.4549
22.4968
22.5387
22.5803
22.6211
22.6607
22.6989
22.7351
22.7692
22.8007
22.8294
22.8551
22.8775
22.8965
22.912
22.9239
22.9323
22.9371
22.9383
22.9362
22.9307
22.922
22.9103
22.896
22.8793
22.8605
22.8399
22.8177
22.7943
22.7698
22.7445
22.7186
22.6924
22.6661
22.64
22.6141
22.5888
22.5642
22.5404
22.5176
22.496
22.4757
22.4569
22.4396
22.4239
22.4101
22.3982
22.3886
22.3824
22.3806
22.3814
22.3839
22.3901
22.4012
22.4184
22.4432
22.4771
22.5226
22.5826
22.6606
22.761
22.8889
23.0504
23.2529
23.5052
23.8165
24.1968
24.6561
25.2038
25.8484
26.5963
27.451
28.4138
29.4849
21.9139
21.9139
21.9139
21.9139
21.9139
21.9139
21.9139
21.914
21.914
21.914
21.9141
21.9142
21.9143
21.9145
21.9147
21.915
21.9154
21.916
21.9167
21.9177
21.919
21.9207
21.923
21.9258
21.9295
21.934
21.9398
21.947
21.9558
21.9667
21.9799
21.9959
22.0151
22.0378
22.0646
22.0959
22.1323
22.1742
22.2222
22.2767
22.3382
22.4071
22.4835
22.5677
22.6598
22.7598
22.8677
22.9831
23.1056
23.2347
23.3695
23.5093
23.6531
23.7999
23.9485
24.0977
24.2463
24.3928
24.5358
24.6741
24.8064
24.9315
25.0484
25.1561
25.2536
25.34
25.4149
25.4779
25.5287
25.5668
25.5928
25.6066
25.609
25.5989
25.577
25.5441
25.5013
25.4497
25.3902
25.3237
25.251
25.1729
25.0904
25.0043
24.9154
24.8246
24.7327
24.6404
24.5486
24.458
24.3692
24.2829
24.1996
24.12
24.0446
23.9739
23.9084
23.8486
23.7949
23.7477
23.7079
23.6772
23.6604
23.6589
23.6639
23.6781
23.7074
23.7561
23.8286
23.93
24.0676
24.2506
24.4906
24.8019
25.2006
25.706
26.3401
27.1285
28.0983
29.2756
30.6819
32.332
34.2365
36.4068
38.8584
41.6093
44.6769
48.0797
51.8412
21.9139
21.9139
21.914
21.914
21.914
21.9141
21.9142
21.9143
21.9145
21.9147
21.915
21.9155
21.9162
21.9171
21.9184
21.9201
21.9224
21.9255
21.9296
21.9349
21.9418
21.9508
21.9623
21.9769
21.9953
22.0183
22.0469
22.0821
22.1251
22.1771
22.2395
22.314
22.4022
22.5058
22.6264
22.7657
22.9253
23.1067
23.3112
23.54
23.7936
24.0727
24.3773
24.7073
25.0624
25.4418
25.8444
26.2683
26.711
27.1695
27.6404
28.1202
28.605
29.0912
29.5747
30.0517
30.518
30.9695
31.4023
31.8129
32.1982
32.5558
32.883
33.1769
33.4353
33.6571
33.8421
33.9888
34.0961
34.1671
34.2025
34.2062
34.1684
34.0945
33.988
33.8528
33.6921
33.5083
33.3033
33.0793
32.8388
32.5844
32.3187
32.0442
31.7633
31.4785
31.1924
30.907
30.6247
30.3476
30.0776
29.8169
29.5674
29.3307
29.1088
28.9039
28.718
28.5522
28.4067
28.2861
28.2025
28.1721
28.1786
28.2074
28.2771
28.4028
28.5972
28.8748
29.2544
29.7603
30.423
31.2788
32.3682
33.7338
35.4214
37.4842
39.987
43.004
46.6095
50.8712
55.857
61.6538
68.3861
76.2089
85.268
95.6484
107.337
120.23
21.914
21.914
21.9141
21.9142
21.9144
21.9146
21.915
21.9155
21.9162
21.9172
21.9186
21.9206
21.9233
21.9271
21.9322
21.9391
21.9484
21.9607
21.9769
21.9982
22.0257
22.0613
22.1067
22.1641
22.2361
22.3256
22.4362
22.5717
22.7362
22.9344
23.1708
23.4504
23.7781
24.1586
24.5959
25.094
25.6565
26.2871
26.9886
27.7628
28.61
29.5287
30.5158
31.5675
32.6796
33.8476
35.066
36.3282
37.6263
38.9509
40.2912
41.6366
42.9771
44.3028
45.6044
46.8736
48.1027
49.2834
50.4075
51.4685
52.4616
53.3824
54.2245
54.9807
55.6455
56.2173
56.697
57.0791
57.3597
57.5498
57.6654
57.6969
57.5961
57.4006
57.1313
56.7928
56.388
55.92
55.3933
54.814
54.189
53.525
52.8284
52.1061
51.3645
50.6105
49.8505
49.0906
48.3366
47.5945
46.8702
46.1699
45.4991
44.8626
44.2663
43.7174
43.2224
42.7842
42.4038
42.0964
41.9073
41.8712
41.9139
42.042
42.2994
42.7224
43.3477
44.2179
45.3865
46.9221
48.9133
51.4671
54.7018
58.7462
63.7571
69.9456
77.5954
87.0554
98.7007
112.846
129.569
148.538
169.036
190.219
211.432
232.355
252.881
272.982
21.9145
21.9148
21.9152
21.9159
21.9168
21.9182
21.9202
21.9231
21.9271
21.9328
21.9407
21.9516
21.9665
21.9867
22.014
22.0505
22.0989
22.1625
22.2453
22.3521
22.4888
22.6622
22.8802
23.1519
23.4872
23.8971
24.3928
24.9854
25.6858
26.5053
27.4556
28.5478
29.7918
31.1939
32.7576
34.4834
36.3703
38.4165
40.6184
42.9694
45.4594
48.0756
50.8049
53.6357
56.5589
59.5669
62.653
65.8071
69.0148
72.2591
75.519
78.7731
82.0038
85.1924
88.3204
91.37
94.3228
97.1605
99.8678
102.432
104.845
107.09
109.144
110.988
112.61
114.02
115.187
116.041
116.696
117.215
117.574
117.56
117.141
116.569
115.866
115.023
114.026
112.867
111.556
110.108
108.545
106.885
105.147
103.35
101.511
99.6488
97.7778
95.9138
94.0723
92.2676
90.5175
88.8396
87.2456
85.7522
84.383
83.1648
82.1077
81.1523
80.4448
80.1477
80.1818
80.4202
80.9526
81.8812
83.3046
85.3307
88.0987
91.789
96.6468
102.992
111.169
121.527
134.379
149.886
167.993
188.512
211.147
235.225
259.523
282.705
304.05
323.579
341.549
357.998
372.671
384.96
394.215
21.9174
21.9192
21.9218
21.9256
21.9311
21.939
21.9503
21.9662
21.9884
22.0193
22.0618
22.1198
22.1984
22.3038
22.4438
22.6279
22.868
23.1782
23.5748
24.0768
24.7046
25.4798
26.4243
27.5608
28.9133
30.5063
32.3618
34.4973
36.9258
39.6573
42.6989
46.0514
49.7086
53.6591
57.8924
62.4052
67.2051
72.3079
77.729
83.4735
89.5317
95.8815
102.498
109.366
116.472
123.815
131.402
139.212
147.193
155.301
163.471
171.599
179.596
187.394
194.928
202.113
208.863
215.132
220.916
226.233
231.03
235.238
238.884
241.957
244.527
246.641
248.249
249.427
250.104
250.402
250.408
249.794
248.719
247.347
245.676
243.73
241.507
239.034
236.35
233.472
230.404
227.163
223.783
220.299
216.741
213.139
209.522
205.922
202.36
198.896
195.586
192.424
189.447
186.756
184.465
182.491
180.679
179.638
179.548
180.043
181.032
182.736
185.429
189.261
194.342
200.886
209.21
219.512
231.786
246.265
262.984
281.184
299.817
318.241
336.215
353.23
368.393
381.253
392.122
401.162
408.015
412.25
413.944
414.134
413.573
412.945
412.532
412.409
21.9278
21.9347
21.9449
21.9597
21.9811
22.0118
22.0553
22.1165
22.2019
22.32
22.4816
22.7006
22.9942
23.3839
23.8958
24.5602
25.4112
26.4851
27.8196
29.4541
31.4301
33.7887
36.5674
39.7988