/*--------------------------------*- C++ -*----------------------------------*\
| =========                 |                                                 |
| \\      /  F ield         | OpenFOAM: The Open Source CFD Toolbox           |
|  \\    /   O peration     | Version:  v1706                                 |
|   \\  /    A nd           | Web:      www.OpenFOAM.com                      |
|    \\/     M anipulation  |                                                 |
\*---------------------------------------------------------------------------*/
FoamFile
{
    version     2.0;
    format      ascii;
    class       volScalarField;
    location    "7e-06";
    object      Tov;
}
// * * * * * * * * * * * * * * * * * * * * * * * * * * * * * * * * * * * * * //

dimensions      [0 0 0 1 0 0 0];


internalField   nonuniform List<scalar> 
29871
(
144.4
144.4
144.4
144.4
144.4
144.4
144.4
144.4
144.4
144.4
144.4
144.4
144.4
144.4
144.4
144.4
144.4
144.4
144.4
144.4
144.4
144.4
144.4
144.4
144.4
144.4
144.4
144.4
144.4
144.4
144.4
144.4
144.4
144.4
144.4
144.4
144.4
144.4
144.4
144.4
144.4
144.4
144.4
144.4
144.4
144.4
144.4
144.4
144.4
144.4
144.4
144.4
144.4
144.4
144.4
144.4
144.4
144.4
144.4
144.4
144.4
144.4
144.4
144.4
144.4
144.4
144.4
144.4
144.4
144.4
144.4
144.4
144.4
144.4
144.4
144.4
144.4
144.4
144.4
144.4
144.4
144.4
144.4
144.4
144.4
144.4
144.4
144.4
144.4
144.4
144.4
144.4
144.4
144.4
144.4
144.4
144.4
144.4
144.4
144.4
144.4
144.4
144.4
144.4
144.4
144.4
144.4
144.4
144.4
144.4
144.4
144.4
144.4
144.4
144.4
144.4
144.4
144.4
144.4
144.4
144.4
144.4
144.4
144.4
144.4
144.4
144.4
144.4
144.4
144.4
144.4
144.4
144.4
144.4
144.4
144.4
144.4
144.4
144.4
144.4
144.4
144.4
144.4
144.4
144.4
144.4
144.4
144.4
144.4
144.4
144.4
144.4
144.4
144.4
144.4
144.4
144.4
144.4
144.4
144.4
144.4
144.4
144.4
144.4
144.4
144.4
144.4
144.4
144.4
144.4
144.4
144.4
144.4
144.4
144.4
144.4
144.4
144.4
144.4
144.4
144.4
144.4
144.4
144.4
144.4
144.4
144.4
144.4
144.4
144.4
144.4
144.4
144.4
144.4
144.4
144.4
144.4
144.4
144.4
144.4
144.4
144.4
144.4
144.4
144.4
144.4
144.4
144.4
144.4
144.4
144.4
144.4
144.4
144.4
144.4
144.4
144.4
144.4
144.4
144.4
144.4
144.4
144.4
144.4
144.4
144.4
144.4
144.4
144.4
144.4
144.4
144.4
144.4
144.4
144.4
144.4
144.4
144.4
144.4
144.4
144.4
144.4
144.4
144.4
144.4
144.4
144.4
144.4
144.4
144.4
144.4
144.4
144.4
144.4
144.4
144.4
144.4
144.4
144.4
144.4
144.4
144.4
144.4
144.4
144.4
144.4
144.4
144.4
144.4
144.4
144.4
144.4
144.4
144.4
144.4
144.4
144.4
144.4
144.4
144.4
144.4
144.4
144.4
144.4
144.4
144.4
144.4
144.4
144.4
144.4
144.4
144.4
144.4
144.4
144.4
144.4
144.4
144.4
144.4
144.4
144.4
144.4
144.4
144.4
144.4
144.4
144.4
144.4
144.4
144.4
144.4
144.4
144.4
144.4
144.4
144.4
144.4
144.4
144.4
144.4
144.4
144.4
144.4
144.4
144.4
144.4
144.4
144.4
144.4
144.4
144.4
144.4
144.4
144.4
144.4
144.4
144.4
144.4
144.4
144.4
144.4
144.4
144.4
144.4
144.4
144.4
144.4
144.4
144.4
144.4
144.4
144.4
144.4
144.4
144.4
144.4
144.4
144.4
144.4
144.4
144.4
144.4
144.4
144.4
144.4
144.4
144.4
144.4
144.4
144.4
144.4
144.4
144.4
144.4
144.4
144.4
144.4
144.4
144.4
144.4
144.4
144.4
144.4
144.4
144.4
144.4
144.4
144.4
144.4
144.4
144.4
144.4
144.4
144.4
144.4
144.4
144.4
144.4
144.4
144.4
144.4
144.4
144.4
144.4
144.4
144.4
144.4
144.4
144.4
144.4
144.4
144.4
144.4
144.4
144.4
144.4
144.4
144.4
144.4
144.4
144.4
144.4
144.4
144.4
144.4
144.4
144.4
144.4
144.4
144.4
144.4
144.4
144.4
144.4
144.4
144.4
144.4
144.4
144.4
144.4
144.4
144.4
144.4
144.4
144.4
144.4
144.4
144.4
144.4
144.4
144.4
144.4
144.4
144.4
144.4
144.4
144.4
144.4
144.4
144.4
144.4
144.4
144.4
144.4
144.4
144.4
144.4
144.4
144.4
144.4
144.4
144.4
144.4
144.4
144.4
144.4
144.4
144.4
144.4
144.4
144.4
144.4
144.4
144.4
144.4
144.4
144.4
144.4
144.4
144.4
144.4
144.4
144.4
144.4
144.4
144.4
144.4
144.4
144.4
144.4
144.4
144.4
144.4
144.4
144.4
144.4
144.4
144.4
144.4
144.4
144.4
144.4
144.4
144.4
144.4
144.4
144.4
144.4
144.4
144.4
144.4
144.4
144.4
144.4
144.4
144.4
144.4
144.4
144.4
144.4
144.4
144.4
144.4
144.4
144.4
144.4
144.4
144.4
144.4
144.4
144.4
144.4
144.4
144.4
144.4
144.4
144.4
144.4
144.4
144.4
144.4
144.4
144.4
144.4
144.4
144.4
144.4
144.4
144.4
144.4
144.4
144.4
144.4
144.4
144.4
144.4
144.4
144.4
144.4
144.4
144.4
144.4
144.4
144.4
144.4
144.4
144.4
144.4
144.4
144.4
144.4
144.4
144.4
144.4
144.4
144.4
144.4
144.4
144.4
144.4
144.4
144.4
144.4
144.4
144.4
144.4
144.4
144.4
144.4
144.4
144.4
144.4
144.4
144.4
144.4
144.4
144.4
144.4
144.4
144.4
144.4
144.4
144.4
144.4
144.4
144.4
144.4
144.4
144.4
144.4
144.4
144.4
144.4
144.4
144.4
144.4
144.4
144.4
144.4
144.4
144.4
144.4
144.4
144.4
144.4
144.4
144.4
144.4
144.4
144.4
144.4
144.4
144.4
144.4
144.4
144.4
144.4
144.4
144.4
144.4
144.4
144.4
144.4
144.4
144.4
144.4
144.4
144.4
144.4
144.4
144.4
144.4
144.4
144.4
144.4
144.4
144.4
144.4
144.4
144.4
144.4
144.4
144.4
144.4
144.4
144.4
144.4
144.4
144.4
144.4
144.4
144.4
144.4
144.4
144.4
144.4
144.4
144.4
144.4
144.4
144.4
144.4
144.4
144.4
144.4
144.4
144.4
144.4
144.4
144.4
144.4
144.4
144.4
144.4
144.4
144.4
144.4
144.4
144.4
144.4
144.4
144.4
144.4
144.4
144.4
144.4
144.4
144.4
144.4
144.4
144.4
144.4
144.4
144.4
144.4
144.4
144.4
144.4
144.4
144.4
144.4
144.4
144.4
144.4
144.4
144.4
144.4
144.4
144.4
144.4
144.4
144.4
144.4
144.4
144.4
144.4
144.4
144.4
144.4
144.4
144.4
144.4
144.4
144.4
144.4
144.4
144.4
144.4
144.4
144.4
144.4
144.4
144.4
144.4
144.4
144.4
144.4
144.4
144.4
144.4
144.4
144.4
144.4
144.4
144.4
144.4
144.4
144.4
144.4
144.4
144.4
144.4
144.4
144.4
144.4
144.4
144.4
144.4
144.4
144.4
144.4
144.4
144.4
144.4
144.4
144.4
144.4
144.4
144.4
144.4
144.4
144.4
144.4
144.4
144.4
144.4
144.4
144.4
144.4
144.4
144.4
144.4
144.4
144.4
144.4
144.4
144.4
144.4
144.4
144.4
144.4
144.4
144.4
144.4
144.4
144.4
144.4
144.4
144.4
144.4
144.4
144.4
144.4
144.4
144.4
144.4
144.4
144.4
144.4
144.4
144.4
144.4
144.4
144.4
144.4
144.4
144.4
144.4
144.4
144.4
144.4
144.4
144.4
144.4
144.4
144.4
144.4
144.4
144.4
144.4
144.4
144.4
144.4
144.4
144.4
144.4
144.4
144.4
144.4
144.4
144.4
144.4
144.4
144.4
144.4
144.4
144.4
144.4
144.4
144.4
144.4
144.4
144.4
144.4
144.4
144.4
144.4
144.4
144.4
144.4
144.4
144.4
144.4
144.4
144.4
144.4
144.4
144.4
144.4
144.4
144.4
144.4
144.4
144.4
144.4
144.4
144.4
144.4
144.4
144.4
144.4
144.4
144.4
144.4
144.4
144.4
144.4
144.4
144.4
144.4
144.4
144.4
144.4
144.4
144.4
144.4
144.4
144.4
144.4
144.4
144.4
144.4
144.4
144.4
144.4
144.4
144.4
144.4
144.4
144.4
144.4
144.4
144.4
144.4
144.4
144.4
144.4
144.4
144.4
144.4
144.4
144.4
144.4
144.4
144.4
144.4
144.4
144.4
144.4
144.4
144.4
144.4
144.4
144.4
144.4
144.4
144.4
144.4
144.4
144.4
144.4
144.4
144.4
144.4
144.4
144.4
144.4
144.4
144.4
144.4
144.4
144.4
144.4
144.4
144.4
144.4
144.4
144.4
144.4
144.4
144.4
144.4
144.4
144.4
144.4
144.4
144.4
144.4
144.4
144.4
144.4
144.4
144.4
144.4
144.4
144.4
144.4
144.4
144.4
144.4
144.4
144.4
144.4
144.4
144.4
144.4
144.4
144.4
144.4
144.4
144.4
144.4
144.4
144.4
144.4
144.4
144.4
144.4
144.4
144.4
144.4
144.4
144.4
144.4
144.4
144.4
144.4
144.4
144.4
144.4
144.4
144.4
144.4
144.4
144.4
144.4
144.4
144.4
144.4
144.4
144.4
144.4
144.4
144.4
144.4
144.4
144.4
144.4
144.4
144.4
144.4
144.4
144.4
144.4
144.4
144.4
144.4
144.4
144.4
144.4
144.4
144.4
144.4
144.4
144.4
144.4
144.4
144.4
144.4
144.4
144.4
144.4
144.4
144.4
144.4
144.4
144.4
144.4
144.4
144.4
144.4
144.4
144.4
144.4
144.4
144.4
144.4
144.4
144.4
144.4
144.4
144.4
144.4
144.4
144.4
144.4
144.4
144.4
144.4
144.4
144.4
144.4
144.4
144.4
144.4
144.4
144.4
144.4
144.4
144.4
144.4
144.4
144.4
144.4
144.4
144.4
144.4
144.4
144.4
144.4
144.4
144.4
144.4
144.4
144.4
144.4
144.4
144.4
144.4
144.4
144.4
144.4
144.4
144.4
144.4
144.4
144.4
144.4
144.4
144.4
144.4
144.4
144.4
144.4
144.4
144.4
144.4
144.4
144.4
144.4
144.4
144.4
144.4
144.4
144.4
144.4
144.4
144.4
144.4
144.4
144.4
144.4
144.4
144.4
144.4
144.4
144.4
144.4
144.4
144.4
144.4
144.4
144.4
144.4
144.4
144.4
144.4
144.4
144.4
144.4
144.4
144.4
144.4
144.4
144.4
144.4
144.4
144.4
144.4
144.4
144.4
144.4
144.4
144.4
144.4
144.4
144.4
144.4
144.4
144.4
144.4
144.4
144.4
144.4
144.4
144.4
144.4
144.4
144.4
144.4
144.4
144.4
144.4
144.4
144.4
144.4
144.4
144.4
144.4
144.4
144.4
144.4
144.4
144.4
144.4
144.4
144.4
144.4
144.4
144.4
144.4
144.4
144.4
144.4
144.4
144.4
144.4
144.4
144.4
144.4
144.4
144.4
144.4
144.4
144.4
144.4
144.4
144.4
144.4
144.4
144.4
144.4
144.4
144.4
144.4
144.4
144.4
144.4
144.4
144.4
144.4
144.4
144.4
144.4
144.4
144.4
144.4
144.4
144.4
144.4
144.4
144.4
144.4
144.4
144.4
144.4
144.4
144.4
144.4
144.4
144.4
144.4
144.4
144.4
144.4
144.4
144.4
144.4
144.4
144.4
144.4
144.4
144.4
144.4
144.4
144.4
144.4
144.4
144.4
144.4
144.4
144.4
144.4
144.4
144.4
144.4
144.4
144.4
144.4
144.4
144.4
144.4
144.4
144.4
144.4
144.4
144.4
144.4
144.4
144.4
144.4
144.4
144.4
144.4
144.4
144.4
144.4
144.4
144.4
144.4
144.4
144.4
144.4
144.4
144.4
144.4
144.4
144.4
144.4
144.4
144.4
144.4
144.4
144.4
144.4
144.4
144.4
144.4
144.4
144.4
144.4
144.4
144.4
144.4
144.4
144.4
144.4
144.4
144.4
144.4
144.4
144.4
144.4
144.4
144.4
144.4
144.4
144.4
144.4
144.4
144.4
144.4
144.4
144.4
144.4
144.4
144.4
144.4
144.4
144.4
144.4
144.4
144.4
144.4
144.4
144.4
144.4
144.4
144.4
144.4
144.4
144.4
144.4
144.4
144.4
144.4
144.4
144.4
144.4
144.4
144.4
144.4
144.4
144.4
144.4
144.4
144.4
144.4
144.4
144.4
144.4
144.4
144.4
144.4
144.4
144.4
144.4
144.4
144.4
144.4
144.4
144.4
144.4
144.4
144.4
144.4
144.4
144.4
144.4
144.4
144.4
144.4
144.4
144.4
144.4
144.4
144.4
144.4
144.4
144.4
144.4
144.4
144.4
144.4
144.4
144.4
144.4
144.4
144.4
144.4
144.4
144.4
144.4
144.4
144.4
144.4
144.4
144.4
144.4
144.4
144.4
144.4
144.4
144.4
144.4
144.4
144.4
144.4
144.4
144.4
144.4
144.4
144.4
144.4
144.4
144.4
144.4
144.4
144.4
144.4
144.4
144.4
144.4
144.4
144.4
144.4
144.4
144.4
144.4
144.4
144.4
144.4
144.4
144.4
144.4
144.4
144.4
144.4
144.4
144.4
144.4
144.4
144.4
144.4
144.4
144.4
144.4
144.4
144.4
144.4
144.4
144.4
144.4
144.4
144.4
144.4
144.4
144.4
144.4
144.4
144.4
144.4
144.4
144.4
144.4
144.4
144.4
144.4
144.4
144.4
144.4
144.4
144.4
144.4
144.4
144.4
144.4
144.4
144.4
144.4
144.4
144.4
144.4
144.4
144.4
144.4
144.4
144.4
144.4
144.4
144.4
144.4
144.4
144.4
144.4
144.4
144.4
144.4
144.4
144.4
144.4
144.4
144.4
144.4
144.4
144.4
144.4
144.4
144.4
144.4
144.4
144.4
144.4
144.4
144.4
144.4
144.4
144.4
144.4
144.4
144.4
144.4
144.4
144.4
144.4
144.4
144.4
144.4
144.4
144.4
144.4
144.4
144.4
144.4
144.4
144.4
144.4
144.4
144.4
144.4
144.4
144.4
144.4
144.4
144.4
144.4
144.4
144.4
144.4
144.4
144.4
144.4
144.4
144.4
144.4
144.4
144.4
144.4
144.4
144.4
144.4
144.4
144.4
144.4
144.4
144.4
144.4
144.4
144.4
144.4
144.4
144.4
144.4
144.4
144.4
144.4
144.4
144.4
144.4
144.4
144.4
144.4
144.4
144.4
144.4
144.4
144.4
144.4
144.4
144.4
144.4
144.4
144.4
144.4
144.4
144.4
144.4
144.4
144.4
144.4
144.4
144.4
144.4
144.4
144.4
144.4
144.4
144.4
144.4
144.4
144.4
144.4
144.4
144.4
144.4
144.4
144.4
144.4
144.4
144.4
144.4
144.4
144.4
144.4
144.4
144.4
144.4
144.4
144.4
144.4
144.4
144.4
144.4
144.4
144.4
144.4
144.4
144.4
144.4
144.4
144.4
144.4
144.4
144.4
144.4
144.4
144.4
144.4
144.4
144.4
144.4
144.4
144.4
144.4
144.4
144.4
144.4
144.4
144.4
144.4
144.4
144.4
144.4
144.4
144.4
144.4
144.4
144.4
144.4
144.4
144.4
144.4
144.4
144.4
144.4
144.4
144.4
144.4
144.4
144.4
144.4
144.4
144.4
144.4
144.4
144.4
144.4
144.4
144.4
144.4
144.4
144.4
144.4
144.4
144.4
144.4
144.4
144.4
144.4
144.4
144.4
144.4
144.4
144.4
144.4
144.4
144.4
144.4
144.4
144.4
144.4
144.4
144.4
144.4
144.4
144.4
144.4
144.4
144.4
144.4
144.4
144.4
144.4
144.4
144.4
144.4
144.4
144.4
144.4
144.4
144.4
144.4
144.4
144.4
144.4
144.4
144.4
144.4
144.4
144.4
144.4
144.4
144.4
144.4
144.4
144.4
144.4
144.4
144.4
144.4
144.4
144.4
144.4
144.4
144.4
144.4
144.4
144.4
144.4
144.4
144.4
144.4
144.4
144.4
144.4
144.4
144.4
144.4
144.4
144.4
144.4
144.4
144.4
144.4
144.4
144.4
144.4
144.4
144.4
144.4
144.4
144.4
144.4
144.4
144.4
144.4
144.4
144.4
144.4
144.4
144.4
144.4
144.4
144.4
144.4
144.4
144.4
144.4
144.4
144.4
144.4
144.4
144.4
144.4
144.4
144.4
144.4
144.4
144.4
144.4
144.4
144.4
144.4
144.4
144.4
144.4
144.4
144.4
144.4
144.4
144.4
144.4
144.4
144.4
144.4
144.4
144.4
144.4
144.4
144.4
144.4
144.4
144.4
144.4
144.4
144.4
144.4
144.4
144.4
144.4
144.4
144.4
144.4
144.4
144.4
144.4
144.4
144.4
144.4
144.4
144.4
144.4
144.4
144.4
144.4
144.4
144.4
144.4
144.4
144.4
144.4
144.4
144.4
144.4
144.4
144.4
144.4
144.4
144.4
144.4
144.4
144.4
144.4
144.4
144.4
144.4
144.4
144.4
144.4
144.4
144.4
144.4
144.4
144.4
144.4
144.4
144.4
144.4
144.4
144.4
144.4
144.4
144.4
144.4
144.4
144.4
144.4
144.4
144.4
144.4
144.4
144.4
144.4
144.4
144.4
144.4
144.4
144.4
144.4
144.4
144.4
144.4
144.4
144.4
144.4
144.4
144.4
144.4
144.4
144.4
144.4
144.4
144.4
144.4
144.4
144.4
144.4
144.4
144.4
144.4
144.4
144.4
144.4
144.4
144.4
144.4
144.4
144.4
144.4
144.4
144.4
144.4
144.4
144.4
144.4
144.4
144.4
144.4
144.4
144.4
144.4
144.4
144.4
144.4
144.4
144.4
144.4
144.4
144.4
144.4
144.4
144.4
144.4
144.4
144.4
144.4
144.4
144.4
144.4
144.4
144.4
144.4
144.4
144.4
144.4
144.4
144.4
144.4
144.4
144.4
144.4
144.4
144.4
144.4
144.4
144.4
144.4
144.4
144.4
144.4
144.4
144.4
144.4
144.4
144.4
144.4
144.4
144.4
144.4
144.4
144.4
144.4
144.4
144.4
144.4
144.4
144.4
144.4
144.4
144.4
144.4
144.4
144.4
144.4
144.4
144.4
144.4
144.4
144.4
144.4
144.4
144.4
144.4
144.4
144.4
144.4
144.4
144.4
144.4
144.4
144.4
144.4
144.4
144.4
144.4
144.4
144.4
144.4
144.4
144.4
144.4
144.4
144.4
144.4
144.4
144.4
144.4
144.4
144.4
144.4
144.401
144.401
144.401
144.4
144.4
144.4
144.4
144.4
144.4
144.4
144.4
144.4
144.4
144.4
144.4
144.4
144.4
144.4
144.4
144.4
144.4
144.4
144.4
144.4
144.4
144.4
144.4
144.4
144.4
144.4
144.4
144.4
144.4
144.4
144.4
144.4
144.4
144.4
144.4
144.4
144.4
144.4
144.4
144.4
144.4
144.4
144.4
144.4
144.4
144.4
144.4
144.4
144.4
144.4
144.401
144.401
144.401
144.401
144.401
144.401
144.401
144.401
144.401
144.401
144.401
144.401
144.401
144.401
144.401
144.401
144.401
144.401
144.401
144.401
144.401
144.401
144.401
144.401
144.401
144.401
144.401
144.401
144.401
144.401
144.401
144.401
144.401
144.401
144.401
144.401
144.401
144.401
144.401
144.401
144.401
144.401
144.401
144.401
144.401
144.401
144.401
144.401
144.401
144.401
144.401
144.401
144.401
144.401
144.401
144.401
144.401
144.401
144.401
144.401
144.401
144.401
144.401
144.401
144.401
144.401
144.401
144.402
144.402
144.402
144.403
144.403
144.404
144.405
144.4
144.4
144.4
144.4
144.4
144.4
144.4
144.4
144.4
144.4
144.4
144.4
144.4
144.4
144.4
144.4
144.4
144.4
144.4
144.4
144.4
144.4
144.4
144.4
144.4
144.4
144.4
144.4
144.4
144.4
144.4
144.4
144.4
144.4
144.4
144.4
144.4
144.4
144.4
144.4
144.401
144.401
144.401
144.401
144.401
144.401
144.401
144.401
144.402
144.402
144.402
144.402
144.403
144.403
144.403
144.403
144.404
144.404
144.404
144.404
144.404
144.405
144.405
144.405
144.405
144.405
144.406
144.406
144.406
144.406
144.406
144.406
144.406
144.406
144.406
144.406
144.406
144.406
144.406
144.406
144.405
144.405
144.405
144.405
144.405
144.405
144.405
144.404
144.404
144.404
144.404
144.404
144.404
144.403
144.403
144.403
144.403
144.403
144.403
144.403
144.403
144.403
144.402
144.402
144.402
144.402
144.402
144.403
144.403
144.403
144.403
144.403
144.403
144.404
144.404
144.405
144.405
144.406
144.408
144.409
144.411
144.413
144.415
144.418
144.421
144.4
144.4
144.4
144.4
144.4
144.4
144.4
144.4
144.4
144.4
144.4
144.4
144.4
144.4
144.4
144.4
144.4
144.4
144.4
144.4
144.4
144.4
144.4
144.4
144.4
144.4
144.4
144.4
144.4
144.4
144.4
144.4
144.401
144.401
144.401
144.401
144.401
144.401
144.402
144.402
144.402
144.403
144.403
144.404
144.404
144.405
144.406
144.406
144.407
144.408
144.409
144.41
144.411
144.412
144.413
144.414
144.415
144.416
144.417
144.418
144.419
144.42
144.42
144.421
144.422
144.423
144.423
144.424
144.424
144.424
144.425
144.425
144.425
144.425
144.424
144.424
144.424
144.424
144.423
144.423
144.422
144.422
144.421
144.42
144.42
144.419
144.418
144.418
144.417
144.416
144.416
144.415
144.414
144.414
144.413
144.413
144.412
144.412
144.411
144.411
144.411
144.41
144.41
144.41
144.41
144.41
144.41
144.41
144.411
144.411
144.412
144.413
144.414
144.416
144.418
144.421
144.424
144.428
144.433
144.439
144.447
144.456
144.466
144.479
144.493
144.4
144.4
144.4
144.4
144.4
144.4
144.4
144.4
144.4
144.4
144.4
144.4
144.4
144.4
144.4
144.4
144.4
144.4
144.4
144.4
144.4
144.4
144.4
144.4
144.4
144.4
144.4
144.401
144.401
144.401
144.401
144.402
144.402
144.402
144.403
144.404
144.404
144.405
144.406
144.407
144.409
144.41
144.412
144.414
144.416
144.418
144.421
144.424
144.426
144.43
144.433
144.437
144.44
144.444
144.448
144.452
144.456
144.46
144.464
144.468
144.472
144.476
144.479
144.483
144.486
144.488
144.491
144.493
144.495
144.496
144.497
144.498
144.499
144.499
144.498
144.498
144.497
144.495
144.494
144.492
144.49
144.488
144.486
144.483
144.481
144.478
144.475
144.473
144.47
144.467
144.465
144.462
144.46
144.457
144.455
144.453
144.451
144.449
144.447
144.446
144.444
144.443
144.442
144.441
144.441
144.441
144.441
144.442
144.443
144.445
144.447
144.45
144.454
144.46
144.467
144.476
144.488
144.503
144.521
144.544
144.571
144.605
144.645
144.692
144.747
144.811
144.4
144.4
144.4
144.4
144.4
144.4
144.4
144.4
144.4
144.4
144.4
144.4
144.4
144.4
144.4
144.4
144.4
144.4
144.4
144.4
144.4
144.401
144.401
144.401
144.401
144.402
144.402
144.403
144.403
144.404
144.405
144.407
144.408
144.41
144.412
144.415
144.418
144.422
144.426
144.431
144.437
144.443
144.45
144.458
144.466
144.476
144.486
144.497
144.509
144.522
144.535
144.55
144.564
144.58
144.595
144.611
144.627
144.643
144.659
144.674
144.689
144.703
144.717
144.729
144.741
144.751
144.761
144.769
144.775
144.78
144.784
144.787
144.787
144.787
144.785
144.782
144.778
144.773
144.766
144.759
144.751
144.743
144.734
144.724
144.714
144.704
144.694
144.683
144.673
144.663
144.652
144.643
144.633
144.624
144.615
144.607
144.6
144.593
144.586
144.58
144.575
144.571
144.568
144.566
144.565
144.566
144.567
144.57
144.574
144.581
144.592
144.606
144.624
144.648
144.68
144.72
144.771
144.835
144.915
145.014
145.135
145.281
145.457
145.664
145.907
146.187
146.507
146.872
144.4
144.4
144.4
144.4
144.4
144.4
144.4
144.4
144.4
144.4
144.4
144.4
144.4
144.4
144.4
144.4
144.4
144.401
144.401
144.401
144.402
144.402
144.403
144.404
144.405
144.407
144.409
144.411
144.414
144.418
144.422
144.428
144.435
144.443
144.452
144.463
144.476
144.491
144.509
144.529
144.551
144.576
144.605
144.636
144.671
144.709
144.75
144.794
144.842
144.892
144.945
145.001
145.058
145.117
145.178
145.239
145.301
145.362
145.422
145.481
145.537
145.591
145.642
145.689
145.732
145.77
145.804
145.832
145.855
145.873
145.886
145.893
145.895
145.892
145.884
145.871
145.854
145.832
145.807
145.779
145.748
145.715
145.679
145.643
145.605
145.566
145.526
145.487
145.448
145.409
145.371
145.334
145.298
145.264
145.232
145.201
145.173
145.146
145.123
145.101
145.083
145.068
145.057
145.052
145.052
145.055
145.062
145.075
145.097
145.129
145.173
145.234
145.314
145.418
145.553
145.725
145.943
146.217
146.558
146.978
147.492
148.113
148.854
149.729
150.747
151.92
153.255
154.761
144.4
144.4
144.4
144.4
144.4
144.4
144.4
144.4
144.4
144.4
144.4
144.4
144.401
144.401
144.401
144.402
144.402
144.403
144.404
144.405
144.407
144.41
144.413
144.417
144.422
144.428
144.436
144.446
144.459
144.474
144.493
144.516
144.543
144.576
144.614
144.66
144.712
144.773
144.843
144.922
145.012
145.112
145.224
145.348
145.484
145.633
145.793
145.965
146.149
146.343
146.547
146.759
146.978
147.203
147.431
147.661
147.891
148.118
148.34
148.556
148.762
148.958
149.14
149.309
149.462
149.597
149.714
149.813
149.892
149.951
149.991
150.012
150.012
149.996
149.961
149.908
149.839
149.757
149.661
149.555
149.439
149.315
149.184
149.048
148.908
148.765
148.621
148.476
148.332
148.191
148.052
147.917
147.787
147.663
147.546
147.435
147.333
147.239
147.154
147.079
147.015
146.964
146.931
146.923
146.928
146.943
146.978
147.04
147.137
147.274
147.463
147.716
148.049
148.481
149.037
149.745
150.637
151.752
153.135
154.831
156.888
159.347
162.248
165.621
169.488
173.859
178.73
184.09
144.4
144.4
144.4
144.4
144.4
144.4
144.4
144.4
144.401
144.401
144.401
144.402
144.402
144.403
144.405
144.406
144.409
144.412
144.416
144.422
144.43
144.44
144.452
144.469
144.49
144.516
144.55
144.591
144.642
144.704
144.78
144.872
144.981
145.111
145.265
145.444
145.651
145.89
146.163
146.473
146.821
147.21
147.641
148.114
148.631
149.191
149.793
150.435
151.116
151.83
152.574
153.343
154.131
154.932
155.739
156.546
157.346
158.13
158.893
159.625
160.321
160.976
161.583
162.138
162.636
163.073
163.448
163.757
164.001
164.178
164.292
164.337
164.326
164.254
164.118
163.924
163.679
163.389
163.06
162.695
162.298
161.875
161.43
160.966
160.489
160.003
159.511
159.019
158.53
158.047
157.574
157.115
156.672
156.249
155.849
155.473
155.126
154.809
154.525
154.276
154.067
153.909
153.827
153.824
153.853
153.933
154.097
154.368
154.766
155.321
156.069
157.06
158.354
160.022
162.144
164.81
168.122
172.197
177.15
183.084
190.067
198.12
207.224
217.344
228.434
240.425
253.213
266.661
280.624
144.4
144.4
144.4
144.4
144.401
144.401
144.402
144.402
144.403
144.405
144.407
144.41
144.413
144.419
144.426
144.436
144.45
144.467
144.491
144.522
144.562
144.614
144.681
144.765
144.872
145.005
145.17
145.372
145.62
145.919
146.278
146.705
147.21
147.802
148.489
149.28
150.183
151.207
152.358
153.64
155.058
156.611
158.297
160.113
162.056
164.117
166.288
168.555
170.904
173.315
175.768
178.242
180.717
183.172
185.587
187.944
190.223
192.405
194.473
196.412
198.211
199.859
201.348
202.665
203.805
204.763
205.542
206.137
206.549
206.789
206.853
206.785
206.534
206.108
205.532
204.827
204.007
203.084
202.064
200.958
199.777
198.532
197.234
195.895
194.526
193.139
191.744
190.351
188.972
187.616
186.294
185.015
183.79
182.626
181.534
180.525
179.609
178.791
178.077
177.49
177.089
176.96
177
177.152
177.519
178.17
179.167
180.581
182.5
185.039
188.339
192.561
197.873
204.436
212.4
221.911
233.118
246.14
260.999
277.566
295.562
314.632
334.451
354.781
375.431
396.174
416.683
436.557
144.401
144.401
144.401
144.402
144.403
144.404
144.406
144.409
144.413
144.419
144.428
144.439
144.455
144.477
144.507
144.547
144.601
144.673
144.767
144.891
145.051
145.258
145.521
145.853
146.27
146.788
147.427
148.208
149.153
150.287
151.634
153.222
155.075
157.217
159.666
162.439
165.547
168.999
172.8
176.948
181.428
186.22
191.291
196.608
202.136
207.84
213.683
219.623
225.613
231.602
237.533
243.356
249.023
254.494
259.735
264.719
269.421
273.821
277.897
281.64
285.045
288.111
290.83
293.19
295.184
296.82
298.111
299.048
299.632
299.904
299.899
299.661
299.04
298.078
296.865
295.436
293.807
291.984
289.976
287.797
285.467
283.005
280.429
277.761
275.018
272.223
269.395
266.554
263.72
260.915
258.159
255.477
252.893
250.426
248.103
245.956
244.016
242.294
240.795
239.613
238.949
238.901
239.104
239.701
240.863
242.719
245.403
249.067
253.895
260.106
267.95
277.669
289.442
303.335
319.322
337.33
357.286
379.066
402.383
426.686
451.109
474.555
495.971
514.642
530.346
543.283
553.828
562.402
144.403
144.405
144.408
144.412
144.417
144.425
144.437
144.454
144.478
144.511
144.557
144.621
144.708
144.827
144.986
145.199
145.482
145.852
146.334
146.956
147.75
148.755
150.015
151.579
153.5
155.835
158.643
161.98
165.895
170.435
175.639
181.54
188.151
195.466
203.453
212.067
221.253
230.956
241.113
251.646
262.453
273.424
284.445
295.42
306.272
316.941
327.377
337.529
347.339
356.74
365.672
374.082
381.934
389.203
395.88
401.967
407.467
412.388
416.749
420.585
423.931
426.799
429.188
431.108
432.575
433.639
434.279
434.396
434.285
433.943
433.307
432.229
430.687
428.9
426.933
424.775
422.411
419.833
417.052
414.09
410.967
407.7
404.309
400.814
397.238
393.602
389.929
386.24
382.563
378.922
375.357
371.902
368.587
365.455
362.568
359.99
357.741
355.754
354.369
354.003
354.19
354.888
356.334
358.712
362.193
366.947
373.173
381.085
390.914
402.885
417.113
433.486
451.606
470.801
490.259
509.219
527.032
543.06
556.703
567.652
576.051
582.359
587.102
590.745
593.67
596.055
597.907
144.421
144.431
144.447
144.469
144.501
144.548
144.614
144.707
144.838
145.019
145.269
145.609
146.069
146.685
147.503
148.577
149.974
151.772
154.06
156.937
160.509
164.886
170.171
176.459
183.837
192.372
202.097
212.999
225.03
238.119
252.182
267.106
282.735
298.876
315.317
331.869
348.39
364.781
380.951
396.787
412.142
426.858
440.801
453.883
466.057
477.33
487.744
497.31
506.02
513.888
520.909
527.072
532.401
536.93
540.713
543.791
546.204
548.026
549.35
550.262
550.775
550.893
550.759
550.304
549.557
548.579
547.378
546.049
544.554
542.928
541.221
539.367
537.337
535.192
532.974
530.693
528.342
525.927
523.46
520.944
518.381
515.776
513.139
510.482
507.816
505.152
502.503
499.883
497.302
494.797
492.405
490.122
487.989
486.086
484.503
483.177
482.033
481.824
482.101
482.9
484.212
486.192
489.025
492.773
497.465
503.174
509.975
517.817
526.528
535.995
545.837
555.341
563.961
571.548
578.186
583.904
588.641
592.451
595.55
598.106
600.225
601.976
603.344
604.348
605.308
606.234
607.076
607.877
144.482
144.523
144.583
144.671
144.797
144.978
145.234
145.594
146.097
146.79
147.738
149.02
150.735
153.002
155.963
159.778
164.62
170.667
178.09
187.046
197.663
210.022
224.131
239.938
257.345
276.212
296.326
317.391
339.067
361.047
383.108
405.074
426.76
447.935
468.309
487.588
505.551
522.126
537.334
551.21
563.744
574.877
584.556
592.765
599.513
604.892
609.083
612.231
614.51
616.014
616.843
617.086
616.964
616.402
615.406
614.095
612.536
610.798
608.942
606.997
604.974
602.887
600.746
598.54
596.283
594.015
591.775
589.532
587.275
585.025
582.837
580.779
578.725
576.642
574.56
572.508
570.501
568.544
566.642
564.792
562.989
561.231
559.524
557.874
556.285
554.761
553.299
551.903
550.59
549.372
548.247
547.217
546.311
545.579
545.017
544.622
544.626
544.873
545.28
545.896
546.951
548.4
550.211
552.391
555.027
558.131
561.545
565.134
569.165
573.695
578.016
581.848
585.329
588.636
591.795
594.707
597.366
599.834
601.899
603.648
605.345
606.999
608.604
610.133
611.509
612.758
613.94
615.054
144.717
144.875
145.106
145.44
145.922
146.607
147.573
148.92
150.776
153.304
156.697
161.186
167.025
174.478
183.805
195.235
208.946
225.031
243.475
264.177
286.956
311.523
337.448
364.231
391.444
418.764
445.907
472.534
498.205
522.448
544.95
565.551
584.178
600.777
615.266
627.532
637.441
645.089
650.744
654.787
657.559
659.288
660.082
660.131
659.641
658.362
656.544
654.479
652.24
649.886
647.519
645.049
642.541
640.055
637.563
635.024
632.402
629.826
627.336
624.903
622.47
620.015
617.549
615.08
612.607
610.147
607.728
605.329
602.936
600.559
598.235
596.003
593.812
591.628
589.452
587.301
585.195
583.145
581.159
579.24
577.391
575.611
573.903
572.273
570.729
569.274
567.914
566.653
565.504
564.471
563.554
562.762
562.112
561.6
561.215
561.158
561.266
561.557
562
562.597
563.435
564.526
565.851
567.433
569.3
571.42
573.728
576.273
579.286
582.542
585.351
588.034
590.713
593.423
596.169
598.907
601.574
603.979
606.097
608.09
610.088
612.124
614.157
616.12
617.983
619.745
621.418
623.003
146.198
147.061
148.303
150.071
152.555
155.996
160.684
166.958
175.185
185.728
198.917
215.005
234.124
256.256
281.248
308.819
338.504
369.657
401.619
433.869
465.982
497.473
527.71
556.139
582.38
606.146
627.194
645.292
660.018
671.436
679.919
685.864
689.794
692.257
693.542
693.772
693.339
691.928
689.826
687.517
685.218
682.894
680.551
678.156
675.631
673.088
670.694
668.263
665.709
663.168
660.469
657.705
654.97
652.266
649.537
646.741
644.021
641.409
638.881
636.365
633.817
631.251
628.684
626.117
623.554
621.014
618.513
616.048
613.611
611.215
608.874
606.59
604.341
602.112
599.902
597.722
595.587
593.508
591.488
589.532
587.639
585.812
584.057
582.381
580.792
579.294
577.895
576.603
575.422
574.354
573.408
572.594
571.909
571.351
571.005
570.96
571.03
571.22
571.57
572.139
572.94
573.968
575.243
576.785
578.561
580.534
582.769
585.46
588.328
590.742
593.085
595.519
598.085
600.795
603.612
606.343
608.866
611.223
613.553
615.95
618.431
620.958
623.49
625.991
628.431
630.792
633.062
151.005
154.077
158.406
164.396
172.509
183.233
197.031
214.282
235.215
259.857
288.04
319.411
353.382
389.124
425.779
462.654
499.152
534.526
568.03
599.134
627.397
652.352
673.197
689.532
701.739
710.447
716.199
719.691
721.701
722.444
722.272
721.117
719.047
716.75
714.523
712.308
710.033
707.643
705.267
702.76
700.208
697.553
694.78
691.985
689.19
686.393
683.624
680.77
677.895
675.12
672.228
669.272
666.502
663.805
661.033
658.149
655.438
652.864
650.34
647.807
645.237
642.65
640.084
637.529
634.97
632.426
629.92
627.463
625.042
622.647
620.284
617.965
615.683
613.429
611.195
608.988
606.819
604.698
602.631
600.622
598.671
596.778
594.95
593.193
591.514
589.922
588.423
587.023
585.725
584.537
583.469
582.527
581.709
581.025
580.526
580.246
580.194
580.244
580.428
580.806
581.393
582.2
583.248
584.538
586.041
587.749
589.749
592.249
594.725
596.816
598.95
601.279
603.848
606.661
609.61
612.521
615.318
618.054
620.843
623.765
626.837
630.031
633.301
636.591
639.855
643.054
646.158
649.144
651.991
167.256
176.994
189.998
206.827
227.897
253.388
283.201
316.983
354.114
393.656
434.519
475.74
516.511
555.894
593.043
627.373
658.334
684.867
705.886
721.501
732.544
739.879
744.328
746.838
747.895
747.83
746.774
744.761
742.534
740.349
738.234
736.046
733.647
731.109
728.511
725.792
722.984
720.063
717.108
714.163
711.242
708.309
705.389
702.482
699.559
696.749
693.985
691.099
688.343
685.612
682.691
679.876
677.282
674.666
671.922
669.102
666.511
664.043
661.6
659.132
656.622
654.096
651.602
649.118
646.622
644.125
641.655
639.238
636.863
634.5
632.15
629.83
627.549
625.297
623.065
620.85
618.661
616.51
614.406
612.352
610.348
608.397
606.502
604.672
602.916
601.241
599.654
598.16
596.762