/*--------------------------------*- C++ -*----------------------------------*\
| =========                 |                                                 |
| \\      /  F ield         | OpenFOAM: The Open Source CFD Toolbox           |
|  \\    /   O peration     | Version:  v1706                                 |
|   \\  /    A nd           | Web:      www.OpenFOAM.com                      |
|    \\/     M anipulation  |                                                 |
\*---------------------------------------------------------------------------*/
FoamFile
{
    version     2.0;
    format      ascii;
    class       volVectorField;
    location    "7e-06";
    object      U;
}
// * * * * * * * * * * * * * * * * * * * * * * * * * * * * * * * * * * * * * //

dimensions      [0 1 -1 0 0 0 0];


internalField   nonuniform List<vector> 
29871
(
(2764.5 -3.74214e-11 7.03392e-15)
(2764.5 -3.82509e-11 4.01213e-15)
(2764.5 -3.78715e-11 4.56647e-15)
(2764.5 -3.7945e-11 3.29087e-15)
(2764.5 -3.80353e-11 1.77933e-15)
(2764.5 -3.79596e-11 1.62086e-15)
(2764.5 -3.63634e-11 2.8639e-15)
(2764.5 -3.53251e-11 3.0956e-15)
(2764.5 -3.49493e-11 3.72065e-15)
(2764.5 -3.51982e-11 3.82232e-15)
(2764.5 -3.56849e-11 4.40282e-15)
(2764.5 -3.72436e-11 6.00904e-15)
(2764.5 -3.87197e-11 4.52812e-15)
(2764.5 -3.98214e-11 4.93535e-15)
(2764.5 -4.06183e-11 4.01657e-15)
(2764.5 -4.11892e-11 2.55784e-15)
(2764.5 -4.12389e-11 2.694e-15)
(2764.5 -4.07064e-11 3.29211e-15)
(2764.5 -3.9974e-11 5.0031e-15)
(2764.5 -4.01002e-11 5.00681e-15)
(2764.5 -4.06398e-11 2.60464e-15)
(2764.5 -4.06429e-11 2.86783e-15)
(2764.5 -4.0926e-11 1.72996e-15)
(2764.5 -4.22707e-11 2.58579e-15)
(2764.5 -4.34147e-11 4.7099e-15)
(2764.5 -4.48563e-11 4.49081e-15)
(2764.5 -4.46302e-11 5.80139e-15)
(2764.5 -4.22268e-11 2.8847e-15)
(2764.5 -4.19531e-11 2.18388e-15)
(2764.5 -4.39208e-11 3.9583e-15)
(2764.5 -4.59571e-11 3.95409e-15)
(2764.5 -4.65499e-11 2.59327e-15)
(2764.5 -4.61421e-11 3.61132e-15)
(2764.5 -4.54761e-11 7.03929e-15)
(2764.5 -4.59998e-11 4.78549e-15)
(2764.5 -4.57537e-11 -1.30318e-16)
(2764.5 -4.47176e-11 -3.23417e-16)
(2764.5 -4.21458e-11 2.82802e-15)
(2764.5 -3.79385e-11 3.31531e-15)
(2764.5 -3.60193e-11 3.9392e-15)
(2764.5 -3.45486e-11 4.91198e-15)
(2764.5 -3.21551e-11 5.87862e-15)
(2764.5 -3.16639e-11 5.84167e-15)
(2764.5 -3.20091e-11 3.36089e-15)
(2764.5 -3.38003e-11 3.2651e-15)
(2764.5 -3.60248e-11 3.99243e-15)
(2764.5 -3.93112e-11 2.72039e-15)
(2764.5 -4.10887e-11 -1.11993e-16)
(2764.5 -4.19204e-11 1.16977e-15)
(2764.5 -4.3735e-11 4.20973e-15)
(2764.5 -4.52325e-11 4.59689e-15)
(2764.5 -4.49003e-11 9.97484e-16)
(2764.5 -4.83052e-11 1.60334e-15)
(2764.5 -5.15253e-11 4.30506e-15)
(2764.5 -5.46297e-11 3.59196e-15)
(2764.5 -5.42344e-11 4.03707e-15)
(2764.5 -5.21817e-11 4.47692e-15)
(2764.5 -5.26754e-11 5.68524e-15)
(2764.5 -5.4283e-11 5.02906e-15)
(2764.5 -5.50378e-11 4.78591e-15)
(2764.5 -5.47672e-11 2.12692e-15)
(2764.5 -5.41097e-11 1.25805e-15)
(2764.5 -5.19425e-11 2.27061e-15)
(2764.5 -4.95313e-11 6.681e-16)
(2764.5 -4.78673e-11 2.36078e-15)
(2764.5 -4.66548e-11 6.25286e-15)
(2764.5 -4.49666e-11 3.98341e-15)
(2764.5 -4.37485e-11 3.12395e-15)
(2764.5 -4.18779e-11 1.92322e-15)
(2764.5 -3.94083e-11 2.59474e-15)
(2764.5 -3.82364e-11 3.51751e-15)
(2764.5 -3.8031e-11 3.68449e-15)
(2764.5 -3.67101e-11 2.17899e-15)
(2764.5 -3.42544e-11 2.47807e-15)
(2764.5 -3.44613e-11 2.73065e-15)
(2764.5 -3.68744e-11 3.88162e-15)
(2764.5 -3.89785e-11 1.84103e-15)
(2764.5 -4.21295e-11 2.57557e-15)
(2764.5 -4.50051e-11 2.73131e-15)
(2764.5 -4.54278e-11 4.0768e-15)
(2764.5 -4.33311e-11 5.58236e-15)
(2764.5 -3.90029e-11 4.41189e-15)
(2764.5 -3.55003e-11 4.64686e-15)
(2764.5 -3.29327e-11 2.98195e-15)
(2764.5 -3.2521e-11 4.67358e-15)
(2764.5 -3.49749e-11 5.33816e-15)
(2764.5 -3.69144e-11 3.17175e-15)
(2764.5 -3.7042e-11 4.01043e-15)
(2764.5 -3.6318e-11 4.94522e-15)
(2764.5 -3.55596e-11 4.38629e-15)
(2764.5 -3.57874e-11 4.06815e-15)
(2764.5 -3.89723e-11 2.36092e-15)
(2764.5 -4.16304e-11 3.50027e-15)
(2764.5 -4.32837e-11 3.98994e-15)
(2764.5 -4.72597e-11 2.52018e-15)
(2764.5 -5.06044e-11 2.61406e-15)
(2764.5 -5.39607e-11 2.56677e-15)
(2764.5 -5.82241e-11 3.06656e-15)
(2764.5 -5.92313e-11 3.04035e-15)
(2764.5 -5.84526e-11 3.12665e-15)
(2764.5 -5.64981e-11 3.85717e-15)
(2764.5 -5.41958e-11 3.64129e-15)
(2764.5 -5.48906e-11 2.70519e-15)
(2764.5 -5.68987e-11 3.02528e-15)
(2764.5 -5.7438e-11 1.65178e-15)
(2764.5 -1.26633e-10 9.84179e-15)
(2764.5 -1.26283e-10 9.55781e-15)
(2764.5 -1.25499e-10 1.15553e-14)
(2764.5 -1.26733e-10 1.20109e-14)
(2764.5 -1.25838e-10 1.08197e-14)
(2764.5 -1.2739e-10 1.31619e-14)
(2764.5 -1.25319e-10 1.37443e-14)
(2764.5 -1.26114e-10 1.14053e-14)
(2764.5 -1.24975e-10 1.15279e-14)
(2764.5 -1.23167e-10 1.12293e-14)
(2764.5 -1.2106e-10 1.10968e-14)
(2764.5 -1.17341e-10 1.07655e-14)
(2764.5 -1.16269e-10 1.35912e-14)
(2764.5 -1.16481e-10 1.17987e-14)
(2764.5 -1.15906e-10 5.75193e-15)
(2764.5 -1.14824e-10 8.28666e-15)
(2764.5 -1.15714e-10 1.16219e-14)
(2764.5 -1.16136e-10 1.1219e-14)
(2764.5 -1.13929e-10 9.45082e-15)
(2764.5 -1.134e-10 8.31818e-15)
(2764.5 -1.12202e-10 8.26657e-15)
(2764.5 -1.17264e-10 9.82364e-15)
(2764.5 -1.19417e-10 1.17376e-14)
(2764.5 -1.21149e-10 1.4536e-14)
(2764.5 -1.2458e-10 9.917e-15)
(2764.5 -1.25303e-10 1.06922e-14)
(2764.5 -1.28878e-10 1.17078e-14)
(2764.5 -1.31385e-10 1.08113e-14)
(2764.5 -1.29104e-10 1.11347e-14)
(2764.5 -1.24264e-10 1.07651e-14)
(2764.5 -1.20612e-10 1.15849e-14)
(2764.5 -1.14211e-10 7.00283e-15)
(2764.5 -1.08906e-10 1.012e-14)
(2764.5 -1.05034e-10 1.37432e-14)
(2764.5 -1.01768e-10 1.22397e-14)
(2764.5 -1.02911e-10 1.22987e-14)
(2764.5 -1.06896e-10 7.88079e-15)
(2764.5 -1.16355e-10 1.224e-14)
(2764.5 -1.28031e-10 1.11868e-14)
(2764.5 -1.3268e-10 1.10234e-14)
(2764.5 -1.40943e-10 1.2612e-14)
(2764.5 -1.47407e-10 1.08933e-14)
(2764.5 -1.50848e-10 1.10655e-14)
(2764.5 -1.54158e-10 1.08825e-14)
(2764.5 -1.55008e-10 1.00057e-14)
(2764.5 -1.49698e-10 1.16124e-14)
(2764.5 -1.44785e-10 1.11229e-14)
(2764.5 -1.42205e-10 8.30937e-15)
(2764.5 -1.36215e-10 1.1143e-14)
(2764.5 -1.26963e-10 1.02095e-14)
(2764.5 -1.19416e-10 6.37148e-15)
(2764.5 -1.12694e-10 9.94361e-15)
(2764.5 -1.03605e-10 1.21922e-14)
(2764.5 -9.58555e-11 9.60049e-15)
(2764.5 -8.50286e-11 9.53091e-15)
(2764.5 -8.23264e-11 9.44916e-15)
(2764.5 -7.76177e-11 1.11574e-14)
(2764.5 -7.00695e-11 1.24559e-14)
(2764.5 -6.38243e-11 7.10767e-15)
(2764.5 -6.20182e-11 7.00096e-15)
(2764.5 -5.90896e-11 8.74059e-15)
(2764.5 -5.92174e-11 6.15697e-15)
(2764.5 -5.76509e-11 6.6566e-15)
(2764.5 -5.79391e-11 6.11754e-15)
(2764.5 -5.60402e-11 7.38236e-15)
(2764.5 -5.73174e-11 7.23406e-15)
(2764.5 -6.03584e-11 6.21211e-15)
(2764.5 -6.35113e-11 8.10308e-15)
(2764.5 -6.72903e-11 9.05485e-15)
(2764.5 -6.68929e-11 7.29771e-15)
(2764.5 -6.76235e-11 1.0778e-14)
(2764.5 -6.49097e-11 5.95135e-15)
(2764.5 -6.74221e-11 5.42135e-15)
(2764.5 -6.95671e-11 8.03753e-15)
(2764.5 -6.71965e-11 7.57572e-15)
(2764.5 -6.65563e-11 7.78809e-15)
(2764.5 -6.48612e-11 6.45695e-15)
(2764.5 -6.4645e-11 6.7957e-15)
(2764.5 -6.54133e-11 7.86362e-15)
(2764.5 -6.82627e-11 9.24868e-15)
(2764.5 -7.14405e-11 8.13317e-15)
(2764.5 -7.43367e-11 7.58349e-15)
(2764.5 -7.49277e-11 7.96983e-15)
(2764.5 -7.28947e-11 8.99561e-15)
(2764.5 -6.75475e-11 9.64663e-15)
(2764.5 -5.79648e-11 9.76302e-15)
(2764.5 -5.84731e-11 9.8055e-15)
(2764.5 -5.86349e-11 9.28112e-15)
(2764.5 -6.27159e-11 1.04061e-14)
(2764.5 -6.43105e-11 9.92654e-15)
(2764.5 -6.65649e-11 8.76558e-15)
(2764.5 -6.27659e-11 6.10352e-15)
(2764.5 -6.25849e-11 1.15557e-14)
(2764.5 -6.43539e-11 1.12006e-14)
(2764.5 -6.14984e-11 9.69709e-15)
(2764.5 -6.06174e-11 7.46962e-15)
(2764.5 -5.47008e-11 8.51716e-15)
(2764.5 -5.54426e-11 8.49934e-15)
(2764.5 -5.93099e-11 6.95539e-15)
(2764.5 -6.07037e-11 6.07323e-15)
(2764.5 -6.35655e-11 8.9443e-15)
(2764.5 -6.31931e-11 9.62467e-15)
(2764.5 -6.12767e-11 6.73767e-15)
(2764.5 -5.7395e-11 7.66165e-15)
(2764.5 -5.60349e-11 5.46884e-15)
(2764.5 -2.11171e-10 2.15543e-14)
(2764.5 -2.13316e-10 2.4259e-14)
(2764.5 -2.14504e-10 1.59986e-14)
(2764.5 -2.12852e-10 1.91969e-14)
(2764.5 -2.12297e-10 2.38303e-14)
(2764.5 -2.09331e-10 2.03863e-14)
(2764.5 -2.06423e-10 1.96373e-14)
(2764.5 -2.03051e-10 1.85998e-14)
(2764.5 -1.99808e-10 2.24105e-14)
(2764.5 -2.00249e-10 2.08371e-14)
(2764.5 -1.98718e-10 2.03559e-14)
(2764.5 -2.01995e-10 1.67658e-14)
(2764.5 -2.00089e-10 1.34449e-14)
(2764.5 -1.99287e-10 1.60593e-14)
(2764.5 -1.97314e-10 1.84071e-14)
(2764.5 -1.9539e-10 1.92769e-14)
(2764.5 -1.95071e-10 1.73864e-14)
(2764.5 -1.95247e-10 1.84913e-14)
(2764.5 -1.98767e-10 1.73514e-14)
(2764.5 -2.04082e-10 1.67492e-14)
(2764.5 -2.06053e-10 1.67223e-14)
(2764.5 -2.02595e-10 1.43559e-14)
(2764.5 -1.99245e-10 1.38699e-14)
(2764.5 -1.95241e-10 2.06764e-14)
(2764.5 -1.8744e-10 1.48858e-14)
(2764.5 -1.84086e-10 1.69091e-14)
(2764.5 -1.81089e-10 1.95514e-14)
(2764.5 -1.77857e-10 1.77949e-14)
(2764.5 -1.84068e-10 1.71807e-14)
(2764.5 -1.89404e-10 1.75863e-14)
(2764.5 -1.94433e-10 1.73648e-14)
(2764.5 -2.0088e-10 1.82312e-14)
(2764.5 -2.14541e-10 1.67643e-14)
(2764.5 -2.23089e-10 1.78903e-14)
(2764.5 -2.23998e-10 1.84024e-14)
(2764.5 -2.22955e-10 1.84913e-14)
(2764.5 -2.22218e-10 1.86647e-14)
(2764.5 -2.1992e-10 1.8269e-14)
(2764.5 -2.18229e-10 1.71546e-14)
(2764.5 -2.10173e-10 1.93623e-14)
(2764.5 -2.04889e-10 1.99402e-14)
(2764.5 -2.01849e-10 1.74591e-14)
(2764.5 -1.91471e-10 1.6924e-14)
(2764.5 -1.83561e-10 1.6698e-14)
(2764.5 -1.72983e-10 1.73642e-14)
(2764.5 -1.64739e-10 1.64582e-14)
(2764.5 -1.56961e-10 1.89854e-14)
(2764.5 -1.52265e-10 1.83154e-14)
(2764.5 -1.51574e-10 1.51711e-14)
(2764.5 -1.51139e-10 1.4095e-14)
(2764.5 -1.5058e-10 1.3801e-14)
(2764.5 -1.52683e-10 1.55785e-14)
(2764.5 -1.57047e-10 1.39724e-14)
(2764.5 -1.60652e-10 1.26555e-14)
(2764.5 -1.67257e-10 1.36255e-14)
(2764.5 -1.73293e-10 1.57547e-14)
(2764.5 -1.84617e-10 1.42426e-14)
(2764.5 -1.89713e-10 1.67866e-14)
(2764.5 -1.96018e-10 1.94176e-14)
(2764.5 -2.04279e-10 1.49993e-14)
(2764.5 -2.15387e-10 1.47906e-14)
(2764.5 -2.23848e-10 1.22434e-14)
(2764.5 -2.28836e-10 1.36287e-14)
(2764.5 -2.35405e-10 1.77735e-14)
(2764.5 -2.41484e-10 1.3682e-14)
(2764.5 -2.46587e-10 1.4028e-14)
(2764.5 -2.51188e-10 1.40374e-14)
(2764.5 -2.56191e-10 1.41344e-14)
(2764.5 -2.60689e-10 1.4286e-14)
(2764.5 -2.69921e-10 1.5557e-14)
(2764.5 -2.73185e-10 1.36319e-14)
(2764.5 -2.77573e-10 1.74348e-14)
(2764.5 -2.80228e-10 1.39457e-14)
(2764.5 -2.83508e-10 1.40241e-14)
(2764.5 -2.86241e-10 1.43229e-14)
(2764.5 -2.85387e-10 1.27196e-14)
(2764.5 -2.82594e-10 1.49057e-14)
(2764.5 -2.73441e-10 1.57855e-14)
(2764.5 -2.70305e-10 1.37994e-14)
(2764.5 -2.70907e-10 1.24022e-14)
(2764.5 -2.69187e-10 1.53764e-14)
(2764.5 -2.69121e-10 1.4854e-14)
(2764.5 -2.69709e-10 1.49632e-14)
(2764.5 -2.70706e-10 1.38211e-14)
(2764.5 -2.72466e-10 1.60565e-14)
(2764.5 -2.72325e-10 1.8681e-14)
(2764.5 -2.65446e-10 1.47403e-14)
(2764.5 -2.5541e-10 1.49461e-14)
(2764.5 -2.48477e-10 1.6894e-14)
(2764.5 -2.45344e-10 1.41788e-14)
(2764.5 -2.39486e-10 1.5203e-14)
(2764.5 -2.35068e-10 1.36529e-14)
(2764.5 -2.29472e-10 1.28993e-14)
(2764.5 -2.2659e-10 1.46768e-14)
(2764.5 -2.26541e-10 1.54785e-14)
(2764.5 -2.21065e-10 1.45569e-14)
(2764.5 -2.20226e-10 1.10571e-14)
(2764.5 -2.15215e-10 1.36588e-14)
(2764.5 -2.14142e-10 1.29044e-14)
(2764.5 -2.18695e-10 1.16444e-14)
(2764.5 -2.24066e-10 1.23916e-14)
(2764.5 -2.26586e-10 1.3348e-14)
(2764.5 -2.30089e-10 1.16886e-14)
(2764.5 -2.36362e-10 1.12814e-14)
(2764.5 -2.43386e-10 1.2321e-14)
(2764.5 -2.56016e-10 1.15308e-14)
(2764.5 -2.83454e-10 2.78345e-14)
(2764.5 -2.84978e-10 3.32282e-14)
(2764.5 -2.88216e-10 2.79823e-14)
(2764.5 -2.88133e-10 2.80579e-14)
(2764.5 -2.88809e-10 2.78303e-14)
(2764.5 -2.92569e-10 2.66747e-14)
(2764.5 -2.95035e-10 2.87692e-14)
(2764.5 -2.95896e-10 2.76642e-14)
(2764.5 -2.94216e-10 2.48919e-14)
(2764.5 -2.88461e-10 2.34335e-14)
(2764.5 -2.86747e-10 2.69205e-14)
(2764.5 -2.875e-10 2.66137e-14)
(2764.5 -2.90026e-10 2.62633e-14)
(2764.5 -2.93402e-10 2.61253e-14)
(2764.5 -2.91332e-10 2.60762e-14)
(2764.5 -2.87299e-10 2.37594e-14)
(2764.5 -2.84189e-10 2.30309e-14)
(2764.5 -2.7998e-10 2.41432e-14)
(2764.5 -2.76768e-10 2.37563e-14)
(2764.5 -2.72581e-10 2.31822e-14)
(2764.5 -2.71969e-10 2.14514e-14)
(2764.5 -2.73802e-10 2.72464e-14)
(2764.5 -2.73063e-10 2.67251e-14)
(2764.5 -2.75709e-10 2.4673e-14)
(2764.5 -2.7891e-10 2.4767e-14)
(2764.5 -2.81727e-10 2.35933e-14)
(2764.5 -2.85222e-10 2.68353e-14)
(2764.5 -2.81423e-10 2.60186e-14)
(2764.5 -2.81338e-10 2.15916e-14)
(2764.5 -2.79658e-10 2.52178e-14)
(2764.5 -2.74585e-10 2.49078e-14)
(2764.5 -2.73538e-10 2.53579e-14)
(2764.5 -2.68733e-10 2.48539e-14)
(2764.5 -2.65287e-10 2.62834e-14)
(2764.5 -2.5978e-10 2.62295e-14)
(2764.5 -2.50177e-10 2.5591e-14)
(2764.5 -2.45513e-10 2.58471e-14)
(2764.5 -2.39071e-10 2.44276e-14)
(2764.5 -2.36033e-10 2.52327e-14)
(2764.5 -2.36564e-10 2.19457e-14)
(2764.5 -2.41532e-10 2.42353e-14)
(2764.5 -2.43379e-10 2.68319e-14)
(2764.5 -2.46618e-10 2.38313e-14)
(2764.5 -2.651e-10 2.51794e-14)
(2764.5 -2.80839e-10 2.59873e-14)
(2764.5 -2.88851e-10 2.41655e-14)
(2764.5 -3.03078e-10 2.25918e-14)
(2764.5 -3.16135e-10 2.22026e-14)
(2764.5 -3.22534e-10 2.90044e-14)
(2764.5 -3.30474e-10 2.39981e-14)
(2764.5 -3.37558e-10 2.13192e-14)
(2764.5 -3.41007e-10 2.26582e-14)
(2764.5 -3.42062e-10 2.32478e-14)
(2764.5 -3.42545e-10 2.43264e-14)
(2764.5 -3.39912e-10 2.11521e-14)
(2764.5 -3.42622e-10 2.00599e-14)
(2764.5 -3.43061e-10 2.38243e-14)
(2764.5 -3.39771e-10 2.46418e-14)
(2764.5 -3.34554e-10 2.2664e-14)
(2764.5 -3.25482e-10 2.24305e-14)
(2764.5 -3.12591e-10 2.56098e-14)
(2764.5 -3.03502e-10 2.26746e-14)
(2764.5 -3.02041e-10 2.19335e-14)
(2764.5 -3.00573e-10 2.13271e-14)
(2764.5 -2.93338e-10 2.12483e-14)
(2764.5 -2.8128e-10 2.20594e-14)
(2764.5 -2.71259e-10 2.17328e-14)
(2764.5 -2.63342e-10 2.16345e-14)
(2764.5 -2.55851e-10 2.19338e-14)
(2764.5 -2.54736e-10 2.09255e-14)
(2764.5 -2.51001e-10 2.22984e-14)
(2764.5 -2.49023e-10 2.34919e-14)
(2764.5 -2.47865e-10 2.22208e-14)
(2764.5 -2.49482e-10 2.45281e-14)
(2764.5 -2.52281e-10 2.01215e-14)
(2764.5 -2.56851e-10 2.05222e-14)
(2764.5 -2.59712e-10 2.24609e-14)
(2764.5 -2.6186e-10 2.26287e-14)
(2764.5 -2.61777e-10 2.28491e-14)
(2764.5 -2.60617e-10 2.54825e-14)
(2764.5 -2.6558e-10 2.48324e-14)
(2764.5 -2.70265e-10 2.26705e-14)
(2764.5 -2.82485e-10 2.03509e-14)
(2764.5 -2.87826e-10 2.08425e-14)
(2764.5 -2.95694e-10 2.23966e-14)
(2764.5 -3.0321e-10 1.89366e-14)
(2764.5 -3.13652e-10 2.12753e-14)
(2764.5 -3.13652e-10 2.38074e-14)
(2764.5 -3.13907e-10 2.27833e-14)
(2764.5 -3.15538e-10 2.11956e-14)
(2764.5 -3.20293e-10 2.16875e-14)
(2764.5 -3.24934e-10 2.1449e-14)
(2764.5 -3.25723e-10 2.23518e-14)
(2764.5 -3.26175e-10 2.35678e-14)
(2764.5 -3.28303e-10 2.11204e-14)
(2764.5 -3.31601e-10 1.98449e-14)
(2764.5 -3.36877e-10 2.39495e-14)
(2764.5 -3.38218e-10 2.86958e-14)
(2764.5 -3.36677e-10 1.83604e-14)
(2764.5 -3.38431e-10 2.15625e-14)
(2764.5 -3.4052e-10 2.33653e-14)
(2764.5 -3.44665e-10 2.11411e-14)
(2764.5 -3.45628e-10 2.23808e-14)
(2764.5 -3.44882e-10 2.23176e-14)
(2764.5 -3.38258e-10 1.79787e-14)
(2764.5 -3.218e-10 1.97236e-14)
(2764.5 -3.67697e-10 3.61636e-14)
(2764.5 -3.64078e-10 3.73392e-14)
(2764.5 -3.60508e-10 3.76434e-14)
(2764.5 -3.60694e-10 3.32471e-14)
(2764.5 -3.61891e-10 3.98199e-14)
(2764.5 -3.62415e-10 3.41985e-14)
(2764.5 -3.6533e-10 3.20357e-14)
(2764.5 -3.708e-10 3.68024e-14)
(2764.5 -3.77626e-10 3.81006e-14)
(2764.5 -3.87972e-10 3.78946e-14)
(2764.5 -3.88343e-10 3.64985e-14)
(2764.5 -3.87453e-10 3.58785e-14)
(2764.5 -3.84662e-10 3.59833e-14)
(2764.5 -3.80492e-10 3.42897e-14)
(2764.5 -3.75329e-10 3.12147e-14)
(2764.5 -3.73811e-10 3.65528e-14)
(2764.5 -3.71381e-10 3.22565e-14)
(2764.5 -3.67926e-10 3.58214e-14)
(2764.5 -3.66994e-10 3.62896e-14)
(2764.5 -3.66857e-10 3.32734e-14)
(2764.5 -3.67594e-10 3.32795e-14)
(2764.5 -3.68962e-10 3.20193e-14)
(2764.5 -3.724e-10 3.36031e-14)
(2764.5 -3.7404e-10 3.82305e-14)
(2764.5 -3.69795e-10 3.4731e-14)
(2764.5 -3.6323e-10 3.33886e-14)
(2764.5 -3.55804e-10 3.44765e-14)
(2764.5 -3.4489e-10 3.03364e-14)
(2764.5 -3.31521e-10 2.75154e-14)
(2764.5 -3.18616e-10 3.13437e-14)
(2764.5 -3.12691e-10 3.12169e-14)
(2764.5 -3.10772e-10 3.1216e-14)
(2764.5 -3.13805e-10 3.10068e-14)
(2764.5 -3.21077e-10 3.07144e-14)
(2764.5 -3.37503e-10 3.21436e-14)
(2764.5 -3.5885e-10 3.10322e-14)
(2764.5 -3.72921e-10 3.22924e-14)
(2764.5 -3.87895e-10 3.60501e-14)
(2764.5 -4.04281e-10 2.93996e-14)
(2764.5 -4.13574e-10 2.85667e-14)
(2764.5 -4.16144e-10 3.26184e-14)
(2764.5 -4.14511e-10 3.40117e-14)
(2764.5 -4.09155e-10 3.12993e-14)
(2764.5 -4.00278e-10 3.06631e-14)
(2764.5 -3.79566e-10 3.29718e-14)
(2764.5 -3.53952e-10 3.30641e-14)
(2764.5 -3.2952e-10 3.35027e-14)
(2764.5 -3.11823e-10 3.28857e-14)
(2764.5 -2.96992e-10 3.05816e-14)
(2764.5 -2.80268e-10 3.15418e-14)
(2764.5 -2.62397e-10 2.99574e-14)
(2764.5 -2.5157e-10 2.83516e-14)
(2764.5 -2.4516e-10 2.68376e-14)
(2764.5 -2.39389e-10 3.23696e-14)
(2764.5 -2.39171e-10 3.20182e-14)
(2764.5 -2.35465e-10 2.8719e-14)
(2764.5 -2.3604e-10 2.88128e-14)
(2764.5 -2.36948e-10 2.90475e-14)
(2764.5 -2.37428e-10 2.93224e-14)
(2764.5 -2.36688e-10 2.79882e-14)
(2764.5 -2.39062e-10 2.70789e-14)
(2764.5 -2.40297e-10 2.89479e-14)
(2764.5 -2.3758e-10 2.77578e-14)
(2764.5 -2.37912e-10 2.67601e-14)
(2764.5 -2.44708e-10 2.82533e-14)
(2764.5 -2.51661e-10 2.97262e-14)
(2764.5 -2.49501e-10 2.35321e-14)
(2764.5 -2.41859e-10 2.44833e-14)
(2764.5 -2.35138e-10 2.38426e-14)
(2764.5 -2.29983e-10 2.52915e-14)
(2764.5 -2.29188e-10 2.60771e-14)
(2764.5 -2.25035e-10 2.43755e-14)
(2764.5 -2.22351e-10 2.88472e-14)
(2764.5 -2.17752e-10 2.79816e-14)
(2764.5 -2.14512e-10 2.47468e-14)
(2764.5 -2.15604e-10 2.70067e-14)
(2764.5 -2.19485e-10 2.6666e-14)
(2764.5 -2.21689e-10 2.69262e-14)
(2764.5 -2.2004e-10 2.73839e-14)
(2764.5 -2.15023e-10 2.76956e-14)
(2764.5 -2.13066e-10 2.91063e-14)
(2764.5 -2.06876e-10 2.90229e-14)
(2764.5 -1.99258e-10 2.74947e-14)
(2764.5 -1.99525e-10 2.41403e-14)
(2764.5 -1.99548e-10 2.62137e-14)
(2764.5 -2.01977e-10 2.76179e-14)
(2764.5 -2.01389e-10 2.72011e-14)
(2764.5 -2.02537e-10 2.64314e-14)
(2764.5 -2.08926e-10 2.82856e-14)
(2764.5 -2.09769e-10 2.65868e-14)
(2764.5 -2.01584e-10 2.65113e-14)
(2764.5 -1.9952e-10 3.07571e-14)
(2764.5 -1.99739e-10 2.69484e-14)
(2764.5 -1.97182e-10 2.67991e-14)
(2764.5 -1.98022e-10 2.78421e-14)
(2764.5 -1.9417e-10 2.58581e-14)
(2764.5 -1.83352e-10 2.62756e-14)
(2764.5 -1.75104e-10 3.05838e-14)
(2764.5 -1.76e-10 2.66607e-14)
(2764.5 -1.71014e-10 2.57793e-14)
(2764.5 -1.67801e-10 2.82566e-14)
(2764.5 -1.68768e-10 2.46953e-14)
(2764.5 -1.75719e-10 2.5655e-14)
(2764.5 -1.71848e-10 2.86157e-14)
(2764.5 -1.72102e-10 2.62015e-14)
(2764.5 -1.71031e-10 2.5797e-14)
(2764.5 -1.70961e-10 2.74318e-14)
(2764.5 -4.4928e-10 4.56789e-14)
(2764.5 -4.46987e-10 4.53841e-14)
(2764.5 -4.4526e-10 4.67784e-14)
(2764.5 -4.45119e-10 4.32442e-14)
(2764.5 -4.44227e-10 4.29799e-14)
(2764.5 -4.45662e-10 4.49918e-14)
(2764.5 -4.46096e-10 4.78422e-14)
(2764.5 -4.45629e-10 4.12111e-14)
(2764.5 -4.48813e-10 4.51064e-14)
(2764.5 -4.52146e-10 4.87553e-14)
(2764.5 -4.58365e-10 4.36485e-14)
(2764.5 -4.59554e-10 4.62408e-14)
(2764.5 -4.59108e-10 4.56698e-14)
(2764.5 -4.60868e-10 4.30681e-14)
(2764.5 -4.63535e-10 4.59973e-14)
(2764.5 -4.67141e-10 4.55467e-14)
(2764.5 -4.71449e-10 4.05744e-14)
(2764.5 -4.72254e-10 4.13086e-14)
(2764.5 -4.69861e-10 4.13315e-14)
(2764.5 -4.59902e-10 4.06781e-14)
(2764.5 -4.45591e-10 4.0957e-14)
(2764.5 -4.33606e-10 4.14164e-14)
(2764.5 -4.24316e-10 4.38462e-14)
(2764.5 -4.1269e-10 4.51584e-14)
(2764.5 -4.08177e-10 3.58256e-14)
(2764.5 -4.12281e-10 3.66223e-14)
(2764.5 -4.2689e-10 3.75222e-14)
(2764.5 -4.39582e-10 3.56782e-14)
(2764.5 -4.51757e-10 3.8734e-14)
(2764.5 -4.64087e-10 3.86486e-14)
(2764.5 -4.80144e-10 3.93724e-14)
(2764.5 -4.88425e-10 3.89831e-14)
(2764.5 -4.86826e-10 4.01638e-14)
(2764.5 -4.84354e-10 3.87288e-14)
(2764.5 -4.70311e-10 4.20483e-14)
(2764.5 -4.55056e-10 4.15389e-14)
(2764.5 -4.34376e-10 4.01254e-14)
(2764.5 -4.06788e-10 3.89383e-14)
(2764.5 -3.76765e-10 3.613e-14)
(2764.5 -3.48556e-10 3.93407e-14)
(2764.5 -3.22826e-10 3.86908e-14)
(2764.5 -3.0985e-10 3.80613e-14)
(2764.5 -3.01886e-10 3.77262e-14)
(2764.5 -2.98064e-10 3.69477e-14)
(2764.5 -3.01206e-10 3.92339e-14)
(2764.5 -3.09945e-10 3.83352e-14)
(2764.5 -3.21059e-10 3.71955e-14)
(2764.5 -3.47252e-10 3.66868e-14)
(2764.5 -3.61571e-10 3.56211e-14)
(2764.5 -3.86799e-10 3.78637e-14)
(2764.5 -4.27469e-10 3.74278e-14)
(2764.5 -4.60949e-10 3.19762e-14)
(2764.5 -4.82474e-10 3.37919e-14)
(2764.5 -5.09265e-10 3.79201e-14)
(2764.5 -5.34692e-10 4.1329e-14)
(2764.5 -5.64004e-10 4.05825e-14)
(2764.5 -5.89861e-10 3.98117e-14)
(2764.5 -6.09944e-10 3.48696e-14)
(2764.5 -6.24087e-10 3.32542e-14)
(2764.5 -6.38872e-10 3.36227e-14)
(2764.5 -6.45355e-10 3.75938e-14)
(2764.5 -6.49918e-10 3.28121e-14)
(2764.5 -6.47899e-10 3.39485e-14)
(2764.5 -6.49625e-10 3.73343e-14)
(2764.5 -6.52917e-10 3.26857e-14)
(2764.5 -6.53862e-10 2.90454e-14)
(2764.5 -6.50416e-10 4.27804e-14)
(2764.5 -6.46106e-10 3.4286e-14)
(2764.5 -6.46055e-10 3.05205e-14)
(2764.5 -6.4786e-10 3.34913e-14)
(2764.5 -6.47644e-10 3.45219e-14)
(2764.5 -6.42773e-10 3.08041e-14)
(2764.5 -6.42163e-10 3.06866e-14)
(2764.5 -6.35999e-10 3.31515e-14)
(2764.5 -6.34993e-10 3.29396e-14)
(2764.5 -6.31852e-10 3.25442e-14)
(2764.5 -6.27633e-10 3.39583e-14)
(2764.5 -6.27056e-10 3.57656e-14)
(2764.5 -6.30128e-10 3.41286e-14)
(2764.5 -6.30504e-10 3.15965e-14)
(2764.5 -6.27899e-10 3.03733e-14)
(2764.5 -6.20584e-10 3.29692e-14)
(2764.5 -6.12164e-10 3.46214e-14)
(2764.5 -6.09816e-10 3.35514e-14)
(2764.5 -6.04112e-10 3.22986e-14)
(2764.5 -6.0251e-10 3.16063e-14)
(2764.5 -6.01878e-10 3.10762e-14)
(2764.5 -5.94881e-10 3.30618e-14)
(2764.5 -5.8974e-10 3.29838e-14)
(2764.5 -5.86283e-10 3.15148e-14)
(2764.5 -5.81218e-10 3.31905e-14)
(2764.5 -5.7099e-10 2.99625e-14)
(2764.5 -5.60892e-10 2.96535e-14)
(2764.5 -5.57621e-10 3.17279e-14)
(2764.5 -5.51637e-10 3.1337e-14)
(2764.5 -5.43853e-10 2.88842e-14)
(2764.5 -5.2728e-10 2.7804e-14)
(2764.5 -5.13508e-10 3.22114e-14)
(2764.5 -5.09418e-10 3.03682e-14)
(2764.5 -5.05017e-10 2.87049e-14)
(2764.5 -5.02612e-10 3.19276e-14)
(2764.5 -5.0012e-10 3.13587e-14)
(2764.5 -5.05526e-10 3.31921e-14)
(2764.5 -5.23814e-10 3.20899e-14)
(2764.5 -5.42109e-10 2.98024e-14)
(2764.5 -5.70391e-10 2.71773e-14)
(2764.5 -5.90293e-10 3.24878e-14)
(2764.5 -5.33797e-10 5.17838e-14)
(2764.5 -5.3904e-10 5.32265e-14)
(2764.5 -5.40278e-10 5.35972e-14)
(2764.5 -5.40109e-10 5.1366e-14)
(2764.5 -5.38514e-10 5.15634e-14)
(2764.5 -5.34848e-10 5.14763e-14)
(2764.5 -5.31945e-10 4.93477e-14)
(2764.5 -5.2656e-10 5.40641e-14)
(2764.5 -5.21766e-10 5.46635e-14)
(2764.5 -5.18298e-10 5.22226e-14)
(2764.5 -5.15774e-10 4.93468e-14)
(2764.5 -5.16992e-10 4.76149e-14)
(2764.5 -5.21332e-10 5.36932e-14)
(2764.5 -5.28072e-10 5.27566e-14)
(2764.5 -5.36998e-10 5.20835e-14)
(2764.5 -5.4136e-10 5.18417e-14)
(2764.5 -5.4297e-10 5.12197e-14)
(2764.5 -5.3473e-10 5.02338e-14)
(2764.5 -5.30744e-10 4.96444e-14)
(2764.5 -5.22609e-10 5.02108e-14)
(2764.5 -5.18904e-10 4.87055e-14)
(2764.5 -5.17362e-10 4.91532e-14)
(2764.5 -5.23892e-10 4.8192e-14)
(2764.5 -5.34198e-10 4.64276e-14)
(2764.5 -5.41483e-10 4.571e-14)
(2764.5 -5.53776e-10 4.83466e-14)
(2764.5 -5.67884e-10 4.99631e-14)
(2764.5 -5.7511e-10 4.75877e-14)
(2764.5 -5.71761e-10 4.85506e-14)
(2764.5 -5.59982e-10 4.79207e-14)
(2764.5 -5.42548e-10 4.73178e-14)
(2764.5 -5.1797e-10 4.63887e-14)
(2764.5 -4.87288e-10 4.8229e-14)
(2764.5 -4.60205e-10 5.19762e-14)
(2764.5 -4.26786e-10 5.02675e-14)
(2764.5 -4.03963e-10 4.76045e-14)
(2764.5 -3.92658e-10 4.49626e-14)
(2764.5 -4.01029e-10 4.50413e-14)
(2764.5 -4.174e-10 4.46533e-14)
(2764.5 -4.42796e-10 4.49667e-14)
(2764.5 -4.78088e-10 4.49916e-14)
(2764.5 -5.11193e-10 4.53924e-14)
(2764.5 -5.49939e-10 4.36811e-14)
(2764.5 -5.91385e-10 4.31847e-14)
(2764.5 -6.3119e-10 4.52798e-14)
(2764.5 -6.60951e-10 4.58972e-14)
(2764.5 -6.85169e-10 4.49714e-14)
(2764.5 -7.08344e-10 4.40075e-14)
(2764.5 -7.22725e-10 4.75293e-14)
(2764.5 -7.20377e-10 4.73854e-14)
(2764.5 -7.17748e-10 4.52828e-14)
(2764.5 -7.10853e-10 4.42209e-14)
(2764.5 -6.99705e-10 4.56955e-14)
(2764.5 -6.78269e-10 4.39221e-14)
(2764.5 -6.47965e-10 4.86806e-14)
(2764.5 -6.16408e-10 4.51896e-14)
(2764.5 -5.8797e-10 4.0673e-14)
(2764.5 -5.60434e-10 4.5574e-14)
(2764.5 -5.25342e-10 4.7318e-14)
(2764.5 -4.89722e-10 4.20034e-14)
(2764.5 -4.63851e-10 4.24269e-14)
(2764.5 -4.45827e-10 4.67825e-14)
(2764.5 -4.2861e-10 4.1791e-14)
(2764.5 -4.09545e-10 4.20381e-14)
(2764.5 -3.92103e-10 4.39044e-14)
(2764.5 -3.79062e-10 4.11514e-14)
(2764.5 -3.55345e-10 4.63285e-14)
(2764.5 -3.31892e-10 4.46089e-14)
(2764.5 -3.243e-10 4.4198e-14)
(2764.5 -3.01812e-10 4.55707e-14)
(2764.5 -2.91635e-10 4.30605e-14)
(2764.5 -2.82784e-10 4.30081e-14)
(2764.5 -2.80401e-10 4.05781e-14)
(2764.5 -2.80473e-10 4.06431e-14)
(2764.5 -2.815e-10 4.21607e-14)
(2764.5 -2.79571e-10 4.15332e-14)
(2764.5 -2.72038e-10 4.13341e-14)
(2764.5 -2.74409e-10 4.23966e-14)
(2764.5 -2.78493e-10 4.01295e-14)
(2764.5 -2.81067e-10 4.08592e-14)
(2764.5 -2.79158e-10 3.99622e-14)
(2764.5 -2.94604e-10 4.00246e-14)
(2764.5 -3.0461e-10 3.9874e-14)
(2764.5 -3.29964e-10 3.81707e-14)
(2764.5 -3.47218e-10 4.20418e-14)
(2764.5 -3.61092e-10 4.10737e-14)
(2764.5 -3.78539e-10 4.09955e-14)
(2764.5 -3.97952e-10 4.0725e-14)
(2764.5 -4.14133e-10 3.8621e-14)
(2764.5 -4.22158e-10 3.87644e-14)
(2764.5 -4.54408e-10 3.85585e-14)
(2764.5 -4.75738e-10 4.00341e-14)
(2764.5 -4.97478e-10 4.0313e-14)
(2764.5 -5.16847e-10 3.78659e-14)
(2764.5 -5.33801e-10 3.75781e-14)
(2764.5 -5.52711e-10 4.13318e-14)
(2764.5 -5.61326e-10 3.90571e-14)
(2764.5 -5.67579e-10 4.12903e-14)
(2764.5 -5.86013e-10 4.04723e-14)
(2764.5 -5.94482e-10 3.89938e-14)
(2764.5 -5.9433e-10 3.81274e-14)
(2764.5 -5.91712e-10 3.71633e-14)
(2764.5 -5.82587e-10 3.93742e-14)
(2764.5 -5.66349e-10 3.70519e-14)
(2764.5 -5.51006e-10 3.97734e-14)
(2764.5 -5.34135e-10 3.99533e-14)
(2764.5 -5.09375e-10 3.85672e-14)
(2764.5 -4.7561e-10 3.9597e-14)
(2764.5 -4.33616e-10 3.53486e-14)
(2764.5 -3.82877e-10 3.79434e-14)
(2764.5 -6.14806e-10 5.64124e-14)
(2764.5 -6.18211e-10 5.91562e-14)
(2764.5 -6.2202e-10 6.20904e-14)
(2764.5 -6.22805e-10 5.7049e-14)
(2764.5 -6.21953e-10 5.9086e-14)
(2764.5 -6.18928e-10 6.04612e-14)
(2764.5 -6.16581e-10 5.97461e-14)
(2764.5 -6.13869e-10 5.85366e-14)
(2764.5 -6.08958e-10 5.88315e-14)
(2764.5 -6.07602e-10 6.06665e-14)
(2764.5 -6.06075e-10 5.90164e-14)
(2764.5 -6.05244e-10 5.90681e-14)
(2764.5 -5.98088e-10 6.00375e-14)
(2764.5 -5.88813e-10 5.77022e-14)
(2764.5 -5.84695e-10 5.26414e-14)
(2764.5 -5.83431e-10 5.52996e-14)
(2764.5 -5.789e-10 6.02761e-14)
(2764.5 -5.89405e-10 6.07569e-14)
(2764.5 -6.18539e-10 6.31826e-14)
(2764.5 -6.38007e-10 5.38861e-14)
(2764.5 -6.47419e-10 5.32722e-14)
(2764.5 -6.54745e-10 5.50835e-14)
(2764.5 -6.54281e-10 5.80695e-14)
(2764.5 -6.4935e-10 5.98945e-14)
(2764.5 -6.29441e-10 5.71759e-14)
(2764.5 -5.96053e-10 5.57174e-14)
(2764.5 -5.62053e-10 5.74863e-14)
(2764.5 -5.33949e-10 5.95594e-14)
(2764.5 -5.10447e-10 5.78792e-14)
(2764.5 -5.10503e-10 5.2006e-14)
(2764.5 -5.22825e-10 5.05142e-14)
(2764.5 -5.46914e-10 5.51267e-14)
(2764.5 -5.81216e-10 5.61976e-14)
(2764.5 -6.28757e-10 5.22014e-14)
(2764.5 -6.79896e-10 5.03644e-14)
(2764.5 -7.22262e-10 5.29375e-14)
(2764.5 -7.63737e-10 5.26714e-14)
(2764.5 -7.98904e-10 5.32182e-14)
(2764.5 -8.03505e-10 5.17292e-14)
(2764.5 -7.87645e-10 5.51375e-14)
(2764.5 -7.69334e-10 5.43015e-14)
(2764.5 -7.35934e-10 5.32977e-14)
(2764.5 -6.93779e-10 5.24747e-14)
(2764.5 -6.24059e-10 5.37619e-14)
(2764.5 -5.63089e-10 5.35622e-14)
(2764.5 -4.74752e-10 5.27148e-14)
(2764.5 -3.98929e-10 5.49943e-14)
(2764.5 -3.31313e-10 5.60253e-14)
(2764.5 -2.74996e-10 5.32522e-14)
(2764.5 -2.39951e-10 5.35068e-14)
(2764.5 -2.10482e-10 5.27943e-14)
(2764.5 -1.78861e-10 5.39055e-14)
(2764.5 -1.59808e-10 4.98873e-14)
(2764.5 -1.46824e-10 5.22896e-14)
(2764.5 -1.43542e-10 5.26339e-14)
(2764.5 -1.44904e-10 5.03059e-14)
(2764.5 -1.49452e-10 5.22366e-14)
(2764.5 -1.67144e-10 4.91694e-14)
(2764.5 -1.97254e-10 5.13764e-14)
(2764.5 -2.10292e-10 5.23976e-14)
(2764.5 -2.15371e-10 5.02256e-14)
(2764.5 -2.33116e-10 5.18379e-14)
(2764.5 -2.67556e-10 5.01512e-14)
(2764.5 -2.97371e-10 4.82474e-14)
(2764.5 -3.14807e-10 4.56888e-14)
(2764.5 -3.49437e-10 4.81875e-14)
(2764.5 -3.65063e-10 5.16539e-14)
(2764.5 -3.79205e-10 4.42399e-14)
(2764.5 -3.96227e-10 4.74222e-14)
(2764.5 -4.09036e-10 5.08803e-14)
(2764.5 -4.21637e-10 4.78965e-14)
(2764.5 -4.30508e-10 4.52382e-14)
(2764.5 -4.39816e-10 4.60904e-14)
(2764.5 -4.45354e-10 4.73895e-14)
(2764.5 -4.45978e-10 4.48612e-14)
(2764.5 -4.44552e-10 4.47957e-14)
(2764.5 -4.41857e-10 4.62783e-14)
(2764.5 -4.25425e-10 4.52937e-14)
(2764.5 -3.9851e-10 4.43376e-14)
(2764.5 -3.80529e-10 4.36585e-14)
(2764.5 -3.55588e-10 4.19722e-14)
(2764.5 -3.32818e-10 4.13986e-14)
(2764.5 -3.11508e-10 4.38317e-14)
(2764.5 -2.86493e-10 4.21393e-14)
(2764.5 -2.67671e-10 4.30831e-14)
(2764.5 -2.51077e-10 4.57761e-14)
(2764.5 -2.27422e-10 4.55975e-14)
(2764.5 -2.07746e-10 4.09669e-14)
(2764.5 -1.90294e-10 4.20423e-14)
(2764.5 -1.76169e-10 4.0379e-14)
(2764.5 -1.59416e-10 4.53417e-14)
(2764.5 -1.42889e-10 4.10558e-14)
(2764.5 -1.37187e-10 4.42172e-14)
(2764.5 -1.33507e-10 4.36252e-14)
(2764.5 -1.3043e-10 4.3149e-14)
(2764.5 -1.243e-10 4.32266e-14)
(2764.5 -1.22399e-10 4.28068e-14)
(2764.5 -1.25506e-10 4.66507e-14)
(2764.5 -1.31288e-10 4.27593e-14)
(2764.5 -1.30363e-10 4.50912e-14)
(2764.5 -1.31396e-10 4.74041e-14)
(2764.5 -1.28831e-10 4.69629e-14)
(2764.5 -1.23844e-10 4.48138e-14)
(2764.5 -1.17748e-10 4.29432e-14)
(2764.5 -1.12682e-10 4.44119e-14)
(2764.5 -1.10207e-10 4.23828e-14)
(2764.5 -1.12113e-10 4.28621e-14)
(2764.5 -1.14794e-10 4.26593e-14)
(2764.5 -1.42093e-10 4.28168e-14)
(2764.5 -2.03922e-10 3.97962e-14)
(2764.5 -6.86016e-10 7.03457e-14)
(2764.5 -6.8817e-10 6.98307e-14)
(2764.5 -6.8757e-10 6.91695e-14)
(2764.5 -6.95967e-10 6.90493e-14)
(2764.5 -7.04441e-10 7.12404e-14)
(2764.5 -7.05757e-10 6.73855e-14)