/*--------------------------------*- C++ -*----------------------------------*\
| =========                 |                                                 |
| \\      /  F ield         | OpenFOAM: The Open Source CFD Toolbox           |
|  \\    /   O peration     | Version:  v1706                                 |
|   \\  /    A nd           | Web:      www.OpenFOAM.com                      |
|    \\/     M anipulation  |                                                 |
\*---------------------------------------------------------------------------*/
FoamFile
{
    version     2.0;
    format      ascii;
    class       volScalarField;
    location    "7e-06";
    object      wallHeatFlux;
}
// * * * * * * * * * * * * * * * * * * * * * * * * * * * * * * * * * * * * * //

dimensions      [1 0 -3 0 0 0 0];


internalField   uniform 0;

boundaryField
{
    cone
    {
        type            calculated;
        value           nonuniform List<scalar> 
181
(
181462
181505
181545
181581
181614
181644
181672
181697
181721
181744
181766
181787
181809
181831
181854
181881
181911
181946
181987
182036
182093
182161
182242
182337
182448
182582
182739
182919
183123
183359
183632
183944
184299
184701
185156
185666
186238
186877
187587
188374
189246
190207
191264
192425
193696
195083
196593
198234
200013
201935
204008
206239
208634
211199
213940
216861
219969
223266
226756
230440
234319
238392
242657
247109
251742
256548
261515
266630
271876
277236
282686
288204
293761
299331
304884
310391
315822
321151
326354
331414
336316
341056
345635
350060
354345
358512
362588
366604
370592
374584
378612
382706
386891
391190
395620
400195
404924
409813
414864
420078
425455
430993
436688
442539
448544
454702
461015
467482
474107
480895
487849
494978
502289
509791
517495
525412
533556
541939
550577
559486
568685
578193
588031
598223
608793
619770
631184
643072
655470
668423
681980
696195
711132
726860
743459
761018
779636
799418
820470
842887
866720
891930
918283
945194
971482
995041
1.01252e+06
1.01924e+06
1.00966e+06
978740
923886
846873
753777
652914
552344
458137
373874
301047
239681
188944
147605
114322
87797.4
66848.3
50438
37679.1
27826.7
20266.4
14498.1
10119.8
6812.46
4324.73
2460.95
1069.88
35.8613
-729.331
-1292.8
-1705.48
-2005.84
-2223.16
-2379.51
)
;
    }
    inlet
    {
        type            calculated;
        value           uniform 0;
    }
    rWedge
    {
        type            wedge;
    }
    lWedge
    {
        type            wedge;
    }
    outlet
    {
        type            calculated;
        value           nonuniform 0();
    }
    procBoundary1to0
    {
        type            processor;
        value           uniform 0;
    }
    procBoundary1to2
    {
        type            processor;
        value           uniform 0;
    }
}


// ************************************************************************* //
