/*--------------------------------*- C++ -*----------------------------------*\
| =========                 |                                                 |
| \\      /  F ield         | OpenFOAM: The Open Source CFD Toolbox           |
|  \\    /   O peration     | Version:  v1706                                 |
|   \\  /    A nd           | Web:      www.OpenFOAM.com                      |
|    \\/     M anipulation  |                                                 |
\*---------------------------------------------------------------------------*/
FoamFile
{
    version     2.0;
    format      ascii;
    class       volScalarField;
    location    "1e-05";
    object      alpha;
}
// * * * * * * * * * * * * * * * * * * * * * * * * * * * * * * * * * * * * * //

dimensions      [1 -1 -1 0 0 0 0];


internalField   nonuniform List<scalar> 
30038
(
1.40478e-05
1.40478e-05
1.40478e-05
1.40478e-05
1.40478e-05
1.40478e-05
1.40478e-05
1.40478e-05
1.40478e-05
1.40478e-05
1.40478e-05
1.40478e-05
1.40478e-05
1.40478e-05
1.40478e-05
1.40478e-05
1.40478e-05
1.40478e-05
1.40478e-05
1.40478e-05
1.40478e-05
1.40478e-05
1.40478e-05
1.40478e-05
1.40478e-05
1.40478e-05
1.40478e-05
1.40478e-05
1.40478e-05
1.40478e-05
1.40478e-05
1.40478e-05
1.40478e-05
1.40478e-05
1.40478e-05
1.40478e-05
1.40478e-05
1.40478e-05
1.40478e-05
1.40478e-05
1.40478e-05
1.40478e-05
1.40478e-05
1.40478e-05
1.40478e-05
1.40478e-05
1.40478e-05
1.40478e-05
1.40478e-05
1.40478e-05
1.40478e-05
1.40478e-05
1.40478e-05
1.40478e-05
1.40478e-05
1.40478e-05
1.40478e-05
1.40478e-05
1.40478e-05
1.40478e-05
1.40478e-05
1.40478e-05
1.40478e-05
1.40478e-05
1.40478e-05
1.40478e-05
1.40478e-05
1.40478e-05
1.40478e-05
1.40478e-05
1.40478e-05
1.40478e-05
1.40478e-05
1.40478e-05
1.40478e-05
1.40478e-05
1.40478e-05
1.40478e-05
1.40478e-05
1.40478e-05
1.40478e-05
1.40478e-05
1.40478e-05
1.40478e-05
1.40478e-05
1.40478e-05
1.40478e-05
1.40478e-05
1.40478e-05
1.40478e-05
1.40478e-05
1.40478e-05
1.40478e-05
1.40478e-05
1.40478e-05
1.40478e-05
1.40478e-05
1.40478e-05
1.40478e-05
1.40478e-05
1.40478e-05
1.40478e-05
1.40478e-05
1.40478e-05
1.40478e-05
1.40478e-05
1.40478e-05
1.40478e-05
1.40478e-05
1.40478e-05
1.40478e-05
1.40478e-05
1.40478e-05
1.40478e-05
1.40478e-05
1.40478e-05
1.40478e-05
1.40478e-05
1.40478e-05
1.40478e-05
1.40478e-05
1.40478e-05
1.40478e-05
1.40478e-05
1.40478e-05
1.40478e-05
1.40478e-05
1.40478e-05
1.40478e-05
1.40478e-05
1.40478e-05
1.40478e-05
1.40478e-05
1.40478e-05
1.40478e-05
1.40478e-05
1.40478e-05
1.40478e-05
1.40478e-05
1.40478e-05
1.40478e-05
1.40478e-05
1.40478e-05
1.40478e-05
1.40478e-05
1.40478e-05
1.40478e-05
1.40478e-05
1.40478e-05
1.40478e-05
1.40478e-05
1.40478e-05
1.40478e-05
1.40478e-05
1.40478e-05
1.40478e-05
1.40478e-05
1.40478e-05
1.40478e-05
1.40478e-05
1.40478e-05
1.40478e-05
1.40478e-05
1.40478e-05
1.40478e-05
1.40478e-05
1.40478e-05
1.40478e-05
1.40478e-05
1.40478e-05
1.40478e-05
1.40478e-05
1.40478e-05
1.40478e-05
1.40478e-05
1.40478e-05
1.40478e-05
1.40478e-05
1.40478e-05
1.40478e-05
1.40478e-05
1.40478e-05
1.40478e-05
1.40478e-05
1.40478e-05
1.40478e-05
1.40478e-05
1.40478e-05
1.40478e-05
1.40478e-05
1.40478e-05
1.40478e-05
1.40478e-05
1.40478e-05
1.40478e-05
1.40478e-05
1.40478e-05
1.40478e-05
1.40478e-05
1.40478e-05
1.40478e-05
1.40478e-05
1.40478e-05
1.40478e-05
1.40478e-05
1.40478e-05
1.40478e-05
1.40478e-05
1.40478e-05
1.40478e-05
1.40478e-05
1.40478e-05
1.40478e-05
1.40478e-05
1.40478e-05
1.40478e-05
1.40478e-05
1.40478e-05
1.40478e-05
1.40478e-05
1.40478e-05
1.40478e-05
1.40478e-05
1.40478e-05
1.40478e-05
1.40478e-05
1.40478e-05
1.40478e-05
1.40478e-05
1.40478e-05
1.40478e-05
1.40478e-05
1.40478e-05
1.40478e-05
1.40478e-05
1.40478e-05
1.40478e-05
1.40478e-05
1.40478e-05
1.40478e-05
1.40478e-05
1.40478e-05
1.40478e-05
1.40478e-05
1.40478e-05
1.40478e-05
1.40478e-05
1.40478e-05
1.40478e-05
1.40478e-05
1.40478e-05
1.40478e-05
1.40478e-05
1.40478e-05
1.40478e-05
1.40478e-05
1.40478e-05
1.40478e-05
1.40478e-05
1.40478e-05
1.40478e-05
1.40478e-05
1.40478e-05
1.40478e-05
1.40478e-05
1.40478e-05
1.40478e-05
1.40478e-05
1.40478e-05
1.40478e-05
1.40478e-05
1.40478e-05
1.40478e-05
1.40478e-05
1.40478e-05
1.40478e-05
1.40478e-05
1.40478e-05
1.40478e-05
1.40478e-05
1.40478e-05
1.40478e-05
1.40478e-05
1.40478e-05
1.40478e-05
1.40478e-05
1.40478e-05
1.40478e-05
1.40478e-05
1.40478e-05
1.40478e-05
1.40478e-05
1.40478e-05
1.40478e-05
1.40478e-05
1.40478e-05
1.40478e-05
1.40478e-05
1.40478e-05
1.40478e-05
1.40478e-05
1.40478e-05
1.40478e-05
1.40478e-05
1.40478e-05
1.40478e-05
1.40478e-05
1.40478e-05
1.40478e-05
1.40478e-05
1.40478e-05
1.40478e-05
1.40478e-05
1.40478e-05
1.40478e-05
1.40478e-05
1.40478e-05
1.40478e-05
1.40478e-05
1.40478e-05
1.40478e-05
1.40478e-05
1.40478e-05
1.40478e-05
1.40478e-05
1.40478e-05
1.40478e-05
1.40478e-05
1.40478e-05
1.40478e-05
1.40478e-05
1.40478e-05
1.40478e-05
1.40478e-05
1.40478e-05
1.40478e-05
1.40478e-05
1.40478e-05
1.40478e-05
1.40478e-05
1.40478e-05
1.40478e-05
1.40478e-05
1.40478e-05
1.40478e-05
1.40478e-05
1.40478e-05
1.40478e-05
1.40478e-05
1.40478e-05
1.40478e-05
1.40478e-05
1.40478e-05
1.40478e-05
1.40478e-05
1.40478e-05
1.40478e-05
1.40478e-05
1.40478e-05
1.40478e-05
1.40478e-05
1.40478e-05
1.40478e-05
1.40478e-05
1.40478e-05
1.40478e-05
1.40478e-05
1.40478e-05
1.40478e-05
1.40478e-05
1.40478e-05
1.40478e-05
1.40478e-05
1.40478e-05
1.40478e-05
1.40478e-05
1.40478e-05
1.40478e-05
1.40478e-05
1.40478e-05
1.40478e-05
1.40478e-05
1.40478e-05
1.40478e-05
1.40478e-05
1.40478e-05
1.40478e-05
1.40478e-05
1.40478e-05
1.40478e-05
1.40478e-05
1.40478e-05
1.40478e-05
1.40478e-05
1.40478e-05
1.40478e-05
1.40478e-05
1.40478e-05
1.40478e-05
1.40478e-05
1.40478e-05
1.40478e-05
1.40478e-05
1.40478e-05
1.40478e-05
1.40478e-05
1.40478e-05
1.40478e-05
1.40478e-05
1.40478e-05
1.40478e-05
1.40478e-05
1.40478e-05
1.40478e-05
1.40478e-05
1.40478e-05
1.40478e-05
1.40478e-05
1.40478e-05
1.40478e-05
1.40478e-05
1.40478e-05
1.40478e-05
1.40478e-05
1.40478e-05
1.40478e-05
1.40478e-05
1.40478e-05
1.40478e-05
1.40478e-05
1.40478e-05
1.40478e-05
1.40478e-05
1.40478e-05
1.40478e-05
1.40478e-05
1.40478e-05
1.40478e-05
1.40478e-05
1.40478e-05
1.40478e-05
1.40478e-05
1.40478e-05
1.40478e-05
1.40478e-05
1.40478e-05
1.40478e-05
1.40478e-05
1.40478e-05
1.40478e-05
1.40478e-05
1.40478e-05
1.40478e-05
1.40478e-05
1.40478e-05
1.40478e-05
1.40478e-05
1.40478e-05
1.40478e-05
1.40478e-05
1.40478e-05
1.40478e-05
1.40478e-05
1.40478e-05
1.40478e-05
1.40478e-05
1.40478e-05
1.40478e-05
1.40478e-05
1.40478e-05
1.40478e-05
1.40478e-05
1.40478e-05
1.40478e-05
1.40478e-05
1.40478e-05
1.40478e-05
1.40478e-05
1.40478e-05
1.40478e-05
1.40478e-05
1.40478e-05
1.40478e-05
1.40478e-05
1.40478e-05
1.40478e-05
1.40478e-05
1.40478e-05
1.40478e-05
1.40478e-05
1.40478e-05
1.40478e-05
1.40478e-05
1.40478e-05
1.40478e-05
1.40478e-05
1.40478e-05
1.40478e-05
1.40478e-05
1.40478e-05
1.40478e-05
1.40478e-05
1.40478e-05
1.40478e-05
1.40478e-05
1.40478e-05
1.40478e-05
1.40478e-05
1.40478e-05
1.40478e-05
1.40478e-05
1.40478e-05
1.40478e-05
1.40478e-05
1.40478e-05
1.40478e-05
1.40478e-05
1.40478e-05
1.40478e-05
1.40478e-05
1.40478e-05
1.40478e-05
1.40478e-05
1.40478e-05
1.40478e-05
1.40478e-05
1.40478e-05
1.40478e-05
1.40478e-05
1.40478e-05
1.40478e-05
1.40478e-05
1.40478e-05
1.40478e-05
1.40478e-05
1.40478e-05
1.40478e-05
1.40478e-05
1.40478e-05
1.40478e-05
1.40478e-05
1.40478e-05
1.40478e-05
1.40478e-05
1.40478e-05
1.40478e-05
1.40478e-05
1.40478e-05
1.40478e-05
1.40478e-05
1.40478e-05
1.40478e-05
1.40478e-05
1.40478e-05
1.40478e-05
1.40478e-05
1.40478e-05
1.40478e-05
1.40478e-05
1.40478e-05
1.40478e-05
1.40478e-05
1.40478e-05
1.40478e-05
1.40478e-05
1.40478e-05
1.40478e-05
1.40478e-05
1.40478e-05
1.40478e-05
1.40478e-05
1.40478e-05
1.40478e-05
1.40478e-05
1.40478e-05
1.40478e-05
1.40478e-05
1.40478e-05
1.40478e-05
1.40478e-05
1.40478e-05
1.40478e-05
1.40478e-05
1.40478e-05
1.40478e-05
1.40478e-05
1.40478e-05
1.40478e-05
1.40478e-05
1.40478e-05
1.40478e-05
1.40478e-05
1.40478e-05
1.40478e-05
1.40478e-05
1.40478e-05
1.40478e-05
1.40478e-05
1.40478e-05
1.40478e-05
1.40478e-05
1.40478e-05
1.40478e-05
1.40478e-05
1.40478e-05
1.40478e-05
1.40478e-05
1.40478e-05
1.40478e-05
1.40478e-05
1.40478e-05
1.40478e-05
1.40478e-05
1.40478e-05
1.40478e-05
1.40478e-05
1.40478e-05
1.40478e-05
1.40478e-05
1.40478e-05
1.40478e-05
1.40478e-05
1.40478e-05
1.40478e-05
1.40478e-05
1.40478e-05
1.40478e-05
1.40478e-05
1.40478e-05
1.40478e-05
1.40478e-05
1.40478e-05
1.40478e-05
1.40478e-05
1.40478e-05
1.40478e-05
1.40478e-05
1.40478e-05
1.40478e-05
1.40478e-05
1.40478e-05
1.40478e-05
1.40478e-05
1.40478e-05
1.40478e-05
1.40478e-05
1.40478e-05
1.40478e-05
1.40478e-05
1.40478e-05
1.40478e-05
1.40478e-05
1.40478e-05
1.40478e-05
1.40478e-05
1.40478e-05
1.40478e-05
1.40478e-05
1.40478e-05
1.40478e-05
1.40478e-05
1.40478e-05
1.40478e-05
1.40478e-05
1.40478e-05
1.40478e-05
1.40478e-05
1.40478e-05
1.40478e-05
1.40478e-05
1.40478e-05
1.40478e-05
1.40478e-05
1.40478e-05
1.40478e-05
1.40478e-05
1.40478e-05
1.40478e-05
1.40478e-05
1.40478e-05
1.40478e-05
1.40478e-05
1.40478e-05
1.40478e-05
1.40478e-05
1.40478e-05
1.40478e-05
1.40478e-05
1.40478e-05
1.40478e-05
1.40478e-05
1.40478e-05
1.40478e-05
1.40478e-05
1.40478e-05
1.40478e-05
1.40478e-05
1.40478e-05
1.40478e-05
1.40478e-05
1.40478e-05
1.40478e-05
1.40478e-05
1.40478e-05
1.40478e-05
1.40478e-05
1.40478e-05
1.40478e-05
1.40478e-05
1.40478e-05
1.40478e-05
1.40478e-05
1.40478e-05
1.40478e-05
1.40478e-05
1.40478e-05
1.40478e-05
1.40478e-05
1.40478e-05
1.40478e-05
1.40478e-05
1.40478e-05
1.40478e-05
1.40478e-05
1.40478e-05
1.40478e-05
1.40478e-05
1.40478e-05
1.40478e-05
1.40478e-05
1.40478e-05
1.40478e-05
1.40478e-05
1.40478e-05
1.40478e-05
1.40478e-05
1.40478e-05
1.40478e-05
1.40478e-05
1.40478e-05
1.40478e-05
1.40478e-05
1.40478e-05
1.40478e-05
1.40478e-05
1.40478e-05
1.40478e-05
1.40478e-05
1.40478e-05
1.40478e-05
1.40478e-05
1.40478e-05
1.40478e-05
1.40478e-05
1.40478e-05
1.40478e-05
1.40478e-05
1.40478e-05
1.40478e-05
1.40478e-05
1.40478e-05
1.40478e-05
1.40478e-05
1.40478e-05
1.40478e-05
1.40478e-05
1.40478e-05
1.40478e-05
1.40478e-05
1.40478e-05
1.40478e-05
1.40478e-05
1.40478e-05
1.40478e-05
1.40478e-05
1.40478e-05
1.40478e-05
1.40478e-05
1.40478e-05
1.40478e-05
1.40478e-05
1.40478e-05
1.40478e-05
1.40478e-05
1.40478e-05
1.40478e-05
1.40478e-05
1.40478e-05
1.40478e-05
1.40478e-05
1.40478e-05
1.40478e-05
1.40478e-05
1.40478e-05
1.40478e-05
1.40478e-05
1.40478e-05
1.40478e-05
1.40478e-05
1.40478e-05
1.40478e-05
1.40478e-05
1.40478e-05
1.40478e-05
1.40478e-05
1.40478e-05
1.40478e-05
1.40478e-05
1.40478e-05
1.40478e-05
1.40478e-05
1.40478e-05
1.40478e-05
1.40478e-05
1.40478e-05
1.40478e-05
1.40478e-05
1.40478e-05
1.40478e-05
1.40478e-05
1.40478e-05
1.40478e-05
1.40478e-05
1.40478e-05
1.40478e-05
1.40478e-05
1.40478e-05
1.40478e-05
1.40478e-05
1.40478e-05
1.40478e-05
1.40478e-05
1.40478e-05
1.40478e-05
1.40478e-05
1.40478e-05
1.40478e-05
1.40478e-05
1.40478e-05
1.40478e-05
1.40478e-05
1.40478e-05
1.40478e-05
1.40478e-05
1.40478e-05
1.40478e-05
1.40478e-05
1.40478e-05
1.40478e-05
1.40478e-05
1.40478e-05
1.40478e-05
1.40478e-05
1.40478e-05
1.40478e-05
1.40478e-05
1.40478e-05
1.40478e-05
1.40478e-05
1.40478e-05
1.40478e-05
1.40478e-05
1.40478e-05
1.40478e-05
1.40478e-05
1.40478e-05
1.40478e-05
1.40478e-05
1.40478e-05
1.40478e-05
1.40478e-05
1.40478e-05
1.40478e-05
1.40478e-05
1.40478e-05
1.40478e-05
1.40478e-05
1.40478e-05
1.40478e-05
1.40478e-05
1.40478e-05
1.40478e-05
1.40478e-05
1.40478e-05
1.40478e-05
1.40478e-05
1.40478e-05
1.40478e-05
1.40478e-05
1.40478e-05
1.40478e-05
1.40478e-05
1.40478e-05
1.40478e-05
1.40478e-05
1.40478e-05
1.40478e-05
1.40478e-05
1.40478e-05
1.40478e-05
1.40478e-05
1.40478e-05
1.40478e-05
1.40478e-05
1.40478e-05
1.40478e-05
1.40478e-05
1.40478e-05
1.40478e-05
1.40478e-05
1.40478e-05
1.40478e-05
1.40478e-05
1.40478e-05
1.40478e-05
1.40478e-05
1.40478e-05
1.40478e-05
1.40478e-05
1.40478e-05
1.40478e-05
1.40478e-05
1.40478e-05
1.40478e-05
1.40478e-05
1.40478e-05
1.40478e-05
1.40478e-05
1.40478e-05
1.40478e-05
1.40478e-05
1.40478e-05
1.40478e-05
1.40478e-05
1.40478e-05
1.40478e-05
1.40478e-05
1.40478e-05
1.40478e-05
1.40478e-05
1.40478e-05
1.40478e-05
1.40478e-05
1.40478e-05
1.40478e-05
1.40478e-05
1.40478e-05
1.40478e-05
1.40478e-05
1.40478e-05
1.40478e-05
1.40478e-05
1.40478e-05
1.40478e-05
1.40478e-05
1.40478e-05
1.40478e-05
1.40478e-05
1.40478e-05
1.40478e-05
1.40478e-05
1.40478e-05
1.40478e-05
1.40478e-05
1.40478e-05
1.40478e-05
1.40478e-05
1.40478e-05
1.40478e-05
1.40478e-05
1.40478e-05
1.40478e-05
1.40478e-05
1.40478e-05
1.40478e-05
1.40478e-05
1.40478e-05
1.40478e-05
1.40478e-05
1.40478e-05
1.40478e-05
1.40478e-05
1.40478e-05
1.40478e-05
1.40478e-05
1.40478e-05
1.40478e-05
1.40478e-05
1.40478e-05
1.40478e-05
1.40478e-05
1.40478e-05
1.40478e-05
1.40478e-05
1.40478e-05
1.40478e-05
1.40478e-05
1.40478e-05
1.40478e-05
1.40478e-05
1.40478e-05
1.40478e-05
1.40478e-05
1.40478e-05
1.40478e-05
1.40478e-05
1.40478e-05
1.40478e-05
1.40478e-05
1.40478e-05
1.40478e-05
1.40478e-05
1.40478e-05
1.40478e-05
1.40478e-05
1.40478e-05
1.40478e-05
1.40478e-05
1.40478e-05
1.40478e-05
1.40478e-05
1.40478e-05
1.40478e-05
1.40478e-05
1.40478e-05
1.40478e-05
1.40478e-05
1.40478e-05
1.40478e-05
1.40478e-05
1.40478e-05
1.40478e-05
1.40478e-05
1.40478e-05
1.40478e-05
1.40478e-05
1.40478e-05
1.40478e-05
1.40478e-05
1.40478e-05
1.40478e-05
1.40478e-05
1.40478e-05
1.40478e-05
1.40478e-05
1.40478e-05
1.40478e-05
1.40478e-05
1.40478e-05
1.40478e-05
1.40478e-05
1.40478e-05
1.40478e-05
1.40478e-05
1.40478e-05
1.40478e-05
1.40478e-05
1.40478e-05
1.40478e-05
1.40478e-05
1.40478e-05
1.40478e-05
1.40478e-05
1.40478e-05
1.40478e-05
1.40478e-05
1.40478e-05
1.40478e-05
1.40478e-05
1.40478e-05
1.40478e-05
1.40478e-05
1.40478e-05
1.40478e-05
1.40478e-05
1.40478e-05
1.40478e-05
1.40478e-05
1.40478e-05
1.40478e-05
1.40478e-05
1.40478e-05
1.40478e-05
1.40478e-05
1.40478e-05
1.40478e-05
1.40478e-05
1.40478e-05
1.40478e-05
1.40478e-05
1.40478e-05
1.40478e-05
1.40478e-05
1.40478e-05
1.40478e-05
1.40478e-05
1.40478e-05
1.40478e-05
1.40478e-05
1.40478e-05
1.40478e-05
1.40478e-05
1.40478e-05
1.40478e-05
1.40478e-05
1.40478e-05
1.40478e-05
1.40478e-05
1.40478e-05
1.40478e-05
1.40478e-05
1.40478e-05
1.40478e-05
1.40478e-05
1.40478e-05
1.40478e-05
1.40478e-05
1.40478e-05
1.40478e-05
1.40478e-05
1.40478e-05
1.40478e-05
1.40478e-05
1.40478e-05
1.40478e-05
1.40478e-05
1.40478e-05
1.40478e-05
1.40478e-05
1.40478e-05
1.40478e-05
1.40478e-05
1.40478e-05
1.40478e-05
1.40478e-05
1.40478e-05
1.40478e-05
1.40478e-05
1.40478e-05
1.40478e-05
1.40478e-05
1.40478e-05
1.40478e-05
1.40478e-05
1.40478e-05
1.40478e-05
1.40478e-05
1.40478e-05
1.40478e-05
1.40478e-05
1.40478e-05
1.40478e-05
1.40478e-05
1.40478e-05
1.40478e-05
1.40478e-05
1.40478e-05
1.40478e-05
1.40478e-05
1.40478e-05
1.40478e-05
1.40478e-05
1.40478e-05
1.40478e-05
1.40478e-05
1.40478e-05
1.40478e-05
1.40478e-05
1.40478e-05
1.40478e-05
1.40478e-05
1.40478e-05
1.40478e-05
1.40478e-05
1.40478e-05
1.40478e-05
1.40478e-05
1.40478e-05
1.40478e-05
1.40478e-05
1.40478e-05
1.40478e-05
1.40478e-05
1.40478e-05
1.40478e-05
1.40478e-05
1.40478e-05
1.40478e-05
1.40478e-05
1.40478e-05
1.40478e-05
1.40479e-05
1.40478e-05
1.40478e-05
1.40478e-05
1.40478e-05
1.40478e-05
1.40478e-05
1.40478e-05
1.40478e-05
1.40478e-05
1.40478e-05
1.40478e-05
1.40478e-05
1.40478e-05
1.40478e-05
1.40478e-05
1.40478e-05
1.40478e-05
1.40478e-05
1.40478e-05
1.40478e-05
1.40478e-05
1.40478e-05
1.40478e-05
1.40478e-05
1.40478e-05
1.40478e-05
1.40478e-05
1.40478e-05
1.40478e-05
1.40478e-05
1.40478e-05
1.40478e-05
1.40478e-05
1.40478e-05
1.40478e-05
1.40478e-05
1.40478e-05
1.40478e-05
1.40478e-05
1.40478e-05
1.40478e-05
1.40478e-05
1.40478e-05
1.40478e-05
1.40478e-05
1.40478e-05
1.40479e-05
1.4048e-05
1.40481e-05
1.40485e-05
1.40478e-05
1.40478e-05
1.40478e-05
1.40478e-05
1.40478e-05
1.40478e-05
1.40478e-05
1.40478e-05
1.40478e-05
1.40478e-05
1.40478e-05
1.40478e-05
1.40478e-05
1.40478e-05
1.40478e-05
1.40478e-05
1.40478e-05
1.40478e-05
1.40478e-05
1.40478e-05
1.40478e-05
1.40478e-05
1.40478e-05
1.40478e-05
1.40478e-05
1.40478e-05
1.40478e-05
1.40478e-05
1.40478e-05
1.40478e-05
1.40478e-05
1.40478e-05
1.40478e-05
1.40478e-05
1.40478e-05
1.40478e-05
1.40478e-05
1.40478e-05
1.40478e-05
1.40478e-05
1.40478e-05
1.40478e-05
1.40478e-05
1.40479e-05
1.4048e-05
1.40481e-05
1.40484e-05
1.40489e-05
1.40499e-05
1.40519e-05
1.40478e-05
1.40478e-05
1.40478e-05
1.40478e-05
1.40478e-05
1.40478e-05
1.40478e-05
1.40478e-05
1.40478e-05
1.40478e-05
1.40478e-05
1.40478e-05
1.40478e-05
1.40478e-05
1.40478e-05
1.40478e-05
1.40478e-05
1.40478e-05
1.40478e-05
1.40478e-05
1.40478e-05
1.40478e-05
1.40478e-05
1.40478e-05
1.40478e-05
1.40478e-05
1.40478e-05
1.40478e-05
1.40478e-05
1.40478e-05
1.40478e-05
1.40478e-05
1.40478e-05
1.40478e-05
1.40478e-05
1.40478e-05
1.40478e-05
1.40478e-05
1.40478e-05
1.40479e-05
1.40479e-05
1.4048e-05
1.40481e-05
1.40484e-05
1.40489e-05
1.40498e-05
1.40515e-05
1.40545e-05
1.40601e-05
1.40712e-05
1.40478e-05
1.40478e-05
1.40478e-05
1.40478e-05
1.40478e-05
1.40478e-05
1.40478e-05
1.40478e-05
1.40478e-05
1.40478e-05
1.40478e-05
1.40478e-05
1.40478e-05
1.40478e-05
1.40478e-05
1.40478e-05
1.40478e-05
1.40478e-05
1.40478e-05
1.40478e-05
1.40478e-05
1.40478e-05
1.40478e-05
1.40478e-05
1.40478e-05
1.40478e-05
1.40478e-05
1.40478e-05
1.40478e-05
1.40478e-05
1.40478e-05
1.40478e-05
1.40478e-05
1.40478e-05
1.40478e-05
1.40478e-05
1.40479e-05
1.40479e-05
1.4048e-05
1.40482e-05
1.40484e-05
1.40489e-05
1.40498e-05
1.40514e-05
1.40543e-05
1.40594e-05
1.40688e-05
1.40858e-05
1.41173e-05
1.41785e-05
1.40478e-05
1.40478e-05
1.40478e-05
1.40478e-05
1.40478e-05
1.40478e-05
1.40478e-05
1.40478e-05
1.40478e-05
1.40478e-05
1.40478e-05
1.40478e-05
1.40478e-05
1.40478e-05
1.40478e-05
1.40478e-05
1.40478e-05
1.40478e-05
1.40478e-05
1.40478e-05
1.40478e-05
1.40478e-05
1.40478e-05
1.40478e-05
1.40478e-05
1.40478e-05
1.40478e-05
1.40478e-05
1.40478e-05
1.40478e-05
1.40478e-05
1.40478e-05
1.40478e-05
1.40479e-05
1.40479e-05
1.4048e-05
1.40482e-05
1.40485e-05
1.4049e-05
1.40499e-05
1.40515e-05
1.40543e-05
1.40593e-05
1.40683e-05
1.40843e-05
1.41131e-05
1.41648e-05
1.42579e-05
1.44268e-05
1.47412e-05
1.40478e-05
1.40478e-05
1.40478e-05
1.40478e-05
1.40478e-05
1.40478e-05
1.40478e-05
1.40478e-05
1.40478e-05
1.40478e-05
1.40478e-05
1.40478e-05
1.40478e-05
1.40478e-05
1.40478e-05
1.40478e-05
1.40478e-05
1.40478e-05
1.40478e-05
1.40478e-05
1.40478e-05
1.40478e-05
1.40478e-05
1.40478e-05
1.40478e-05
1.40478e-05
1.40478e-05
1.40478e-05
1.40478e-05
1.40478e-05
1.40479e-05
1.40479e-05
1.4048e-05
1.40482e-05
1.40485e-05
1.40491e-05
1.405e-05
1.40516e-05
1.40545e-05
1.40595e-05
1.40684e-05
1.4084e-05
1.41117e-05
1.41607e-05
1.42475e-05
1.4401e-05
1.46705e-05
1.51377e-05
1.59319e-05
1.72529e-05
1.40478e-05
1.40478e-05
1.40478e-05
1.40478e-05
1.40478e-05
1.40478e-05
1.40478e-05
1.40478e-05
1.40478e-05
1.40478e-05
1.40478e-05
1.40478e-05
1.40478e-05
1.40478e-05
1.40478e-05
1.40478e-05
1.40478e-05
1.40478e-05
1.40478e-05
1.40478e-05
1.40478e-05
1.40478e-05
1.40478e-05
1.40478e-05
1.40478e-05
1.40478e-05
1.40478e-05
1.40479e-05
1.4048e-05
1.40481e-05
1.40483e-05
1.40486e-05
1.40492e-05
1.40502e-05
1.40519e-05
1.40549e-05
1.40601e-05
1.40691e-05
1.40848e-05
1.41121e-05
1.41599e-05
1.42436e-05
1.43895e-05
1.46424e-05
1.50749e-05
1.57977e-05
1.69632e-05
1.87514e-05
2.13352e-05
2.48298e-05
1.40478e-05
1.40478e-05
1.40478e-05
1.40478e-05
1.40478e-05
1.40478e-05
1.40478e-05
1.40478e-05
1.40478e-05
1.40478e-05
1.40478e-05
1.40478e-05
1.40478e-05
1.40478e-05
1.40478e-05
1.40478e-05
1.40478e-05
1.40478e-05
1.40478e-05
1.40478e-05
1.40478e-05
1.40478e-05
1.40478e-05
1.40479e-05
1.40479e-05
1.4048e-05
1.40481e-05
1.40484e-05
1.40487e-05
1.40494e-05
1.40505e-05
1.40524e-05
1.40556e-05
1.4061e-05
1.40704e-05
1.40866e-05
1.41144e-05
1.41624e-05
1.42452e-05
1.43879e-05
1.46321e-05
1.50447e-05
1.57272e-05
1.68186e-05
1.84829e-05
2.08739e-05
2.40871e-05
2.81246e-05
3.28993e-05
3.82497e-05
1.40478e-05
1.40478e-05
1.40478e-05
1.40478e-05
1.40478e-05
1.40478e-05
1.40478e-05
1.40478e-05
1.40478e-05
1.40478e-05
1.40478e-05
1.40478e-05
1.40478e-05
1.40478e-05
1.40478e-05
1.40478e-05
1.40478e-05
1.40478e-05
1.40478e-05
1.40478e-05
1.40479e-05
1.40479e-05
1.4048e-05
1.40482e-05
1.40485e-05
1.40489e-05
1.40497e-05
1.40509e-05
1.4053e-05
1.40565e-05
1.40625e-05
1.40725e-05
1.40896e-05
1.41186e-05
1.41681e-05
1.42524e-05
1.43957e-05
1.46377e-05
1.50417e-05
1.57022e-05
1.67484e-05
1.83328e-05
2.06006e-05
2.36458e-05
2.74764e-05
3.20098e-05
3.70996e-05
4.25738e-05
4.82719e-05
5.40407e-05
1.40478e-05
1.40478e-05
1.40478e-05
1.40478e-05
1.40478e-05
1.40478e-05
1.40478e-05
1.40478e-05
1.40478e-05
1.40478e-05
1.40478e-05
1.40478e-05
1.40478e-05
1.40478e-05
1.40478e-05
1.40478e-05
1.40479e-05
1.40479e-05
1.4048e-05
1.40481e-05
1.40483e-05
1.40486e-05
1.40492e-05
1.405e-05
1.40515e-05
1.40539e-05
1.40578e-05
1.40644e-05
1.40755e-05
1.4094e-05
1.41252e-05
1.41775e-05
1.42656e-05
1.44132e-05
1.46593e-05
1.50647e-05
1.57193e-05
1.67442e-05
1.82818e-05
2.04682e-05
2.33937e-05
2.70716e-05
3.14313e-05
3.63401e-05
4.16352e-05
4.71548e-05
5.27565e-05
5.83202e-05
6.37374e-05
6.89282e-05
1.40478e-05
1.40478e-05
1.40478e-05
1.40478e-05
1.40478e-05
1.40478e-05
1.40478e-05
1.40478e-05
1.40478e-05
1.40478e-05
1.40478e-05
1.40478e-05
1.40479e-05
1.40479e-05
1.40479e-05
1.4048e-05
1.40482e-05
1.40484e-05
1.40488e-05
1.40495e-05
1.40505e-05
1.40522e-05
1.4055e-05
1.40596e-05
1.40672e-05
1.40797e-05
1.41003e-05
1.41346e-05
1.41914e-05
1.42857e-05
1.44418e-05
1.46984e-05
1.51151e-05
1.57788e-05
1.68042e-05
1.83246e-05
2.0466e-05
2.33123e-05
2.68773e-05
3.10987e-05
3.58564e-05
4.1001e-05
4.63809e-05
5.18589e-05
5.73185e-05
6.26527e-05
6.77696e-05
7.2599e-05
7.70671e-05
8.11054e-05
1.40478e-05
1.40478e-05
1.40478e-05
1.40478e-05
1.40478e-05
1.40478e-05
1.40478e-05
1.40478e-05
1.40478e-05
1.40479e-05
1.40479e-05
1.4048e-05
1.40481e-05
1.40483e-05
1.40486e-05
1.40491e-05
1.40499e-05
1.40512e-05
1.40533e-05
1.40567e-05
1.40621e-05
1.4071e-05
1.40854e-05
1.4109e-05
1.41476e-05
1.42109e-05
1.43145e-05
1.44835e-05
1.47575e-05
1.5196e-05
1.58838e-05
1.69308e-05
1.84614e-05
2.0591e-05
2.33946e-05
2.68828e-05
3.09976e-05
3.56283e-05
4.06382e-05
4.58865e-05
5.12448e-05
5.66037e-05
6.18664e-05
6.69423e-05
7.17569e-05
7.62446e-05
8.03263e-05
8.39081e-05
8.69031e-05
8.93152e-05
1.40478e-05
1.40478e-05
1.40478e-05
1.40478e-05
1.40478e-05
1.40479e-05
1.40479e-05
1.4048e-05
1.40481e-05
1.40483e-05
1.40485e-05
1.40489e-05
1.40496e-05
1.40506e-05
1.40522e-05
1.40548e-05
1.40589e-05
1.40655e-05
1.40762e-05
1.40933e-05
1.41209e-05
1.41655e-05
1.42377e-05
1.43542e-05
1.45417e-05
1.48411e-05
1.53128e-05
1.60407e-05
1.71302e-05
1.86973e-05
2.0846e-05
2.36402e-05
2.70843e-05
3.11215e-05
3.56486e-05
4.05393e-05
4.56642e-05
5.09045e-05
5.61576e-05
6.13359e-05
6.6355e-05
7.11416e-05
7.56344e-05
7.97692e-05
8.34623e-05
8.6626e-05
8.92048e-05
9.12061e-05
9.26856e-05
9.37634e-05
1.40478e-05
1.40479e-05
1.40479e-05
1.4048e-05
1.40481e-05
1.40482e-05
1.40484e-05
1.40488e-05
1.40493e-05
1.40502e-05
1.40515e-05
1.40536e-05
1.40569e-05
1.40621e-05
1.40703e-05
1.40834e-05
1.41041e-05
1.41372e-05
1.41901e-05
1.42743e-05
1.44085e-05
1.46213e-05
1.49557e-05
1.54738e-05
1.6259e-05
1.74128e-05
1.90423e-05
2.12387e-05
2.40534e-05
2.74826e-05
3.14681e-05
3.59125e-05
4.06988e-05
4.57088e-05
5.0833e-05
5.59766e-05
6.1059e-05
6.60053e-05
7.07445e-05
7.52176e-05
7.93698e-05
8.31326e-05
8.64235e-05
8.91749e-05
9.13633e-05
9.3023e-05
9.42287e-05
9.50783e-05
9.56604e-05
9.60661e-05
1.4048e-05
1.40481e-05
1.40482e-05
1.40484e-05
1.40487e-05
1.40492e-05
1.40499e-05
1.40511e-05
1.40529e-05
1.40556e-05
1.40599e-05
1.40666e-05
1.40771e-05
1.40935e-05
1.41193e-05
1.41599e-05
1.42239e-05
1.43245e-05
1.44825e-05
1.47292e-05
1.51105e-05
1.56906e-05
1.65527e-05
1.77938e-05
1.95111e-05
2.17821e-05
2.46437e-05
2.80828e-05
3.20387e-05
3.64182e-05
4.11133e-05
4.6016e-05
5.10269e-05
5.60589e-05
6.10382e-05
6.58985e-05
7.05735e-05
7.5006e-05
7.91463e-05
8.29388e-05
8.63115e-05
8.91925e-05
9.15411e-05
9.33657e-05
9.47224e-05
9.5692e-05
9.63647e-05
9.68199e-05
9.71264e-05
9.73317e-05
9.74683e-05
1.40487e-05
1.40491e-05
1.40498e-05
1.40509e-05
1.40525e-05
1.40549e-05
1.40586e-05
1.40643e-05
1.40732e-05
1.40868e-05
1.41079e-05
1.41407e-05
1.41917e-05
1.42709e-05
1.43937e-05
1.45838e-05
1.48756e-05
1.53186e-05
1.59794e-05
1.69404e-05
1.82931e-05
2.01235e-05
2.24934e-05
2.54248e-05
2.88942e-05
3.2838e-05
3.71669e-05
4.17814e-05
4.65835e-05
5.14834e-05
5.64025e-05
6.12732e-05
6.60365e-05
7.06326e-05
7.50067e-05
7.91122e-05
8.29021e-05
8.63159e-05
8.92851e-05
9.17588e-05
9.37256e-05
9.52199e-05
9.63093e-05
9.70762e-05
9.76021e-05
9.79526e-05
9.81841e-05
9.83329e-05
9.84208e-05
9.84783e-05
9.85308e-05
1.40508e-05
1.40523e-05
1.40545e-05
1.40579e-05
1.40631e-05
1.40709e-05
1.40828e-05
1.4101e-05
1.41288e-05
1.41714e-05
1.42367e-05
1.43368e-05
1.44899e-05
1.4723e-05
1.50746e-05
1.5598e-05
1.63617e-05
1.74465e-05
1.89365e-05
2.09041e-05
2.33943e-05
2.64137e-05
2.99285e-05
3.38728e-05
3.81612e-05
4.27024e-05
4.74083e-05
5.21988e-05
5.70033e-05
6.17609e-05
6.64185e-05
7.09236e-05
7.52242e-05
7.92759e-05
8.30376e-05
8.64592e-05
8.94788e-05
9.20413e-05
9.41214e-05
9.57355e-05
9.69367e-05
9.77964e-05
9.83919e-05
9.87929e-05
9.90568e-05
9.92275e-05
9.93277e-05
9.93796e-05
9.94185e-05
9.9443e-05
9.94314e-05
9.93997e-05
1.40626e-05
1.40699e-05
1.40808e-05
1.40971e-05
1.41219e-05
1.41593e-05
1.42158e-05
1.43013e-05
1.44305e-05
1.4625e-05
1.49159e-05
1.53463e-05
1.59732e-05
1.68661e-05
1.81021e-05
1.97551e-05
2.18818e-05
2.45096e-05
2.76296e-05
3.11993e-05
3.51512e-05
3.94047e-05
4.38768e-05
4.84891e-05
5.31708e-05
5.78591e-05
6.24995e-05
6.70444e-05
7.14476e-05
7.56612e-05
7.9643e-05
8.33557e-05
8.67572e-05
8.97937e-05
9.24106e-05
9.45744e-05
9.62866e-05
9.75847e-05
9.85302e-05
9.9195e-05
9.96483e-05
9.99458e-05
0.000100137
0.000100253
0.000100311
0.000100341
0.000100363
0.000100356
0.000100323
0.000100269
0.000100201
0.000100131
1.4119e-05
1.41533e-05
1.42046e-05
1.42812e-05
1.43953e-05
1.45651e-05
1.48164e-05
1.51849e-05
1.57186e-05
1.64772e-05
1.75292e-05
1.89451e-05
2.07854e-05
2.30893e-05
2.5866e-05
2.90931e-05
3.27209e-05
3.66823e-05
4.0902e-05
4.53058e-05
4.98245e-05
5.43963e-05
5.89658e-05
6.34848e-05
6.79104e-05
7.22023e-05
7.6317e-05
8.02148e-05
8.38611e-05
8.722e-05
9.02452e-05
9.28855e-05
9.5103e-05
9.68883e-05
9.82662e-05
9.92879e-05
0.000100017
0.000100518
0.000100852
0.000101067
0.000101198
0.000101264
0.00010129
0.000101302
0.000101298
0.000101268
0.000101213
0.000101143
0.000101062
0.000100978
0.000100895
0.000100816
1.43787e-05
1.45338e-05
1.47605e-05
1.50896e-05
1.55621e-05
1.62296e-05
1.71528e-05
1.83964e-05
2.002e-05
2.20679e-05
2.45608e-05
2.74908e-05
3.08241e-05
3.45068e-05
3.84738e-05
4.26565e-05
4.69893e-05
5.1412e-05
5.58711e-05
6.03186e-05
6.47116e-05
6.90122e-05
7.31848e-05
7.71905e-05
8.0992e-05
8.45571e-05
8.78543e-05
9.0844e-05
9.34799e-05
9.57227e-05
9.75562e-05
9.89946e-05
0.000100078
0.000100863
0.00010141
0.000101779
0.000102015
0.000102158
0.000102237
0.000102265
0.000102265
0.000102259
0.000102233
0.000102178
0.000102104
0.000102018
0.000101925
0.000101831
0.000101739
0.000101647
0.000101557
0.00010147
1.54819e-05
1.60916e-05
1.69295e-05
1.80539e-05
1.9521e-05
2.1376e-05
2.3645e-05
2.63301e-05
2.94092e-05
3.28402e-05
3.65682e-05
4.0532e-05
4.46705e-05
4.89267e-05
5.32491e-05
5.75918e-05
6.1913e-05
6.61755e-05
7.03454e-05
7.43913e-05
7.82784e-05
8.19724e-05
8.54432e-05
8.86626e-05
9.15968e-05
9.4204e-05
9.64463e-05
9.83033e-05
9.97809e-05
0.00010091
0.000101741
0.000102327
0.000102726
0.000102983
0.000103141
0.000103229
0.000103259
0.000103254
0.00010324
0.000103214
0.000103158
0.000103082
0.000102994
0.000102895
0.000102792
0.000102689
0.000102587
0.000102485
0.000102385
0.000102285
0.000102187
0.00010209
1.9244e-05
2.0962e-05
2.30639e-05
2.5557e-05
2.84274e-05
3.16421e-05
3.51552e-05
3.89131e-05
4.28606e-05
4.69445e-05
5.11162e-05
5.5332e-05
5.95529e-05
6.3743e-05
6.78697e-05
7.19031e-05
7.58152e-05
7.95752e-05
8.31516e-05
8.65164e-05
8.96444e-05
9.25057e-05
9.50638e-05
9.72828e-05
9.914e-05
0.000100636
0.000101795
0.000102658
0.000103275
0.000103699
0.000103976
0.000104145
0.000104239
0.000104275
0.000104266
0.000104244
0.000104212
0.000104159
0.00010408
0.000103988
0.000103884
0.000103773
0.00010366
0.000103548
0.000103437
0.000103326
0.000103217
0.000103107
0.000102998
0.000102889
0.000102781
0.000102675
2.78386e-05
3.08761e-05
3.42044e-05
3.77771e-05
4.15451e-05
4.54598e-05
4.94762e-05
5.35535e-05
5.76551e-05
6.17479e-05
6.58013e-05
6.97867e-05
7.36778e-05
7.74497e-05
8.10749e-05
8.45246e-05
8.7773e-05
9.07972e-05
9.35711e-05
9.60621e-05
9.8237e-05
0.000100073
0.000101568
0.000102739
0.00010362
0.000104258
0.000104701
0.000104993
0.000105171
0.000105271
0.000105311
0.0001053
0.00010527
0.000105229
0.000105174
0.000105094
0.000104997
0.000104891
0.000104774
0.000104653
0.000104531
0.00010441
0.000104289
0.000104169
0.00010405
0.000103931
0.000103812
0.000103694
0.000103575
0.000103457
0.00010334
0.000103224
4.44624e-05
4.8326e-05
5.22605e-05
5.62324e-05
6.02114e-05
6.41694e-05
6.80799e-05
7.19182e-05
7.56611e-05
7.92865e-05
8.27697e-05
8.60842e-05
8.92069e-05
9.21166e-05
9.47901e-05
9.71984e-05
9.93114e-05
0.000101108
0.000102582
0.000103747
0.000104634
0.000105282
0.000105737
0.000106038
0.000106222
0.000106326
0.000106367
0.000106355
0.000106319
0.000106268
0.000106206
0.000106127
0.000106026
0.000105914
0.000105791
0.000105662
0.000105532
0.000105402
0.000105273
0.000105143
0.000105014
0.000104886
0.000104757
0.000104629
0.000104501
0.000104373
0.000104245
0.000104117
0.000103989
0.000103862
0.000103736
5.91447e-05
6.29919e-05
6.68076e-05
7.05689e-05
7.42541e-05
7.7843e-05
8.13158e-05
8.465e-05
8.78218e-05
9.081e-05
9.35956e-05
9.61575e-05
9.84699e-05
0.000100506
0.000102244
0.000103681
0.000104825
0.000105704
0.000106351
0.000106807
0.000107112
0.0001073
0.000107403
0.000107442
0.00010743
0.000107389
0.000107327