/*--------------------------------*- C++ -*----------------------------------*\
| =========                 |                                                 |
| \\      /  F ield         | OpenFOAM: The Open Source CFD Toolbox           |
|  \\    /   O peration     | Version:  v1706                                 |
|   \\  /    A nd           | Web:      www.OpenFOAM.com                      |
|    \\/     M anipulation  |                                                 |
\*---------------------------------------------------------------------------*/
FoamFile
{
    version     2.0;
    format      ascii;
    class       volScalarField;
    location    "1e-05";
    object      kappatr;
}
// * * * * * * * * * * * * * * * * * * * * * * * * * * * * * * * * * * * * * //

dimensions      [1 1 -3 -1 0 0 0];


internalField   nonuniform List<scalar> 
30038
(
0.014593
0.014593
0.014593
0.014593
0.014593
0.014593
0.014593
0.014593
0.014593
0.014593
0.014593
0.014593
0.014593
0.014593
0.014593
0.014593
0.014593
0.014593
0.014593
0.014593
0.014593
0.014593
0.014593
0.014593
0.014593
0.014593
0.014593
0.014593
0.014593
0.014593
0.014593
0.014593
0.014593
0.014593
0.014593
0.014593
0.014593
0.014593
0.014593
0.014593
0.014593
0.014593
0.014593
0.014593
0.014593
0.014593
0.014593
0.014593
0.014593
0.014593
0.014593
0.014593
0.014593
0.014593
0.014593
0.014593
0.014593
0.014593
0.014593
0.014593
0.014593
0.014593
0.014593
0.014593
0.014593
0.014593
0.014593
0.014593
0.014593
0.014593
0.014593
0.014593
0.014593
0.014593
0.014593
0.014593
0.014593
0.014593
0.014593
0.014593
0.014593
0.014593
0.014593
0.014593
0.014593
0.014593
0.014593
0.014593
0.014593
0.014593
0.014593
0.014593
0.014593
0.014593
0.014593
0.014593
0.014593
0.014593
0.014593
0.014593
0.014593
0.014593
0.014593
0.014593
0.014593
0.014593
0.014593
0.014593
0.014593
0.014593
0.014593
0.014593
0.014593
0.014593
0.014593
0.014593
0.014593
0.014593
0.014593
0.014593
0.014593
0.014593
0.014593
0.014593
0.014593
0.014593
0.014593
0.014593
0.014593
0.014593
0.014593
0.014593
0.014593
0.014593
0.014593
0.014593
0.014593
0.014593
0.014593
0.014593
0.014593
0.014593
0.014593
0.014593
0.014593
0.014593
0.014593
0.014593
0.014593
0.014593
0.014593
0.014593
0.014593
0.014593
0.014593
0.014593
0.014593
0.014593
0.014593
0.014593
0.014593
0.014593
0.014593
0.014593
0.014593
0.014593
0.014593
0.014593
0.014593
0.014593
0.014593
0.014593
0.014593
0.014593
0.014593
0.014593
0.014593
0.014593
0.014593
0.014593
0.014593
0.014593
0.014593
0.014593
0.014593
0.014593
0.014593
0.014593
0.014593
0.014593
0.014593
0.014593
0.014593
0.014593
0.014593
0.014593
0.014593
0.014593
0.014593
0.014593
0.014593
0.014593
0.014593
0.014593
0.014593
0.014593
0.014593
0.014593
0.014593
0.014593
0.014593
0.014593
0.014593
0.014593
0.014593
0.014593
0.014593
0.014593
0.014593
0.014593
0.014593
0.014593
0.014593
0.014593
0.014593
0.014593
0.014593
0.014593
0.014593
0.014593
0.014593
0.014593
0.014593
0.014593
0.014593
0.014593
0.014593
0.014593
0.014593
0.014593
0.014593
0.014593
0.014593
0.014593
0.014593
0.014593
0.014593
0.014593
0.014593
0.014593
0.014593
0.014593
0.014593
0.014593
0.014593
0.014593
0.014593
0.014593
0.014593
0.014593
0.014593
0.014593
0.014593
0.014593
0.014593
0.014593
0.014593
0.014593
0.014593
0.014593
0.014593
0.014593
0.014593
0.014593
0.014593
0.014593
0.014593
0.014593
0.014593
0.014593
0.014593
0.014593
0.014593
0.014593
0.014593
0.014593
0.014593
0.014593
0.014593
0.014593
0.014593
0.014593
0.014593
0.014593
0.014593
0.014593
0.014593
0.014593
0.014593
0.014593
0.014593
0.014593
0.014593
0.014593
0.014593
0.014593
0.014593
0.014593
0.014593
0.014593
0.014593
0.014593
0.014593
0.014593
0.014593
0.014593
0.014593
0.014593
0.014593
0.014593
0.014593
0.014593
0.014593
0.014593
0.014593
0.014593
0.014593
0.014593
0.014593
0.014593
0.014593
0.014593
0.014593
0.014593
0.014593
0.014593
0.014593
0.014593
0.014593
0.014593
0.014593
0.014593
0.014593
0.014593
0.014593
0.014593
0.014593
0.014593
0.014593
0.014593
0.014593
0.014593
0.014593
0.014593
0.014593
0.014593
0.014593
0.014593
0.014593
0.014593
0.014593
0.014593
0.014593
0.014593
0.014593
0.014593
0.014593
0.014593
0.014593
0.014593
0.014593
0.014593
0.014593
0.014593
0.014593
0.014593
0.014593
0.014593
0.014593
0.014593
0.014593
0.014593
0.014593
0.014593
0.014593
0.014593
0.014593
0.014593
0.014593
0.014593
0.014593
0.014593
0.014593
0.014593
0.014593
0.014593
0.014593
0.014593
0.014593
0.014593
0.014593
0.014593
0.014593
0.014593
0.014593
0.014593
0.014593
0.014593
0.014593
0.014593
0.014593
0.014593
0.014593
0.014593
0.014593
0.014593
0.014593
0.014593
0.014593
0.014593
0.014593
0.014593
0.014593
0.014593
0.014593
0.014593
0.014593
0.014593
0.014593
0.014593
0.014593
0.014593
0.014593
0.014593
0.014593
0.014593
0.014593
0.014593
0.014593
0.014593
0.014593
0.014593
0.014593
0.014593
0.014593
0.014593
0.014593
0.014593
0.014593
0.014593
0.014593
0.014593
0.014593
0.014593
0.014593
0.014593
0.014593
0.014593
0.014593
0.014593
0.014593
0.014593
0.014593
0.014593
0.014593
0.014593
0.014593
0.014593
0.014593
0.014593
0.014593
0.014593
0.014593
0.014593
0.014593
0.014593
0.014593
0.014593
0.014593
0.014593
0.014593
0.014593
0.014593
0.014593
0.014593
0.014593
0.014593
0.014593
0.014593
0.014593
0.014593
0.014593
0.014593
0.014593
0.014593
0.014593
0.014593
0.014593
0.014593
0.014593
0.014593
0.014593
0.014593
0.014593
0.014593
0.014593
0.014593
0.014593
0.014593
0.014593
0.014593
0.014593
0.014593
0.014593
0.014593
0.014593
0.014593
0.014593
0.014593
0.014593
0.014593
0.014593
0.014593
0.014593
0.014593
0.014593
0.014593
0.014593
0.014593
0.014593
0.014593
0.014593
0.014593
0.014593
0.014593
0.014593
0.014593
0.014593
0.014593
0.014593
0.014593
0.014593
0.014593
0.014593
0.014593
0.014593
0.014593
0.014593
0.014593
0.014593
0.014593
0.014593
0.014593
0.014593
0.014593
0.014593
0.014593
0.014593
0.014593
0.014593
0.014593
0.014593
0.014593
0.014593
0.014593
0.014593
0.014593
0.014593
0.014593
0.014593
0.014593
0.014593
0.014593
0.014593
0.014593
0.014593
0.014593
0.014593
0.014593
0.014593
0.014593
0.014593
0.014593
0.014593
0.014593
0.014593
0.014593
0.014593
0.014593
0.014593
0.014593
0.014593
0.014593
0.014593
0.014593
0.014593
0.014593
0.014593
0.014593
0.014593
0.014593
0.014593
0.014593
0.014593
0.014593
0.014593
0.014593
0.014593
0.014593
0.014593
0.014593
0.014593
0.014593
0.014593
0.014593
0.014593
0.014593
0.014593
0.014593
0.014593
0.014593
0.014593
0.014593
0.014593
0.014593
0.014593
0.014593
0.014593
0.014593
0.014593
0.014593
0.014593
0.014593
0.014593
0.014593
0.014593
0.014593
0.014593
0.014593
0.014593
0.014593
0.014593
0.014593
0.014593
0.014593
0.014593
0.014593
0.014593
0.014593
0.014593
0.014593
0.014593
0.014593
0.014593
0.014593
0.014593
0.014593
0.014593
0.014593
0.014593
0.014593
0.014593
0.014593
0.014593
0.014593
0.014593
0.014593
0.014593
0.014593
0.014593
0.014593
0.014593
0.014593
0.014593
0.014593
0.014593
0.014593
0.014593
0.014593
0.014593
0.014593
0.014593
0.014593
0.014593
0.014593
0.014593
0.014593
0.014593
0.014593
0.014593
0.014593
0.014593
0.014593
0.014593
0.014593
0.014593
0.014593
0.014593
0.014593
0.014593
0.014593
0.014593
0.014593
0.014593
0.014593
0.014593
0.014593
0.014593
0.014593
0.014593
0.014593
0.014593
0.014593
0.014593
0.014593
0.014593
0.014593
0.014593
0.014593
0.014593
0.014593
0.014593
0.014593
0.014593
0.014593
0.014593
0.014593
0.014593
0.014593
0.014593
0.014593
0.014593
0.014593
0.014593
0.014593
0.014593
0.014593
0.014593
0.014593
0.014593
0.014593
0.014593
0.014593
0.014593
0.014593
0.014593
0.014593
0.014593
0.014593
0.014593
0.014593
0.014593
0.014593
0.014593
0.014593
0.014593
0.014593
0.014593
0.014593
0.014593
0.014593
0.014593
0.014593
0.014593
0.014593
0.014593
0.014593
0.014593
0.014593
0.014593
0.014593
0.014593
0.014593
0.014593
0.014593
0.014593
0.014593
0.014593
0.014593
0.014593
0.014593
0.014593
0.014593
0.014593
0.014593
0.014593
0.014593
0.014593
0.014593
0.014593
0.014593
0.014593
0.014593
0.014593
0.014593
0.014593
0.014593
0.014593
0.014593
0.014593
0.014593
0.014593
0.014593
0.014593
0.014593
0.014593
0.014593
0.014593
0.014593
0.014593
0.014593
0.014593
0.014593
0.014593
0.014593
0.014593
0.014593
0.014593
0.014593
0.014593
0.014593
0.014593
0.014593
0.014593
0.014593
0.014593
0.014593
0.014593
0.014593
0.014593
0.014593
0.014593
0.014593
0.014593
0.014593
0.014593
0.014593
0.014593
0.014593
0.014593
0.014593
0.014593
0.014593
0.014593
0.014593
0.014593
0.014593
0.014593
0.014593
0.014593
0.014593
0.014593
0.014593
0.014593
0.014593
0.014593
0.014593
0.014593
0.014593
0.014593
0.014593
0.014593
0.014593
0.014593
0.014593
0.014593
0.014593
0.014593
0.014593
0.014593
0.014593
0.014593
0.014593
0.014593
0.014593
0.014593
0.014593
0.014593
0.014593
0.014593
0.014593
0.014593
0.014593
0.014593
0.014593
0.014593
0.014593
0.014593
0.014593
0.014593
0.014593
0.014593
0.014593
0.014593
0.014593
0.014593
0.014593
0.014593
0.014593
0.014593
0.014593
0.014593
0.014593
0.014593
0.014593
0.014593
0.014593
0.014593
0.014593
0.014593
0.014593
0.014593
0.014593
0.014593
0.014593
0.014593
0.014593
0.014593
0.014593
0.014593
0.014593
0.014593
0.014593
0.014593
0.014593
0.014593
0.014593
0.014593
0.014593
0.014593
0.014593
0.014593
0.014593
0.014593
0.014593
0.014593
0.014593
0.014593
0.014593
0.014593
0.014593
0.014593
0.014593
0.014593
0.014593
0.014593
0.014593
0.014593
0.014593
0.014593
0.014593
0.014593
0.014593
0.014593
0.014593
0.014593
0.014593
0.014593
0.014593
0.014593
0.014593
0.014593
0.014593
0.014593
0.014593
0.014593
0.014593
0.014593
0.014593
0.014593
0.014593
0.014593
0.014593
0.014593
0.014593
0.014593
0.014593
0.014593
0.014593
0.014593
0.014593
0.014593
0.014593
0.014593
0.014593
0.014593
0.014593
0.014593
0.014593
0.014593
0.014593
0.014593
0.014593
0.014593
0.014593
0.014593
0.014593
0.014593
0.014593
0.014593
0.014593
0.014593
0.014593
0.014593
0.014593
0.014593
0.014593
0.014593
0.014593
0.014593
0.014593
0.014593
0.014593
0.014593
0.014593
0.014593
0.014593
0.014593
0.014593
0.014593
0.014593
0.014593
0.014593
0.014593
0.014593
0.014593
0.014593
0.014593
0.014593
0.014593
0.014593
0.014593
0.014593
0.014593
0.014593
0.014593
0.014593
0.014593
0.014593
0.014593
0.014593
0.014593
0.014593
0.014593
0.014593
0.014593
0.014593
0.014593
0.014593
0.014593
0.014593
0.014593
0.014593
0.014593
0.014593
0.014593
0.014593
0.014593
0.014593
0.014593
0.014593
0.014593
0.014593
0.014593
0.014593
0.014593
0.014593
0.014593
0.014593
0.014593
0.014593
0.014593
0.014593
0.014593
0.014593
0.014593
0.014593
0.014593
0.014593
0.014593
0.014593
0.014593
0.014593
0.014593
0.014593
0.014593
0.014593
0.014593
0.014593
0.014593
0.014593
0.014593
0.014593
0.014593
0.014593
0.014593
0.014593
0.014593
0.014593
0.014593
0.014593
0.014593
0.014593
0.014593
0.014593
0.014593
0.014593
0.014593
0.014593
0.014593
0.014593
0.014593
0.014593
0.014593
0.014593
0.014593
0.014593
0.014593
0.014593
0.014593
0.014593
0.014593
0.014593
0.014593
0.014593
0.014593
0.014593
0.014593
0.014593
0.014593
0.014593
0.014593
0.014593
0.014593
0.014593
0.014593
0.014593
0.014593
0.014593
0.014593
0.014593
0.014593
0.014593
0.014593
0.014593
0.014593
0.014593
0.014593
0.014593
0.014593
0.014593
0.014593
0.014593
0.014593
0.014593
0.014593
0.014593
0.014593
0.014593
0.014593
0.014593
0.014593
0.014593
0.014593
0.014593
0.014593
0.014593
0.014593
0.014593
0.014593
0.014593
0.014593
0.014593
0.014593
0.014593
0.014593
0.014593
0.014593
0.014593
0.014593
0.014593
0.014593
0.014593
0.014593
0.014593
0.014593
0.014593
0.014593
0.014593
0.014593
0.0145931
0.0145931
0.014593
0.014593
0.014593
0.014593
0.014593
0.014593
0.014593
0.014593
0.014593
0.014593
0.014593
0.014593
0.014593
0.014593
0.014593
0.014593
0.014593
0.014593
0.014593
0.014593
0.014593
0.014593
0.014593
0.014593
0.014593
0.014593
0.014593
0.014593
0.014593
0.014593
0.014593
0.014593
0.014593
0.014593
0.014593
0.014593
0.014593
0.014593
0.014593
0.014593
0.014593
0.014593
0.014593
0.014593
0.014593
0.0145931
0.0145931
0.0145932
0.0145934
0.0145937
0.014593
0.014593
0.014593
0.014593
0.014593
0.014593
0.014593
0.014593
0.014593
0.014593
0.014593
0.014593
0.014593
0.014593
0.014593
0.014593
0.014593
0.014593
0.014593
0.014593
0.014593
0.014593
0.014593
0.014593
0.014593
0.014593
0.014593
0.014593
0.014593
0.014593
0.014593
0.014593
0.014593
0.014593
0.014593
0.014593
0.014593
0.014593
0.014593
0.014593
0.014593
0.014593
0.0145931
0.0145931
0.0145932
0.0145934
0.0145937
0.0145942
0.0145952
0.0145972
0.014593
0.014593
0.014593
0.014593
0.014593
0.014593
0.014593
0.014593
0.014593
0.014593
0.014593
0.014593
0.014593
0.014593
0.014593
0.014593
0.014593
0.014593
0.014593
0.014593
0.014593
0.014593
0.014593
0.014593
0.014593
0.014593
0.014593
0.014593
0.014593
0.014593
0.014593
0.014593
0.014593
0.014593
0.014593
0.014593
0.014593
0.014593
0.014593
0.0145931
0.0145931
0.0145932
0.0145934
0.0145937
0.0145942
0.0145951
0.0145968
0.0145999
0.0146058
0.0146173
0.014593
0.014593
0.014593
0.014593
0.014593
0.014593
0.014593
0.014593
0.014593
0.014593
0.014593
0.014593
0.014593
0.014593
0.014593
0.014593
0.014593
0.014593
0.014593
0.014593
0.014593
0.014593
0.014593
0.014593
0.014593
0.014593
0.014593
0.014593
0.014593
0.014593
0.014593
0.014593
0.014593
0.014593
0.014593
0.014593
0.0145931
0.0145931
0.0145932
0.0145934
0.0145937
0.0145942
0.0145951
0.0145968
0.0145997
0.0146051
0.0146148
0.0146325
0.0146652
0.0147288
0.014593
0.014593
0.014593
0.014593
0.014593
0.014593
0.014593
0.014593
0.014593
0.014593
0.014593
0.014593
0.014593
0.014593
0.014593
0.014593
0.014593
0.014593
0.014593
0.014593
0.014593
0.014593
0.014593
0.014593
0.014593
0.014593
0.014593
0.014593
0.014593
0.014593
0.014593
0.014593
0.0145931
0.0145931
0.0145931
0.0145932
0.0145934
0.0145937
0.0145942
0.0145952
0.0145968
0.0145998
0.014605
0.0146143
0.0146309
0.0146608
0.0147145
0.0148113
0.0149867
0.0153133
0.014593
0.014593
0.014593
0.014593
0.014593
0.014593
0.014593
0.014593
0.014593
0.014593
0.014593
0.014593
0.014593
0.014593
0.014593
0.014593
0.014593
0.014593
0.014593
0.014593
0.014593
0.014593
0.014593
0.014593
0.014593
0.014593
0.014593
0.014593
0.014593
0.0145931
0.0145931
0.0145932
0.0145933
0.0145935
0.0145938
0.0145943
0.0145953
0.014597
0.0146
0.0146052
0.0146144
0.0146306
0.0146594
0.0147103
0.0148005
0.0149599
0.0152398
0.0157252
0.0165503
0.0179226
0.014593
0.014593
0.014593
0.014593
0.014593
0.014593
0.014593
0.014593
0.014593
0.014593
0.014593
0.014593
0.014593
0.014593
0.014593
0.014593
0.014593
0.014593
0.014593
0.014593
0.014593
0.014593
0.014593
0.014593
0.014593
0.014593
0.0145931
0.0145931
0.0145932
0.0145933
0.0145935
0.0145939
0.0145945
0.0145955
0.0145973
0.0146004
0.0146058
0.0146151
0.0146314
0.0146598
0.0147095
0.0147964
0.014948
0.0152107
0.01566
0.0164108
0.0176216
0.0194792
0.0221632
0.0257935
0.014593
0.014593
0.014593
0.014593
0.014593
0.014593
0.014593
0.014593
0.014593
0.014593
0.014593
0.014593
0.014593
0.014593
0.014593
0.014593
0.014593
0.014593
0.014593
0.014593
0.014593
0.014593
0.0145931
0.0145931
0.0145931
0.0145932
0.0145934
0.0145936
0.014594
0.0145947
0.0145958
0.0145978
0.0146011
0.0146068
0.0146165
0.0146333
0.0146622
0.0147121
0.0147981
0.0149463
0.0152
0.0156286
0.0163376
0.0174714
0.0192002
0.021684
0.025022
0.0292162
0.0341762
0.0397342
0.014593
0.014593
0.014593
0.014593
0.014593
0.014593
0.014593
0.014593
0.014593
0.014593
0.014593
0.014593
0.014593
0.014593
0.014593
0.014593
0.014593
0.014593
0.014593
0.0145931
0.0145931
0.0145932
0.0145933
0.0145934
0.0145937
0.0145942
0.014595
0.0145962
0.0145984
0.0146021
0.0146082
0.0146187
0.0146364
0.0146666
0.014718
0.0148056
0.0149544
0.0152058
0.0156254
0.0163117
0.0173985
0.0190443
0.0214002
0.0245635
0.0285428
0.0332522
0.0385395
0.0442262
0.0501455
0.0561383
0.014593
0.014593
0.014593
0.014593
0.014593
0.014593
0.014593
0.014593
0.014593
0.014593
0.014593
0.014593
0.014593
0.014593
0.014593
0.0145931
0.0145931
0.0145931
0.0145932
0.0145933
0.0145935
0.0145939
0.0145944
0.0145953
0.0145968
0.0145993
0.0146034
0.0146103
0.0146218
0.0146411
0.0146734
0.0147278
0.0148193
0.0149726
0.0152283
0.0156494
0.0163294
0.0173941
0.0189914
0.0212626
0.0243017
0.0281223
0.0326513
0.0377505
0.0432512
0.0489851
0.0548042
0.060584
0.0662115
0.0716039
0.014593
0.014593
0.014593
0.014593
0.014593
0.014593
0.014593
0.014593
0.014593
0.014593
0.014593
0.014593
0.0145931
0.0145931
0.0145932
0.0145933
0.0145934
0.0145937
0.0145941
0.0145948
0.0145959
0.0145976
0.0146005
0.0146053
0.0146132
0.0146261
0.0146476
0.0146832
0.0147422
0.0148402
0.0150023
0.0152688
0.0157018
0.0163912
0.0174564
0.0190358
0.0212603
0.0242171
0.0279204
0.0323057
0.0372481
0.0425924
0.0481811
0.0538718
0.0595434
0.0650847
0.0704003
0.0754172
0.0800589
0.0842542
0.014593
0.014593
0.014593
0.014593
0.014593
0.014593
0.014593
0.014593
0.0145931
0.0145931
0.0145931
0.0145932
0.0145934
0.0145936
0.0145939
0.0145944
0.0145952
0.0145966
0.0145987
0.0146022
0.0146079
0.0146171
0.0146321
0.0146566
0.0146967
0.0147624
0.01487
0.0150457
0.0153303
0.0157858
0.0165003
0.0175879
0.0191779
0.0213902
0.0243026
0.0279262
0.0322007
0.0370112
0.0422155
0.0476675
0.0532339
0.0588009
0.0642679
0.0695409
0.0745425
0.0792045
0.0834448
0.0871659
0.0902773
0.0927832
0.014593
0.014593
0.014593
0.014593
0.0145931
0.0145931
0.0145931
0.0145932
0.0145933
0.0145935
0.0145938
0.0145942
0.0145949
0.0145959
0.0145976
0.0146003
0.0146046
0.0146114
0.0146225
0.0146402
0.0146689
0.0147153
0.0147903
0.0149113
0.0151061
0.0154171
0.0159072
0.0166632
0.017795
0.019423
0.0216551
0.0245577
0.0281355
0.0323294
0.0370322
0.0421128
0.0474367
0.0528804
0.0583375
0.0637168
0.0689308
0.0739033
0.0785706
0.0828661
0.0867027
0.0899894
0.0926686
0.0947478
0.096285
0.0974049
0.0145931
0.0145931
0.0145931
0.0145932
0.0145933
0.0145934
0.0145937
0.014594
0.0145946
0.0145955
0.0145969
0.0145991
0.0146025
0.0146079
0.0146164
0.01463
0.0146516
0.0146859
0.0147408
0.0148283
0.0149677
0.0151888
0.0155362
0.0160744
0.01689
0.0180886
0.0197814
0.0220631
0.024987
0.0285493
0.0326895
0.0373064
0.0422785
0.047483
0.0528061
0.0581494
0.0634292
0.0685675
0.0734908
0.0781377
0.0824512
0.0863603
0.0897791
0.0926375
0.0949111
0.0966355
0.0978883
0.0987711
0.0993762
0.099798
0.0145932
0.0145933
0.0145934
0.0145936
0.014594
0.0145945
0.0145952
0.0145964
0.0145983
0.0146012
0.0146056
0.0146126
0.0146235
0.0146405
0.0146673
0.0147095
0.0147759
0.0148805
0.0150446
0.0153009
0.015697
0.0162996
0.0171951
0.0184844
0.0202684
0.0226275
0.0256002
0.0291728
0.0332822
0.0378317
0.042709
0.0478022
0.0530075
0.0582349
0.0634076
0.0684567
0.0733132
0.0779179
0.0822191
0.086159
0.0896627
0.0926559
0.0950958
0.0969915
0.0984012
0.0994087
0.100108
0.100581
0.1009
0.101113
0.101256
0.0145939
0.0145944
0.0145951
0.0145962
0.0145979
0.0146004
0.0146043
0.0146102
0.0146194
0.0146335
0.0146555
0.0146896
0.0147425
0.0148247
0.0149524
0.0151498
0.0154529
0.0159132
0.0165995
0.0175979
0.0190031
0.0209046
0.0233664
0.0264116
0.0300156
0.0341125
0.0386095
0.0434031
0.0483916
0.0534818
0.0585919
0.0636517
0.0686
0.0733746
0.0779186
0.0821836
0.0861209
0.0896674
0.0927521
0.095322
0.0973654
0.098918
0.10005
0.100847
0.101394
0.101758
0.101999
0.102154
0.102246
0.102306
0.102361
0.0145961
0.0145977
0.0146
0.0146035
0.0146089
0.014617
0.0146294
0.0146482
0.0146771
0.0147214
0.0147892
0.0148933
0.0150523
0.0152944
0.0156597
0.0162034
0.0169967
0.0181236
0.0196715
0.0217154
0.0243023
0.0274388
0.0310901
0.0351875
0.0396424
0.0443599
0.0492484
0.054225
0.0592161
0.0641584
0.0689969
0.0736769
0.0781447
0.0823538
0.0862617
0.0898163
0.0929534
0.0956156
0.0977767
0.0994537
0.100702
0.101595
0.102214
0.102631
0.102906
0.103083
0.103188
0.103242
0.103283
0.103309
0.103297
0.103265
0.0146084
0.0146159
0.0146273
0.0146443
0.01467
0.0147088
0.0147675
0.0148564
0.0149906
0.0151926
0.0154948
0.0159419
0.0165931
0.0175207
0.0188047
0.0205218
0.0227311
0.0254608
0.0287019
0.0324102
0.0365156
0.0409342
0.0455799
0.0503713
0.0552347
0.0601051
0.0649257
0.0696471
0.0742213
0.0785986
0.0827352
0.0865922
0.090126
0.0932806
0.0959993
0.0982473
0.100026
0.101375
0.102358
0.103049
0.10352
0.103829
0.104028
0.10415
0.10421
0.104241
0.104265
0.104258
0.104224
0.104168
0.104098
0.104026
0.0146669
0.0147026
0.0147559
0.0148354
0.014954
0.0151304
0.0153914
0.0157743
0.0163287
0.0171167
0.0182096
0.0196804
0.0215921
0.0239854
0.02687
0.0302223
0.0339909
0.038106
0.0424896
0.0470644
0.0517585
0.0565078
0.0612548
0.0659493
0.0705468
0.0750054
0.07928
0.0833293
0.0871173
0.0906068
0.0937497
0.0964928
0.0987966
0.100652
0.102083
0.103145
0.103903
0.104424
0.104771
0.104994
0.105131
0.1052
0.105227
0.105241
0.105237
0.105206
0.105149
0.105077
0.104993
0.104906
0.104821
0.10474
0.0149368
0.0150979
0.0153334
0.0156753
0.016166
0.0168595
0.0178186
0.0191104
0.020797
0.0229244
0.025514
0.0285578
0.0320205
0.0358462
0.0399672
0.0443122
0.0488132
0.0534077
0.05804
0.0626601
0.0672238
0.0716914
0.0760262
0.0801875
0.0841368
0.0878404
0.0912658
0.0943719
0.0971103
0.0994405
0.101346
0.10284
0.103966
0.104781
0.10535
0.105734
0.105979
0.106129
0.106211
0.106241
0.106241
0.106235
0.106209
0.106152
0.106076
0.105987
0.105891
0.105794
0.105698
0.105604
0.105511
0.105421
0.0160828
0.0167162
0.0175866
0.0187546
0.0202787
0.0222056
0.0245627
0.027352
0.0305506
0.0341149
0.0379876
0.0421052
0.0464044
0.0508259
0.0553161
0.0598274
0.0643165
0.0687445
0.0730765
0.0772795
0.0813177
0.0851553
0.088761
0.0921057
0.095154
0.0978627
0.100192
0.102122
0.103657
0.104831
0.105694
0.106303
0.106718
0.106986
0.10715
0.107242
0.107274
0.107268
0.107255
0.107228
0.107171
0.107092
0.107001
0.106899
0.106792
0.106686
0.10658
0.106475
0.106371
0.106268
0.106167
0.106067
0.0199909
0.0217756
0.0239591
0.026549
0.0295307
0.0328703
0.0365197
0.0404235
0.0445243
0.0487667
0.0531004
0.05748
0.0618648
0.0662176
0.0705046
0.0746947
0.0787588
0.082665
0.0863804
0.0898761
0.0931257
0.0960984
0.0987561
0.101061
0.102991
0.104545
0.10575
0.106647
0.107288
0.107729
0.108017
0.108193
0.108291
0.108329
0.108321
0.108298
0.108265
0.10821
0.108129
0.108034
0.107926
0.107811
0.107694
0.107579
0.107465
0.10735
0.107236
0.107123
0.10701
0.106898
0.106786
0.106677
0.0289191
0.0320745
0.035532
0.0392434
0.0431577
0.0472244
0.0513968
0.0556323
0.0598932
0.0641451
0.0683559
0.0724961
0.0765384
0.0804569
0.084223
0.0878068
0.0911817
0.0943235
0.0972054
0.0997934
0.102053
0.103961
0.105514
0.10673
0.107647
0.10831
0.108771
0.109074
0.109259
0.109364
0.109406
0.109395
0.109364
0.109322
0.109265
0.109183
0.109083
0.108973
0.108852
0.108726
0.1086
0.108476
0.10835
0.108226
0.108103
0.10798
0.107857
0.107735
0.107612
0.10749
0.107369
0.107249
0.0461883
0.0502019
0.0542892
0.0584154
0.0625489
0.0666606
0.0707231
0.0747105
0.0785989
0.0823652
0.0859838
0.0894272
0.0926714
0.0956943
0.0984719
0.100974
0.103169
0.105036
0.106567
0.107779
0.1087
0.109374
0.109846
0.11016
0.110352
0.11046
0.110503
0.110491
0.110454
0.110402
0.110337
0.110256
0.110152
0.110036
0.109909
0.109776
0.10964
0.109507
0.109373
0.109239
0.109105
0.108972
0.108839
0.108707
0.108574
0.108442
0.10831
0.108177
0.108045
0.107914
0.107784
0.0614407
0.0654375
0.0694014
0.0733088
0.0771372
0.0808656
0.0844734
0.0879373
0.0912325
0.094337
0.097231
0.0998927
0.102295
0.10441
0.106217
0.107709
0.108899
0.109812
0.110484
0.110959
0.111276
0.111472
0.111579
0.111621
0.111608
0.111566
0.111502
0.111431
0.111346
0.111237
0.111115
0.110985
0.110845
0.110701
0.110557
0.110414
0.11027
0.110127
0.109985
0.109843
0.109701
0.109558
0.109416
0.109274
0.109132
0.10899
0.108847
0.108705
0.108563
0.108422
0.108282
0.0761009
0.0797642
0.0833268
0.0867702
0.0900728
0.0932124
0.0961692
0.0989251
0.101461
0.103751
0.105772
0.107504
0.108941
0.110093
0.110983
0.111643
0.112111
0.112426
0.112619
0.112724
0.112762
0.112747
0.112697
0.112626
0.112544
0.112452
0.11234
0.112213
0.112077
0.11193
0.111778
0.111626
0.111474
0.111321
0.111169
0.111017
0.110865
0.110714
0.110562
0.110411
0.11026
0.110108
0.109956
0.109805
0.109653
0.109501
0.109349
0.109197
0.109045
0.108894
0.108744
0.0923776
0.0953548
0.0981564
0.100766
0.103166
0.105335
0.107249
0.108892
0.11026
0.111361
0.112215
0.112852
0.113305
0.113609
0.113796
0.113895
0.113926
0.113906
0.11385
0.11377
0.113676
0.113576
0.113463
0.113327
0.113184
0.113033
0.112873
0.112712
0.112551
0.112389
0.112228
0.112067
0.111907
0.111746
0.111586
0.111425
0.111265
0.111104
0.110943
0.110782
0.110621
0.11046
0.110298
0.110137
0.109975
0.109813
0.109651
0.10949
0.109329
0.109168
0.102742
0.104999
0.107036
0.108833
0.110376
0.111662
0.1127
0.113506
0.11411
0.11454
0.114826
0.115002
0.115091
0.115112
0.115086
0.115024
0.114932
0.114828
0.114719
0.114599
0.114457
0.114307
0.114152
0.113985
0.113815
0.113645
0.113475
0.113304
0.113134
0.112965
0.112796
0.112627
0.112458
0.112288
0.112119
0.111949
0.11178
0.11161
0.111439
0.111269
0.111098
0.110927
0.110756
0.110584
0.110413
0.110241
0.11007
0.109898
0.109728
0.109557
0.110514
0.111948
0.113142
0.114106
0.114856
0.115417
0.115815
0.116078
0.116238
0.116314
0.11632
0.116287
0.116216
0.116113
0.116
0.115881
0.11575
0.115604
0.115447
0.115284
0.115111
0.114933
0.114755
0.114577
0.114398
0.114219
0.114041
0.113863
0.113684
0.113507
0.113329
0.113151
0.112973
0.112795
0.112616
0.112438
0.112258
0.112079
0.111899
0.111719
0.111539
0.111358
0.111177
0.110996
0.110815
0.110633
0.110452
0.110271
0.11009
0.109909
0.115573
0.116257
0.116768
0.117128
0.117363
0.117501
0.117559
0.117552
0.117509
0.117426
0.117313
0.11719
0.117059
0.116918
0.116768
0.116601
0.11643
0.116252
0.116066
0.11588
0.115693
0.115506
0.115318
0.115132
0.114945
0.114759
0.114573
0.114386
0.1142
0.114014
0.113827
0.11364
0.113453
0.113266
0.113078
0.11289
0.112701
0.112513
0.112323
0.112134
0.111944
0.111753
0.111563
0.111372
0.111181
0.110989
0.110798
0.110607
0.110416
0.110226
0.118476
0.118679
0.118791
0.118827
0.118806
0.118748
0.118654
0.118529
0.118395
0.118253
0.118103
0.117945
0.117771
0.117591
0.117407
0.117214
0.117018
0.116824
0.116629
0.116433
0.116238
0.116043
0.115848
0.115653
0.115459
0.115265
0.11507
0.114876
0.114681
0.114485
0.11429
0.114094
0.113898
0.113701
0.113504
0.113307
0.113109
0.11291
0.112712
0.112512
0.112313
0.112113
0.111912
0.111712
0.111511
0.11131
0.111108
0.110907
0.110707
0.110506
0.120115
0.12008
0.120006
0.119897
0.119761
0.119615
0.119463
0.119302
0.119134
0.118954
0.118765
0.118574
0.118375
0.118171
0.117968
0.117765
0.117561
0.117357
0.117155
0.116952
0.116749
0.116546
0.116344
0.116141
0.115939
0.115736
0.115533
0.11533
0.115126
0.114922
0.114717
0.114512
0.114307
0.114101
0.113895
0.113688
0.113481
0.113273
0.113064
0.112856
0.112646
0.112436
0.112226
0.112016
0.111805
0.111594
0.111383
0.111172
0.110961
0.11075
0.121155
0.121008
0.12085
0.120687
0.120514
0.120337
0.12015
0.119952
0.119752
0.119547
0.119336
0.119124
0.118914
0.118702
0.11849
0.118279
0.118068
0.117857
0.117647
0.117437
0.117227
0.117016
0.116806
0.116595
0.116384
0.116173
0.115961
0.115749
0.115536
0.115323
0.11511
0.114896
0.114681
0.114466
0.11425
0.114034
0.113817
0.1136
0.113382
0.113163
0.112944
0.112725
0.112505
0.112284
0.112064
0.111843
0.111622
0.1114
0.11118
0.110958
0.12174
0.121552
0.121356
0.121151
0.120942
0.12073
0.120512
0.120292
0.120074
0.119855
0.119634
0.119416
0.119198
0.118979
0.118761
0.118543
0.118325
0.118107
0.117889
0.11767
0.117452
0.117233
0.117014
0.116794
0.116575
0.116354
0.116133
0.115912
0.11569
0.115467
0.115244
0.11502
0.114796
0.114571
0.114345
0.114119
0.113892
0.113664
0.113436
0.113207
0.112978
0.112748
0.112518
0.112287
0.112056
0.111825
0.111593
0.111362
0.111131
0.12236
0.122143
0.121923
0.121698
0.12147
0.121244
0.121018
0.12079
0.120564
0.120338
0.120111
0.119886
0.119661
0.119435
0.11921
0.118984
0.118758
0.118533
0.118307
0.11808
0.117853
0.117626
0.117399
0.117171
0.116942
0.116713
0.116483
0.116253
0.116022
0.11579
0.115558
0.115325
0.115091
0.114857
0.114621
0.114386
0.114149
0.113912
0.113674
0.113435
0.113196
0.112956
0.112715
0.112475
0.112234
0.111992
0.111751
0.11151
0.111268
0.122893
0.122658
0.122424
0.122191
0.121955
0.121722
0.121488
0.121255
0.121021
0.120789
0.120556
0.120323
0.120091
0.119858
0.119625
0.119392
0.119158
0.118925
0.11869
0.118456
0.118221
0.117985
0.117749
0.117513
0.117275
0.117037
0.116799
0.11656
0.116319
0.116079
0.115837
0.115595
0.115352
0.115108
0.114863
0.114617
0.114371
0.114124
0.113876
0.113628
0.113378
0.113129
0.112878
0.112627
0.112376
0.112125
0.111873
0.111622
0.11137
0.12313
0.122888
0.122648
0.122407
0.122167
0.121927
0.121687
0.121447
0.121208
0.120968
0.120728
0.120488
0.120248
0.120007
0.119766
0.119525
0.119283
0.119041
0.118798
0.118554
0.11831
0.118066
0.11782
0.117574
0.117328
0.11708
0.116832
0.116583
0.116333
0.116082
0.11583
0.115577
0.115324
0.11507
0.114814
0.114558
0.114301
0.114044
0.113785
0.113526
0.113266
0.113006
0.112745
0.112484
0.112222
0.111961
0.111699
0.111437
0.123568
0.12332
0.123074
0.122827
0.12258
0.122334
0.122087
0.121841
0.121594
0.121347
0.1211
0.120852
0.120604
0.120356
0.120107
0.119858
0.119608
0.119357
0.119106
0.118854
0.118602
0.118348
0.118094
0.117839
0.117584
0.117327
0.11707
0.116812
0.116552
0.116292
0.116031
0.115769
0.115506
0.115242
0.114977
0.114711
0.114444
0.114177
0.113908
0.113639
0.113369
0.113099
0.112828
0.112557
0.112285
0.112013
0.111741
0.111468
0.123721
0.123468
0.123215
0.122962
0.122709
0.122455
0.122201
0.121947
0.121693
0.121438
0.121183
0.120927
0.120671
0.120414
0.120157
0.119899
0.11964
0.119381
0.11912
0.118859
0.118597
0.118334
0.118071
0.117806
0.11754
0.117274
0.117006
0.116738
0.116468
0.116198
0.115926
0.115653
0.11538
0.115105
0.114829
0.114553
0.114275
0.113997
0.113718
0.113438
0.113157
0.112876
0.112594
0.112313
0.112031
0.11175
0.111468
0.12409
0.123831
0.123571
0.123311
0.123051
0.12279
0.122529
0.122268
0.122006
0.121744
0.121481
0.121218
0.120953
0.120689
0.120423
0.120157
0.11989
0.119622
0.119353
0.119083
0.118812
0.118541
0.118268
0.117994
0.11772
0.117444
0.117167