/*--------------------------------*- C++ -*----------------------------------*\
| =========                 |                                                 |
| \\      /  F ield         | OpenFOAM: The Open Source CFD Toolbox           |
|  \\    /   O peration     | Version:  v1706                                 |
|   \\  /    A nd           | Web:      www.OpenFOAM.com                      |
|    \\/     M anipulation  |                                                 |
\*---------------------------------------------------------------------------*/
FoamFile
{
    version     2.0;
    format      ascii;
    class       volScalarField;
    location    "1e-05";
    object      kappave;
}
// * * * * * * * * * * * * * * * * * * * * * * * * * * * * * * * * * * * * * //

dimensions      [1 1 -3 -1 0 0 0];


internalField   nonuniform List<scalar> 
30038
(
1.46038e-10
1.46038e-10
1.46038e-10
1.46038e-10
1.46038e-10
1.46038e-10
1.46038e-10
1.46038e-10
1.46038e-10
1.46038e-10
1.46038e-10
1.46038e-10
1.46038e-10
1.46038e-10
1.46038e-10
1.46038e-10
1.46038e-10
1.46038e-10
1.46038e-10
1.46038e-10
1.46038e-10
1.46038e-10
1.46038e-10
1.46038e-10
1.46038e-10
1.46038e-10
1.46038e-10
1.46038e-10
1.46038e-10
1.46038e-10
1.46038e-10
1.46038e-10
1.46038e-10
1.46038e-10
1.46038e-10
1.46038e-10
1.46038e-10
1.46038e-10
1.46038e-10
1.46038e-10
1.46038e-10
1.46038e-10
1.46038e-10
1.46038e-10
1.46038e-10
1.46038e-10
1.46038e-10
1.46038e-10
1.46038e-10
1.46038e-10
1.46038e-10
1.46038e-10
1.46038e-10
1.46038e-10
1.46038e-10
1.46038e-10
1.46038e-10
1.46038e-10
1.46038e-10
1.46038e-10
1.46038e-10
1.46038e-10
1.46038e-10
1.46038e-10
1.46038e-10
1.46038e-10
1.46038e-10
1.46038e-10
1.46038e-10
1.46038e-10
1.46038e-10
1.46038e-10
1.46038e-10
1.46038e-10
1.46038e-10
1.46038e-10
1.46038e-10
1.46038e-10
1.46038e-10
1.46038e-10
1.46038e-10
1.46038e-10
1.46038e-10
1.46038e-10
1.46038e-10
1.46038e-10
1.46038e-10
1.46038e-10
1.46038e-10
1.46038e-10
1.46038e-10
1.46038e-10
1.46038e-10
1.46038e-10
1.46038e-10
1.46038e-10
1.46038e-10
1.46038e-10
1.46038e-10
1.46038e-10
1.46038e-10
1.46038e-10
1.46038e-10
1.46038e-10
1.46038e-10
1.46038e-10
1.46038e-10
1.46038e-10
1.46038e-10
1.46038e-10
1.46038e-10
1.46038e-10
1.46038e-10
1.46038e-10
1.46038e-10
1.46038e-10
1.46038e-10
1.46038e-10
1.46038e-10
1.46038e-10
1.46038e-10
1.46038e-10
1.46038e-10
1.46038e-10
1.46038e-10
1.46038e-10
1.46038e-10
1.46038e-10
1.46038e-10
1.46038e-10
1.46038e-10
1.46038e-10
1.46038e-10
1.46038e-10
1.46038e-10
1.46038e-10
1.46038e-10
1.46038e-10
1.46038e-10
1.46038e-10
1.46038e-10
1.46038e-10
1.46038e-10
1.46038e-10
1.46038e-10
1.46038e-10
1.46038e-10
1.46038e-10
1.46038e-10
1.46038e-10
1.46038e-10
1.46038e-10
1.46038e-10
1.46038e-10
1.46038e-10
1.46038e-10
1.46038e-10
1.46038e-10
1.46038e-10
1.46038e-10
1.46038e-10
1.46038e-10
1.46038e-10
1.46038e-10
1.46038e-10
1.46038e-10
1.46038e-10
1.46038e-10
1.46038e-10
1.46038e-10
1.46038e-10
1.46038e-10
1.46038e-10
1.46038e-10
1.46038e-10
1.46038e-10
1.46038e-10
1.46038e-10
1.46038e-10
1.46038e-10
1.46038e-10
1.46038e-10
1.46038e-10
1.46038e-10
1.46038e-10
1.46038e-10
1.46038e-10
1.46038e-10
1.46038e-10
1.46038e-10
1.46038e-10
1.46038e-10
1.46038e-10
1.46038e-10
1.46038e-10
1.46038e-10
1.46038e-10
1.46038e-10
1.46038e-10
1.46038e-10
1.46038e-10
1.46038e-10
1.46038e-10
1.46038e-10
1.46038e-10
1.46038e-10
1.46038e-10
1.46038e-10
1.46038e-10
1.46038e-10
1.46038e-10
1.46038e-10
1.46038e-10
1.46038e-10
1.46038e-10
1.46038e-10
1.46038e-10
1.46038e-10
1.46038e-10
1.46038e-10
1.46038e-10
1.46038e-10
1.46038e-10
1.46038e-10
1.46038e-10
1.46038e-10
1.46038e-10
1.46038e-10
1.46038e-10
1.46038e-10
1.46038e-10
1.46038e-10
1.46038e-10
1.46038e-10
1.46038e-10
1.46038e-10
1.46038e-10
1.46038e-10
1.46038e-10
1.46038e-10
1.46038e-10
1.46038e-10
1.46038e-10
1.46038e-10
1.46038e-10
1.46038e-10
1.46038e-10
1.46038e-10
1.46038e-10
1.46038e-10
1.46038e-10
1.46038e-10
1.46038e-10
1.46038e-10
1.46038e-10
1.46038e-10
1.46038e-10
1.46038e-10
1.46038e-10
1.46038e-10
1.46038e-10
1.46038e-10
1.46038e-10
1.46038e-10
1.46038e-10
1.46038e-10
1.46038e-10
1.46038e-10
1.46038e-10
1.46038e-10
1.46038e-10
1.46038e-10
1.46038e-10
1.46038e-10
1.46038e-10
1.46038e-10
1.46038e-10
1.46038e-10
1.46038e-10
1.46038e-10
1.46038e-10
1.46038e-10
1.46038e-10
1.46038e-10
1.46038e-10
1.46038e-10
1.46038e-10
1.46038e-10
1.46038e-10
1.46038e-10
1.46038e-10
1.46038e-10
1.46038e-10
1.46038e-10
1.46038e-10
1.46038e-10
1.46038e-10
1.46038e-10
1.46038e-10
1.46038e-10
1.46038e-10
1.46038e-10
1.46038e-10
1.46038e-10
1.46038e-10
1.46038e-10
1.46038e-10
1.46038e-10
1.46038e-10
1.46038e-10
1.46038e-10
1.46038e-10
1.46038e-10
1.46038e-10
1.46038e-10
1.46038e-10
1.46038e-10
1.46038e-10
1.46038e-10
1.46038e-10
1.46038e-10
1.46038e-10
1.46038e-10
1.46038e-10
1.46038e-10
1.46038e-10
1.46038e-10
1.46038e-10
1.46038e-10
1.46038e-10
1.46038e-10
1.46038e-10
1.46038e-10
1.46038e-10
1.46038e-10
1.46038e-10
1.46038e-10
1.46038e-10
1.46038e-10
1.46038e-10
1.46038e-10
1.46038e-10
1.46038e-10
1.46038e-10
1.46038e-10
1.46038e-10
1.46038e-10
1.46038e-10
1.46038e-10
1.46038e-10
1.46038e-10
1.46038e-10
1.46038e-10
1.46038e-10
1.46038e-10
1.46038e-10
1.46038e-10
1.46038e-10
1.46038e-10
1.46038e-10
1.46038e-10
1.46038e-10
1.46038e-10
1.46038e-10
1.46038e-10
1.46038e-10
1.46038e-10
1.46038e-10
1.46038e-10
1.46038e-10
1.46038e-10
1.46038e-10
1.46038e-10
1.46038e-10
1.46038e-10
1.46038e-10
1.46038e-10
1.46038e-10
1.46038e-10
1.46038e-10
1.46038e-10
1.46038e-10
1.46038e-10
1.46038e-10
1.46038e-10
1.46038e-10
1.46038e-10
1.46038e-10
1.46038e-10
1.46038e-10
1.46038e-10
1.46038e-10
1.46038e-10
1.46038e-10
1.46038e-10
1.46038e-10
1.46038e-10
1.46038e-10
1.46038e-10
1.46038e-10
1.46038e-10
1.46038e-10
1.46038e-10
1.46038e-10
1.46038e-10
1.46038e-10
1.46038e-10
1.46038e-10
1.46038e-10
1.46038e-10
1.46038e-10
1.46038e-10
1.46038e-10
1.46038e-10
1.46038e-10
1.46038e-10
1.46038e-10
1.46038e-10
1.46038e-10
1.46038e-10
1.46038e-10
1.46038e-10
1.46038e-10
1.46038e-10
1.46038e-10
1.46038e-10
1.46038e-10
1.46038e-10
1.46038e-10
1.46038e-10
1.46038e-10
1.46038e-10
1.46038e-10
1.46038e-10
1.46038e-10
1.46038e-10
1.46038e-10
1.46038e-10
1.46038e-10
1.46038e-10
1.46038e-10
1.46038e-10
1.46038e-10
1.46038e-10
1.46038e-10
1.46038e-10
1.46038e-10
1.46038e-10
1.46038e-10
1.46038e-10
1.46038e-10
1.46038e-10
1.46038e-10
1.46038e-10
1.46038e-10
1.46038e-10
1.46038e-10
1.46038e-10
1.46038e-10
1.46038e-10
1.46038e-10
1.46038e-10
1.46038e-10
1.46038e-10
1.46038e-10
1.46038e-10
1.46038e-10
1.46038e-10
1.46038e-10
1.46038e-10
1.46038e-10
1.46038e-10
1.46038e-10
1.46038e-10
1.46038e-10
1.46038e-10
1.46038e-10
1.46038e-10
1.46038e-10
1.46038e-10
1.46038e-10
1.46038e-10
1.46038e-10
1.46038e-10
1.46038e-10
1.46038e-10
1.46038e-10
1.46038e-10
1.46038e-10
1.46038e-10
1.46038e-10
1.46038e-10
1.46038e-10
1.46038e-10
1.46038e-10
1.46038e-10
1.46038e-10
1.46038e-10
1.46038e-10
1.46038e-10
1.46038e-10
1.46038e-10
1.46038e-10
1.46038e-10
1.46038e-10
1.46038e-10
1.46038e-10
1.46038e-10
1.46038e-10
1.46038e-10
1.46038e-10
1.46038e-10
1.46038e-10
1.46038e-10
1.46038e-10
1.46038e-10
1.46038e-10
1.46038e-10
1.46038e-10
1.46038e-10
1.46038e-10
1.46038e-10
1.46038e-10
1.46038e-10
1.46038e-10
1.46038e-10
1.46038e-10
1.46038e-10
1.46038e-10
1.46038e-10
1.46038e-10
1.46038e-10
1.46038e-10
1.46038e-10
1.46038e-10
1.46038e-10
1.46038e-10
1.46038e-10
1.46038e-10
1.46038e-10
1.46038e-10
1.46038e-10
1.46038e-10
1.46038e-10
1.46038e-10
1.46038e-10
1.46038e-10
1.46038e-10
1.46038e-10
1.46038e-10
1.46038e-10
1.46038e-10
1.46038e-10
1.46038e-10
1.46038e-10
1.46038e-10
1.46038e-10
1.46038e-10
1.46038e-10
1.46038e-10
1.46038e-10
1.46038e-10
1.46038e-10
1.46038e-10
1.46038e-10
1.46038e-10
1.46038e-10
1.46038e-10
1.46038e-10
1.46038e-10
1.46038e-10
1.46038e-10
1.46038e-10
1.46038e-10
1.46038e-10
1.46038e-10
1.46038e-10
1.46038e-10
1.46038e-10
1.46038e-10
1.46038e-10
1.46038e-10
1.46038e-10
1.46038e-10
1.46038e-10
1.46038e-10
1.46038e-10
1.46038e-10
1.46038e-10
1.46038e-10
1.46038e-10
1.46038e-10
1.46038e-10
1.46038e-10
1.46038e-10
1.46038e-10
1.46038e-10
1.46038e-10
1.46038e-10
1.46038e-10
1.46038e-10
1.46038e-10
1.46038e-10
1.46038e-10
1.46038e-10
1.46038e-10
1.46038e-10
1.46038e-10
1.46038e-10
1.46038e-10
1.46038e-10
1.46038e-10
1.46038e-10
1.46038e-10
1.46038e-10
1.46038e-10
1.46038e-10
1.46038e-10
1.46038e-10
1.46038e-10
1.46038e-10
1.46038e-10
1.46038e-10
1.46038e-10
1.46038e-10
1.46038e-10
1.46038e-10
1.46038e-10
1.46038e-10
1.46038e-10
1.46038e-10
1.46038e-10
1.46038e-10
1.46038e-10
1.46038e-10
1.46038e-10
1.46038e-10
1.46038e-10
1.46038e-10
1.46038e-10
1.46038e-10
1.46038e-10
1.46038e-10
1.46038e-10
1.46038e-10
1.46038e-10
1.46038e-10
1.46038e-10
1.46038e-10
1.46038e-10
1.46038e-10
1.46038e-10
1.46038e-10
1.46038e-10
1.46038e-10
1.46038e-10
1.46038e-10
1.46038e-10
1.46038e-10
1.46038e-10
1.46038e-10
1.46038e-10
1.46038e-10
1.46038e-10
1.46038e-10
1.46038e-10
1.46038e-10
1.46038e-10
1.46038e-10
1.46038e-10
1.46038e-10
1.46038e-10
1.46038e-10
1.46038e-10
1.46038e-10
1.46038e-10
1.46038e-10
1.46038e-10
1.46038e-10
1.46038e-10
1.46038e-10
1.46038e-10
1.46038e-10
1.46038e-10
1.46038e-10
1.46038e-10
1.46038e-10
1.46038e-10
1.46038e-10
1.46038e-10
1.46038e-10
1.46038e-10
1.46038e-10
1.46038e-10
1.46038e-10
1.46038e-10
1.46038e-10
1.46038e-10
1.46038e-10
1.46038e-10
1.46038e-10
1.46038e-10
1.46038e-10
1.46038e-10
1.46038e-10
1.46038e-10
1.46038e-10
1.46038e-10
1.46038e-10
1.46038e-10
1.46038e-10
1.46038e-10
1.46038e-10
1.46038e-10
1.46038e-10
1.46038e-10
1.46038e-10
1.46038e-10
1.46038e-10
1.46038e-10
1.46038e-10
1.46038e-10
1.46038e-10
1.46038e-10
1.46038e-10
1.46038e-10
1.46038e-10
1.46038e-10
1.46038e-10
1.46038e-10
1.46038e-10
1.46038e-10
1.46038e-10
1.46038e-10
1.46038e-10
1.46038e-10
1.46038e-10
1.46038e-10
1.46038e-10
1.46038e-10
1.46038e-10
1.46038e-10
1.46038e-10
1.46038e-10
1.46038e-10
1.46038e-10
1.46038e-10
1.46038e-10
1.46038e-10
1.46038e-10
1.46038e-10
1.46038e-10
1.46038e-10
1.46038e-10
1.46038e-10
1.46038e-10
1.46038e-10
1.46038e-10
1.46038e-10
1.46038e-10
1.46038e-10
1.46038e-10
1.46038e-10
1.46038e-10
1.46038e-10
1.46038e-10
1.46038e-10
1.46038e-10
1.46038e-10
1.46038e-10
1.46038e-10
1.46038e-10
1.46038e-10
1.46038e-10
1.46038e-10
1.46038e-10
1.46038e-10
1.46038e-10
1.46038e-10
1.46038e-10
1.46038e-10
1.46038e-10
1.46038e-10
1.46038e-10
1.46038e-10
1.46038e-10
1.46038e-10
1.46038e-10
1.46038e-10
1.46038e-10
1.46038e-10
1.46038e-10
1.46038e-10
1.46038e-10
1.46038e-10
1.46038e-10
1.46038e-10
1.46038e-10
1.46038e-10
1.46038e-10
1.46038e-10
1.46038e-10
1.46038e-10
1.46038e-10
1.46038e-10
1.46038e-10
1.46038e-10
1.46038e-10
1.46038e-10
1.46038e-10
1.46038e-10
1.46038e-10
1.46038e-10
1.46038e-10
1.46038e-10
1.46038e-10
1.46038e-10
1.46038e-10
1.46038e-10
1.46038e-10
1.46038e-10
1.46038e-10
1.46038e-10
1.46038e-10
1.46038e-10
1.46038e-10
1.46038e-10
1.46038e-10
1.46038e-10
1.46038e-10
1.46038e-10
1.46038e-10
1.46038e-10
1.46038e-10
1.46038e-10
1.46038e-10
1.46038e-10
1.46038e-10
1.46038e-10
1.46038e-10
1.46038e-10
1.46038e-10
1.46038e-10
1.46038e-10
1.46038e-10
1.46038e-10
1.46038e-10
1.46038e-10
1.46038e-10
1.46038e-10
1.46038e-10
1.46038e-10
1.46038e-10
1.46038e-10
1.46038e-10
1.46038e-10
1.46038e-10
1.46038e-10
1.46038e-10
1.46038e-10
1.46038e-10
1.46038e-10
1.46038e-10
1.46038e-10
1.46038e-10
1.46038e-10
1.46038e-10
1.46038e-10
1.46038e-10
1.46038e-10
1.46038e-10
1.46038e-10
1.46038e-10
1.46038e-10
1.46038e-10
1.46038e-10
1.46038e-10
1.46038e-10
1.46038e-10
1.46038e-10
1.46038e-10
1.46038e-10
1.46038e-10
1.46038e-10
1.46038e-10
1.46038e-10
1.46038e-10
1.46038e-10
1.46038e-10
1.46038e-10
1.46038e-10
1.46038e-10
1.46038e-10
1.46038e-10
1.46038e-10
1.46038e-10
1.46038e-10
1.46038e-10
1.46038e-10
1.46038e-10
1.46038e-10
1.46038e-10
1.46038e-10
1.46038e-10
1.46038e-10
1.46038e-10
1.46038e-10
1.46038e-10
1.46038e-10
1.46038e-10
1.46038e-10
1.46038e-10
1.46038e-10
1.46038e-10
1.46038e-10
1.46038e-10
1.46038e-10
1.46038e-10
1.46038e-10
1.46038e-10
1.46038e-10
1.46038e-10
1.46038e-10
1.46038e-10
1.46038e-10
1.46038e-10
1.46038e-10
1.46038e-10
1.46038e-10
1.46038e-10
1.46038e-10
1.46038e-10
1.46038e-10
1.46038e-10
1.46038e-10
1.46038e-10
1.46038e-10
1.46038e-10
1.46038e-10
1.46038e-10
1.46038e-10
1.46038e-10
1.46038e-10
1.46038e-10
1.46038e-10
1.46038e-10
1.46038e-10
1.46038e-10
1.46038e-10
1.46038e-10
1.46038e-10
1.46038e-10
1.46038e-10
1.46038e-10
1.46038e-10
1.46038e-10
1.46038e-10
1.46038e-10
1.46038e-10
1.46038e-10
1.46038e-10
1.46038e-10
1.46038e-10
1.46038e-10
1.46038e-10
1.46038e-10
1.46038e-10
1.46038e-10
1.46038e-10
1.46038e-10
1.46038e-10
1.46038e-10
1.46038e-10
1.46038e-10
1.46038e-10
1.46038e-10
1.46038e-10
1.46038e-10
1.46038e-10
1.46038e-10
1.46038e-10
1.46038e-10
1.46038e-10
1.46038e-10
1.46038e-10
1.46038e-10
1.46038e-10
1.46038e-10
1.46038e-10
1.46038e-10
1.46038e-10
1.46038e-10
1.46038e-10
1.46038e-10
1.46038e-10
1.46038e-10
1.46038e-10
1.46038e-10
1.46038e-10
1.46038e-10
1.46038e-10
1.46038e-10
1.46038e-10
1.46038e-10
1.46038e-10
1.46038e-10
1.46038e-10
1.46038e-10
1.46038e-10
1.46038e-10
1.46038e-10
1.46038e-10
1.46038e-10
1.46038e-10
1.46038e-10
1.46038e-10
1.46038e-10
1.46038e-10
1.46038e-10
1.46038e-10
1.46038e-10
1.46038e-10
1.46038e-10
1.46038e-10
1.46038e-10
1.46038e-10
1.46038e-10
1.46038e-10
1.46038e-10
1.46038e-10
1.46038e-10
1.46038e-10
1.46038e-10
1.46038e-10
1.46038e-10
1.46038e-10
1.46038e-10
1.46038e-10
1.46038e-10
1.46038e-10
1.46038e-10
1.46038e-10
1.46038e-10
1.46038e-10
1.46038e-10
1.46038e-10
1.46038e-10
1.46038e-10
1.46038e-10
1.46038e-10
1.46038e-10
1.46038e-10
1.46038e-10
1.46038e-10
1.46038e-10
1.46038e-10
1.46038e-10
1.46038e-10
1.46038e-10
1.46038e-10
1.46038e-10
1.46038e-10
1.46038e-10
1.46038e-10
1.46038e-10
1.46038e-10
1.46038e-10
1.46038e-10
1.46038e-10
1.46038e-10
1.46038e-10
1.46038e-10
1.46038e-10
1.46038e-10
1.46038e-10
1.46038e-10
1.46038e-10
1.46038e-10
1.46038e-10
1.46038e-10
1.46038e-10
1.46038e-10
1.46038e-10
1.46038e-10
1.46038e-10
1.46038e-10
1.46038e-10
1.46038e-10
1.46038e-10
1.46038e-10
1.46038e-10
1.46038e-10
1.46038e-10
1.46038e-10
1.46038e-10
1.46038e-10
1.46038e-10
1.46038e-10
1.46038e-10
1.46038e-10
1.46038e-10
1.46038e-10
1.46038e-10
1.46038e-10
1.46038e-10
1.46038e-10
1.46038e-10
1.46038e-10
1.46038e-10
1.46038e-10
1.46038e-10
1.46038e-10
1.46038e-10
1.46038e-10
1.46038e-10
1.46038e-10
1.46038e-10
1.46038e-10
1.46038e-10
1.46038e-10
1.46038e-10
1.46038e-10
1.46038e-10
1.46038e-10
1.46038e-10
1.46038e-10
1.46038e-10
1.46038e-10
1.46038e-10
1.46038e-10
1.46038e-10
1.46038e-10
1.46038e-10
1.46038e-10
1.46038e-10
1.46038e-10
1.46038e-10
1.46038e-10
1.46038e-10
1.46038e-10
1.46039e-10
1.46041e-10
1.46038e-10
1.46038e-10
1.46038e-10
1.46038e-10
1.46038e-10
1.46038e-10
1.46038e-10
1.46038e-10
1.46038e-10
1.46038e-10
1.46038e-10
1.46038e-10
1.46038e-10
1.46038e-10
1.46038e-10
1.46038e-10
1.46038e-10
1.46038e-10
1.46038e-10
1.46038e-10
1.46038e-10
1.46038e-10
1.46038e-10
1.46038e-10
1.46038e-10
1.46038e-10
1.46038e-10
1.46038e-10
1.46038e-10
1.46038e-10
1.46038e-10
1.46038e-10
1.46038e-10
1.46038e-10
1.46038e-10
1.46038e-10
1.46038e-10
1.46038e-10
1.46038e-10
1.46038e-10
1.46038e-10
1.46038e-10
1.46038e-10
1.46038e-10
1.46038e-10
1.46039e-10
1.4604e-10
1.46043e-10
1.46049e-10
1.46066e-10
1.46038e-10
1.46038e-10
1.46038e-10
1.46038e-10
1.46038e-10
1.46038e-10
1.46038e-10
1.46038e-10
1.46038e-10
1.46038e-10
1.46038e-10
1.46038e-10
1.46038e-10
1.46038e-10
1.46038e-10
1.46038e-10
1.46038e-10
1.46038e-10
1.46038e-10
1.46038e-10
1.46038e-10
1.46038e-10
1.46038e-10
1.46038e-10
1.46038e-10
1.46038e-10
1.46038e-10
1.46038e-10
1.46038e-10
1.46038e-10
1.46038e-10
1.46038e-10
1.46038e-10
1.46038e-10
1.46038e-10
1.46038e-10
1.46038e-10
1.46038e-10
1.46038e-10
1.46038e-10
1.46038e-10
1.46038e-10
1.46039e-10
1.4604e-10
1.46043e-10
1.46049e-10
1.46062e-10
1.4609e-10
1.46151e-10
1.46311e-10
1.46038e-10
1.46038e-10
1.46038e-10
1.46038e-10
1.46038e-10
1.46038e-10
1.46038e-10
1.46038e-10
1.46038e-10
1.46038e-10
1.46038e-10
1.46038e-10
1.46038e-10
1.46038e-10
1.46038e-10
1.46038e-10
1.46038e-10
1.46038e-10
1.46038e-10
1.46038e-10
1.46038e-10
1.46038e-10
1.46038e-10
1.46038e-10
1.46038e-10
1.46038e-10
1.46038e-10
1.46038e-10
1.46038e-10
1.46038e-10
1.46038e-10
1.46038e-10
1.46038e-10
1.46038e-10
1.46038e-10
1.46038e-10
1.46038e-10
1.46038e-10
1.46038e-10
1.46039e-10
1.46041e-10
1.46044e-10
1.46051e-10
1.46064e-10
1.46093e-10
1.46152e-10
1.46278e-10
1.46546e-10
1.47136e-10
1.48656e-10
1.46038e-10
1.46038e-10
1.46038e-10
1.46038e-10
1.46038e-10
1.46038e-10
1.46038e-10
1.46038e-10
1.46038e-10
1.46038e-10
1.46038e-10
1.46038e-10
1.46038e-10
1.46038e-10
1.46038e-10
1.46038e-10
1.46038e-10
1.46038e-10
1.46038e-10
1.46038e-10
1.46038e-10
1.46038e-10
1.46038e-10
1.46038e-10
1.46038e-10
1.46038e-10
1.46038e-10
1.46038e-10
1.46038e-10
1.46038e-10
1.46038e-10
1.46038e-10
1.46038e-10
1.46038e-10
1.46038e-10
1.46039e-10
1.4604e-10
1.46041e-10
1.46045e-10
1.46052e-10
1.46067e-10
1.46098e-10
1.46162e-10
1.46293e-10
1.46567e-10
1.47139e-10
1.48343e-10
1.50898e-10
1.56474e-10
1.70445e-10
1.46038e-10
1.46038e-10
1.46038e-10
1.46038e-10
1.46038e-10
1.46038e-10
1.46038e-10
1.46038e-10
1.46038e-10
1.46038e-10
1.46038e-10
1.46038e-10
1.46038e-10
1.46038e-10
1.46038e-10
1.46038e-10
1.46038e-10
1.46038e-10
1.46038e-10
1.46038e-10
1.46038e-10
1.46038e-10
1.46038e-10
1.46038e-10
1.46038e-10
1.46038e-10
1.46038e-10
1.46038e-10
1.46038e-10
1.46038e-10
1.46038e-10
1.46038e-10
1.46039e-10
1.4604e-10
1.46042e-10
1.46046e-10
1.46055e-10
1.46072e-10
1.46107e-10
1.46177e-10
1.4632e-10
1.46612e-10
1.47212e-10
1.48453e-10
1.51029e-10
1.56395e-10
1.67613e-10
1.91149e-10
2.41342e-10
3.60447e-10
1.46038e-10
1.46038e-10
1.46038e-10
1.46038e-10
1.46038e-10
1.46038e-10
1.46038e-10
1.46038e-10
1.46038e-10
1.46038e-10
1.46038e-10
1.46038e-10
1.46038e-10
1.46038e-10
1.46038e-10
1.46038e-10
1.46038e-10
1.46038e-10
1.46038e-10
1.46038e-10
1.46038e-10
1.46038e-10
1.46038e-10
1.46038e-10
1.46038e-10
1.46038e-10
1.46038e-10
1.46038e-10
1.46038e-10
1.46039e-10
1.46041e-10
1.46043e-10
1.46048e-10
1.46059e-10
1.46079e-10
1.46119e-10
1.46199e-10
1.4636e-10
1.46683e-10
1.47337e-10
1.48664e-10
1.51373e-10
1.56919e-10
1.68305e-10
1.9169e-10
2.39607e-10
3.37326e-10
5.35805e-10
9.42537e-10
1.84717e-09
1.46038e-10
1.46038e-10
1.46038e-10
1.46038e-10
1.46038e-10
1.46038e-10
1.46038e-10
1.46038e-10
1.46038e-10
1.46038e-10
1.46038e-10
1.46038e-10
1.46038e-10
1.46038e-10
1.46038e-10
1.46038e-10
1.46038e-10
1.46038e-10
1.46038e-10
1.46038e-10
1.46038e-10
1.46038e-10
1.46038e-10
1.46038e-10
1.46038e-10
1.46039e-10
1.4604e-10
1.46041e-10
1.46045e-10
1.46052e-10
1.46064e-10
1.46089e-10
1.46137e-10
1.46232e-10
1.46419e-10
1.46789e-10
1.47526e-10
1.48997e-10
1.51949e-10
1.57892e-10
1.69885e-10
1.94094e-10
2.42837e-10
3.40465e-10
5.34789e-10
9.19859e-10
1.68257e-09
3.20091e-09
6.26935e-09
1.28095e-08
1.46038e-10
1.46038e-10
1.46038e-10
1.46038e-10
1.46038e-10
1.46038e-10
1.46038e-10
1.46038e-10
1.46038e-10
1.46038e-10
1.46038e-10
1.46038e-10
1.46038e-10
1.46038e-10
1.46038e-10
1.46038e-10
1.46038e-10
1.46038e-10
1.46038e-10
1.46038e-10
1.46038e-10
1.46039e-10
1.46039e-10
1.4604e-10
1.46043e-10
1.46047e-10
1.46056e-10
1.46072e-10
1.46104e-10
1.46164e-10
1.4628e-10
1.46505e-10
1.46944e-10
1.47802e-10
1.49489e-10
1.52819e-10
1.59413e-10
1.72495e-10
1.9845e-10
2.49806e-10
3.50904e-10
5.48745e-10
9.34248e-10
1.6847e-09
3.14949e-09
6.02347e-09
1.16899e-08
2.28567e-08
4.46538e-08
8.66518e-08
1.46038e-10
1.46038e-10
1.46038e-10
1.46038e-10
1.46038e-10
1.46038e-10
1.46038e-10
1.46038e-10
1.46038e-10
1.46038e-10
1.46038e-10
1.46038e-10
1.46038e-10
1.46038e-10
1.46038e-10
1.46038e-10
1.46038e-10
1.46038e-10
1.46039e-10
1.4604e-10
1.46042e-10
1.46045e-10
1.46051e-10
1.46063e-10
1.46084e-10
1.46125e-10
1.46202e-10
1.46349e-10
1.46629e-10
1.47167e-10
1.48201e-10
1.50203e-10
1.54089e-10
1.61657e-10
1.76419e-10
2.05205e-10
2.61171e-10
3.69435e-10
5.77715e-10
9.76913e-10
1.74155e-09
3.21005e-09
6.0441e-09
1.15369e-08
2.21673e-08
4.24572e-08
8.00079e-08
1.46328e-07
2.57269e-07
4.33335e-07
1.46038e-10
1.46038e-10
1.46038e-10
1.46038e-10
1.46038e-10
1.46038e-10
1.46038e-10
1.46038e-10
1.46038e-10
1.46038e-10
1.46038e-10
1.46038e-10
1.46038e-10
1.46038e-10
1.46039e-10
1.4604e-10
1.46041e-10
1.46044e-10
1.46048e-10
1.46057e-10
1.46073e-10
1.46103e-10
1.46158e-10
1.4626e-10
1.46452e-10
1.46812e-10
1.47491e-10
1.4878e-10
1.51234e-10
1.55921e-10
1.64899e-10
1.82117e-10
2.15111e-10
2.78129e-10
3.97898e-10
6.24394e-10
1.0514e-09
1.85631e-09
3.37797e-09
6.26855e-09
1.17829e-08
2.2292e-08
4.20725e-08
7.82542e-08
1.41542e-07
2.46233e-07
4.09428e-07
6.49888e-07
9.87832e-07
1.44495e-06
1.46038e-10
1.46038e-10
1.46038e-10
1.46038e-10
1.46038e-10
1.46038e-10
1.46038e-10
1.46038e-10
1.46038e-10
1.46038e-10
1.46039e-10
1.46039e-10
1.46041e-10
1.46043e-10
1.46047e-10
1.46054e-10
1.46066e-10
1.46089e-10
1.46131e-10
1.46207e-10
1.46347e-10
1.46606e-10
1.47083e-10
1.47971e-10
1.49629e-10
1.52735e-10
1.58573e-10
1.69573e-10
1.9031e-10
2.29351e-10
3.02591e-10
4.39331e-10
6.93509e-10
1.1649e-09
2.03956e-09
3.66765e-09
6.71288e-09
1.24324e-08
2.31648e-08
4.30723e-08
7.90293e-08
1.41312e-07
2.43651e-07
4.02463e-07
6.35553e-07
9.60839e-07
1.39551e-06
1.95602e-06
2.65916e-06
3.52415e-06
1.46038e-10
1.46038e-10
1.46038e-10
1.46038e-10
1.46038e-10
1.46038e-10
1.46039e-10
1.46039e-10
1.4604e-10
1.46042e-10
1.46046e-10
1.46052e-10
1.46062e-10
1.46081e-10
1.46115e-10
1.46176e-10
1.46285e-10
1.46483e-10
1.46841e-10
1.47495e-10
1.48692e-10
1.50892e-10
1.54949e-10
1.62454e-10
1.76359e-10
2.02122e-10
2.49764e-10
3.37528e-10
4.98476e-10
7.92574e-10
1.32921e-09
2.30956e-09
4.10686e-09
7.418e-09
1.35416e-08
2.48533e-08
4.55121e-08
8.22947e-08
1.45237e-07
2.47693e-07
4.05636e-07
6.36452e-07
9.57693e-07
1.38606e-06
1.93691e-06
2.62373e-06
3.45781e-06
4.44937e-06
5.61025e-06
6.95799e-06
1.46038e-10
1.46038e-10
1.46039e-10
1.46039e-10
1.4604e-10
1.46042e-10
1.46045e-10
1.46051e-10
1.46061e-10
1.46077e-10
1.46107e-10
1.46158e-10
1.46249e-10
1.4641e-10
1.46697e-10
1.47211e-10
1.48134e-10
1.49797e-10
1.52808e-10
1.58273e-10
1.68219e-10
1.86337e-10
2.19319e-10
2.79207e-10
3.87523e-10
5.82641e-10
9.33188e-10
1.56268e-09
2.69526e-09
4.74101e-09
8.45409e-09
1.52166e-08
2.75104e-08
4.95984e-08
8.83033e-08
1.53585e-07
2.58566e-07
4.18884e-07
6.51549e-07
9.73765e-07
1.402e-06
1.95143e-06
2.63561e-06
3.46558e-06
4.45046e-06
5.59676e-06
6.90729e-06
8.3791e-06
1.00098e-05
1.18217e-05
1.4604e-10
1.46042e-10
1.46046e-10
1.46051e-10
1.4606e-10
1.46076e-10
1.46103e-10
1.46149e-10
1.4623e-10
1.4637e-10
1.46615e-10
1.47045e-10
1.47803e-10
1.49145e-10
1.51527e-10
1.55772e-10
1.63358e-10
1.76934e-10
2.01242e-10
2.447e-10
3.22157e-10
4.5969e-10
7.03097e-10
1.13319e-09
1.89356e-09
3.24136e-09
5.64069e-09
9.93206e-09
1.76289e-08
3.1394e-08
5.57011e-08
9.75554e-08
1.6699e-07
2.77034e-07
4.43066e-07
6.81752e-07
1.00993e-06
1.44377e-06
1.99821e-06
2.68668e-06
3.52054e-06
4.50882e-06
5.6585e-06
6.97342e-06
8.45165e-06
1.00847e-05
1.18604e-05
1.37681e-05
1.58075e-05
1.80276e-05
1.46061e-10
1.46077e-10
1.46103e-10
1.46148e-10
1.46224e-10
1.46353e-10
1.46576e-10
1.4696e-10
1.47623e-10
1.48775e-10
1.50784e-10
1.54298e-10
1.60461e-10
1.71297e-10
1.90367e-10
2.23904e-10
2.8276e-10
3.85711e-10
5.65194e-10
8.77397e-10
1.4202e-09
2.36538e-09
4.01663e-09
6.91453e-09
1.20228e-08
2.10437e-08
3.69056e-08
6.44049e-08
1.1086e-07
1.86511e-07
3.04405e-07
4.79732e-07
7.28831e-07
1.06816e-06
1.5135e-06
2.07948e-06
2.77928e-06
3.62441e-06
4.62385e-06
5.78487e-06
7.11195e-06
8.6053e-06
1.02585e-05
1.20598e-05
1.39959e-05
1.60559e-05
1.82322e-05
2.05219e-05
2.29313e-05
2.55284e-05
1.46153e-10
1.46229e-10
1.46357e-10
1.46572e-10
1.46936e-10
1.47554e-10
1.48607e-10
1.5041e-10
1.53505e-10
1.58837e-10
1.68042e-10
1.83958e-10
2.11479e-10
2.58995e-10
3.40818e-10
4.81281e-10
7.21811e-10
1.13325e-09
1.83752e-09
3.04598e-09
5.12764e-09
8.73005e-09
1.49883e-08
2.58655e-08
4.46535e-08
7.659e-08
1.29433e-07
2.13742e-07
3.42665e-07
5.31257e-07
7.95529e-07
1.15152e-06
1.61457e-06
2.19893e-06
2.91746e-06
3.78153e-06
4.8002e-06
5.98062e-06
7.32772e-06
8.84312e-06
1.05225e-05
1.23554e-05
1.43282e-05
1.64277e-05
1.86447e-05
2.09723e-05
2.34071e-05
2.59466e-05
2.85917e-05
3.13523e-05
3.43064e-05
1.46968e-10
1.4758e-10
1.48604e-10
1.50324e-10
1.53224e-10
1.58129e-10
1.66446e-10
1.80572e-10
2.04574e-10
2.45319e-10
3.14346e-10
4.30964e-10
6.27506e-10
9.58296e-10
1.51512e-09
2.4541e-09
4.04266e-09
6.74173e-09
1.13482e-08
1.92327e-08
3.27103e-08
5.55505e-08
9.35575e-08
1.55044e-07
2.50976e-07
3.94658e-07
6.0102e-07
8.85733e-07
1.26437e-06
1.75179e-06
2.36177e-06
3.10678e-06
3.99785e-06
5.04413e-06
6.25252e-06
7.62821e-06
9.17346e-06
1.08858e-05
1.27562e-05
1.47716e-05
1.69178e-05
1.91829e-05
2.15585e-05
2.40389e-05
2.66217e-05
2.93038e-05
3.20852e-05
3.49663e-05
3.7947e-05
4.10452e-05
4.43535e-05
1.50506e-10
1.53393e-10
1.58189e-10
1.66175e-10
1.79495e-10
2.01729e-10
2.38824e-10
3.00608e-10
4.03277e-10
5.73505e-10
8.55356e-10
1.32199e-09
2.09559e-09
3.38162e-09
5.52785e-09
9.12566e-09
1.51806e-08
2.53852e-08
4.252e-08
7.09636e-08
1.17213e-07
1.9023e-07
3.01444e-07
4.64324e-07
6.93658e-07
1.00473e-06
1.41261e-06
1.9316e-06
2.57495e-06
3.35464e-06
4.28133e-06
5.36405e-06
6.60949e-06
8.02278e-06
9.60644e-06
1.13594e-05
1.32743e-05
1.53387e-05
1.75379e-05
1.98582e-05
2.22899e-05
2.48251e-05
2.74593e-05
3.01892e-05
3.30135e-05
3.59331e-05
3.89455e-05
4.20511e-05
4.52637e-05
4.85803e-05
5.20011e-05
5.56233e-05
1.8049e-10
2.02351e-10
2.3818e-10
2.96822e-10
3.92617e-10
5.48802e-10
8.03131e-10
1.21723e-09
1.89228e-09
2.99538e-09
4.80436e-09
7.78364e-09
1.27113e-08
2.08849e-08
3.44333e-08
5.67415e-08
9.294e-08
1.50333e-07
2.38599e-07
3.69631e-07
5.57032e-07
8.15391e-07
1.15955e-06
1.60401e-06
2.16246e-06
2.84754e-06
3.67071e-06
4.64217e-06
5.77063e-06
7.06261e-06
8.52297e-06
1.01544e-05
1.19566e-05
1.39237e-05
1.6044e-05
1.8303e-05
2.0686e-05
2.31809e-05
2.57786e-05
2.84728e-05
3.12602e-05
3.41368e-05
3.71027e-05
4.01574e-05
4.32982e-05
4.65345e-05
4.98722e-05
5.32971e-05
5.6813e-05
6.04213e-05
6.41375e-05
6.80633e-05
3.96813e-10
5.48504e-10
7.91365e-10
1.1802e-09
1.8035e-09
2.80494e-09
4.41926e-09
7.03219e-09
1.12798e-08
1.82089e-08
2.95246e-08
4.79389e-08
7.76023e-08
1.24539e-07
1.96947e-07
3.05232e-07
4.61704e-07
6.80014e-07
9.74465e-07
1.35938e-06
1.84861e-06
2.45518e-06
3.19106e-06
4.06715e-06
5.09309e-06
6.27716e-06
7.6257e-06
9.14317e-06
1.08323e-05
1.26931e-05
1.47208e-05
1.69049e-05
1.92309e-05
2.16834e-05
2.42488e-05
2.69171e-05
2.968e-05
3.25321e-05
3.54699e-05
3.84916e-05
4.15975e-05
4.47836e-05
4.80536e-05
5.14183e-05
5.48718e-05
5.84095e-05
6.20288e-05
6.57359e-05
6.95323e-05
7.34262e-05
7.74356e-05
8.16618e-05
1.81181e-09
2.7731e-09
4.29676e-09
6.72133e-09
1.0596e-08
1.68113e-08
2.68015e-08
4.28336e-08
6.83809e-08
1.08528e-07
1.7031e-07
2.6285e-07
3.97226e-07
5.86052e-07
8.42896e-07
1.18166e-06
1.61604e-06
2.1592e-06
2.82341e-06
3.61996e-06
4.55909e-06
5.64986e-06
6.90006e-06
8.31578e-06
9.901e-06
1.16583e-05
1.35876e-05
1.56851e-05
1.79412e-05
2.03418e-05
2.28713e-05
2.55149e-05
2.8261e-05
3.10997e-05
3.40248e-05
3.70326e-05
4.01187e-05
4.32824e-05
4.65234e-05
4.98396e-05
5.32381e-05
5.67257e-05
6.02937e-05
6.39364e-05
6.76574e-05
7.14606e-05
7.53493e-05
7.93292e-05
8.34045e-05
8.75784e-05
9.18674e-05
9.63739e-05
1.0526e-08
1.64208e-08
2.57427e-08
4.04769e-08
6.36476e-08
9.96841e-08
1.54754e-07
2.36959e-07
3.56298e-07
5.24385e-07
7.53964e-07
1.05835e-06
1.45091e-06
1.94465e-06
2.55193e-06
3.28427e-06
4.15221e-06
5.16529e-06
6.33195e-06
7.65944e-06
9.15341e-06
1.08174e-05
1.26538e-05
1.46623e-05
1.68395e-05
1.91766e-05
2.16601e-05
2.4274e-05
2.70029e-05
2.98338e-05
3.27562e-05
3.57623e-05
3.88467e-05
4.20046e-05
4.52347e-05
4.85384e-05
5.19091e-05
5.53514e-05
5.88782e-05
6.24829e-05
6.61563e-05
6.99e-05
7.37207e-05
7.76167e-05
8.15944e-05
8.56585e-05
8.98118e-05
9.40551e-05
9.83913e-05
0.000102824
0.00010737
0.000112132
6.25829e-08
9.6586e-08
1.48007e-07
2.2418e-07
3.34232e-07
4.88887e-07
7.00079e-07
9.80461e-07
1.34291e-06
1.80013e-06
2.36433e-06
3.04704e-06
3.85897e-06
4.80988e-06
5.90859e-06
7.16287e-06
8.57937e-06
1.01632e-05
1.19176e-05
1.38444e-05
1.59431e-05
1.82104e-05
2.06382e-05
2.32132e-05
2.59196e-05
2.87412e-05
3.16641e-05
3.46771e-05
3.77706e-05
4.09387e-05
4.41766e-05
4.74808e-05
5.08518e-05
5.42854e-05
5.77814e-05
6.13535e-05
6.49999e-05
6.8712e-05
7.24869e-05
7.63296e-05
8.02414e-05
8.42249e-05
8.82871e-05
9.24311e-05
9.66577e-05
0.000100968
0.000105366
0.000109851
0.000114424
0.000119091
0.000123867
0.000128855
3.28511e-07
4.76038e-07
6.76626e-07
9.42255e-07
1.28524e-06
1.71786e-06
2.252e-06
2.89902e-06
3.66959e-06
4.57357e-06
5.61991e-06
6.81671e-06
8.17102e-06
9.68889e-06
1.13749e-05
1.32316e-05
1.52604e-05
1.74607e-05
1.9829e-05
2.23573e-05
2.50329e-05
2.78397e-05
3.07616e-05
3.37839e-05
3.6894e-05
4.00816e-05
4.33402e-05
4.66641e-05
5.0048e-05
5.34932e-05
5.69972e-05
6.05543e-05
6.41775e-05
6.78696e-05
7.16254e-05
7.5438e-05
7.931e-05
8.32463e-05
8.72446e-05
9.13119e-05
9.54526e-05
9.9669e-05
0.000103962
0.000108335
0.000112788
0.000117322
0.000121939
0.000126638
0.000131422
0.000136293
0.000141269
0.000146449
1.69379e-06
2.21023e-06
2.83496e-06
3.57843e-06
4.45041e-06
5.45989e-06
6.61501e-06
7.92309e-06
9.3905e-06
1.10226e-05
1.28233e-05
1.47948e-05
1.69377e-05
1.92511e-05
2.17313e-05
2.43703e-05
2.71555e-05
3.00712e-05
3.31008e-05
3.6229e-05
3.94426e-05
4.27308e-05
4.60859e-05
4.9501e-05
5.2971e-05
5.64969e-05
6.0075e-05
6.36991e-05
6.73814e-05
7.11245e-05
7.49271e-05
7.87841e-05
8.26909e-05
8.66542e-05
9.06739e-05
9.47528e-05
9.88977e-05
0.000103111
0.000107394
0.000111748
0.000116176
0.000120677
0.000125254
0.000129907
0.000134637
0.000139444
0.000144328
0.000149291
0.000154333
0.000159474
0.000164811
4.43906e-06
5.42704e-06
6.55639e-06
7.83441e-06
9.26766e-06
1.08618e-05
1.26214e-05
1.45499e-05
1.66486e-05
1.89179e-05
2.13561e-05
2.39592e-05
2.67192e-05
2.96233e-05
3.26559e-05
3.58002e-05
3.90408e-05
4.23641e-05
4.57583e-05
4.92147e-05
5.27264e-05
5.6288e-05
5.98986e-05
6.35548e-05
6.72526e-05
7.09997e-05
7.47968e-05