/*--------------------------------*- C++ -*----------------------------------*\
| =========                 |                                                 |
| \\      /  F ield         | OpenFOAM: The Open Source CFD Toolbox           |
|  \\    /   O peration     | Version:  v1706                                 |
|   \\  /    A nd           | Web:      www.OpenFOAM.com                      |
|    \\/     M anipulation  |                                                 |
\*---------------------------------------------------------------------------*/
FoamFile
{
    version     2.0;
    format      ascii;
    class       volScalarField;
    location    "1e-05";
    object      Mach;
}
// * * * * * * * * * * * * * * * * * * * * * * * * * * * * * * * * * * * * * //

dimensions      [0 0 0 0 0 0 0];


internalField   nonuniform List<scalar> 
30038
(
11.2859
11.2859
11.2859
11.2859
11.2859
11.2859
11.2859
11.2859
11.2859
11.2859
11.2859
11.2859
11.2859
11.2859
11.2859
11.2859
11.2859
11.2859
11.2859
11.2859
11.2859
11.2859
11.2859
11.2859
11.2859
11.2859
11.2859
11.2859
11.2859
11.2859
11.2859
11.2859
11.2859
11.2859
11.2859
11.2859
11.2859
11.2859
11.2859
11.2859
11.2859
11.2859
11.2859
11.2859
11.2859
11.2859
11.2859
11.2859
11.2859
11.2859
11.2859
11.2859
11.2859
11.2859
11.2859
11.2859
11.2859
11.2859
11.2859
11.2859
11.2859
11.2859
11.2859
11.2859
11.2859
11.2859
11.2859
11.2859
11.2859
11.2859
11.2859
11.2859
11.2859
11.2859
11.2859
11.2859
11.2859
11.2859
11.2859
11.2859
11.2859
11.2859
11.2859
11.2859
11.2859
11.2859
11.2859
11.2859
11.2859
11.2859
11.2859
11.2859
11.2859
11.2859
11.2859
11.2859
11.2859
11.2859
11.2859
11.2859
11.2859
11.2859
11.2859
11.2859
11.2859
11.2859
11.2859
11.2859
11.2859
11.2859
11.2859
11.2859
11.2859
11.2859
11.2859
11.2859
11.2859
11.2859
11.2859
11.2859
11.2859
11.2859
11.2859
11.2859
11.2859
11.2859
11.2859
11.2859
11.2859
11.2859
11.2859
11.2859
11.2859
11.2859
11.2859
11.2859
11.2859
11.2859
11.2859
11.2859
11.2859
11.2859
11.2859
11.2859
11.2859
11.2859
11.2859
11.2859
11.2859
11.2859
11.2859
11.2859
11.2859
11.2859
11.2859
11.2859
11.2859
11.2859
11.2859
11.2859
11.2859
11.2859
11.2859
11.2859
11.2859
11.2859
11.2859
11.2859
11.2859
11.2859
11.2859
11.2859
11.2859
11.2859
11.2859
11.2859
11.2859
11.2859
11.2859
11.2859
11.2859
11.2859
11.2859
11.2859
11.2859
11.2859
11.2859
11.2859
11.2859
11.2859
11.2859
11.2859
11.2859
11.2859
11.2859
11.2859
11.2859
11.2859
11.2859
11.2859
11.2859
11.2859
11.2859
11.2859
11.2859
11.2859
11.2859
11.2859
11.2859
11.2859
11.2859
11.2859
11.2859
11.2859
11.2859
11.2859
11.2859
11.2859
11.2859
11.2859
11.2859
11.2859
11.2859
11.2859
11.2859
11.2859
11.2859
11.2859
11.2859
11.2859
11.2859
11.2859
11.2859
11.2859
11.2859
11.2859
11.2859
11.2859
11.2859
11.2859
11.2859
11.2859
11.2859
11.2859
11.2859
11.2859
11.2859
11.2859
11.2859
11.2859
11.2859
11.2859
11.2859
11.2859
11.2859
11.2859
11.2859
11.2859
11.2859
11.2859
11.2859
11.2859
11.2859
11.2859
11.2859
11.2859
11.2859
11.2859
11.2859
11.2859
11.2859
11.2859
11.2859
11.2859
11.2859
11.2859
11.2859
11.2859
11.2859
11.2859
11.2859
11.2859
11.2859
11.2859
11.2859
11.2859
11.2859
11.2859
11.2859
11.2859
11.2859
11.2859
11.2859
11.2859
11.2859
11.2859
11.2859
11.2859
11.2859
11.2859
11.2859
11.2859
11.2859
11.2859
11.2859
11.2859
11.2859
11.2859
11.2859
11.2859
11.2859
11.2859
11.2859
11.2859
11.2859
11.2859
11.2859
11.2859
11.2859
11.2859
11.2859
11.2859
11.2859
11.2859
11.2859
11.2859
11.2859
11.2859
11.2859
11.2859
11.2859
11.2859
11.2859
11.2859
11.2859
11.2859
11.2859
11.2859
11.2859
11.2859
11.2859
11.2859
11.2859
11.2859
11.2859
11.2859
11.2859
11.2859
11.2859
11.2859
11.2859
11.2859
11.2859
11.2859
11.2859
11.2859
11.2859
11.2859
11.2859
11.2859
11.2859
11.2859
11.2859
11.2859
11.2859
11.2859
11.2859
11.2859
11.2859
11.2859
11.2859
11.2859
11.2859
11.2859
11.2859
11.2859
11.2859
11.2859
11.2859
11.2859
11.2859
11.2859
11.2859
11.2859
11.2859
11.2859
11.2859
11.2859
11.2859
11.2859
11.2859
11.2859
11.2859
11.2859
11.2859
11.2859
11.2859
11.2859
11.2859
11.2859
11.2859
11.2859
11.2859
11.2859
11.2859
11.2859
11.2859
11.2859
11.2859
11.2859
11.2859
11.2859
11.2859
11.2859
11.2859
11.2859
11.2859
11.2859
11.2859
11.2859
11.2859
11.2859
11.2859
11.2859
11.2859
11.2859
11.2859
11.2859
11.2859
11.2859
11.2859
11.2859
11.2859
11.2859
11.2859
11.2859
11.2859
11.2859
11.2859
11.2859
11.2859
11.2859
11.2859
11.2859
11.2859
11.2859
11.2859
11.2859
11.2859
11.2859
11.2859
11.2859
11.2859
11.2859
11.2859
11.2859
11.2859
11.2859
11.2859
11.2859
11.2859
11.2859
11.2859
11.2859
11.2859
11.2859
11.2859
11.2859
11.2859
11.2859
11.2859
11.2859
11.2859
11.2859
11.2859
11.2859
11.2859
11.2859
11.2859
11.2859
11.2859
11.2859
11.2859
11.2859
11.2859
11.2859
11.2859
11.2859
11.2859
11.2859
11.2859
11.2859
11.2859
11.2859
11.2859
11.2859
11.2859
11.2859
11.2859
11.2859
11.2859
11.2859
11.2859
11.2859
11.2859
11.2859
11.2859
11.2859
11.2859
11.2859
11.2859
11.2859
11.2859
11.2859
11.2859
11.2859
11.2859
11.2859
11.2859
11.2859
11.2859
11.2859
11.2859
11.2859
11.2859
11.2859
11.2859
11.2859
11.2859
11.2859
11.2859
11.2859
11.2859
11.2859
11.2859
11.2859
11.2859
11.2859
11.2859
11.2859
11.2859
11.2859
11.2859
11.2859
11.2859
11.2859
11.2859
11.2859
11.2859
11.2859
11.2859
11.2859
11.2859
11.2859
11.2859
11.2859
11.2859
11.2859
11.2859
11.2859
11.2859
11.2859
11.2859
11.2859
11.2859
11.2859
11.2859
11.2859
11.2859
11.2859
11.2859
11.2859
11.2859
11.2859
11.2859
11.2859
11.2859
11.2859
11.2859
11.2859
11.2859
11.2859
11.2859
11.2859
11.2859
11.2859
11.2859
11.2859
11.2859
11.2859
11.2859
11.2859
11.2859
11.2859
11.2859
11.2859
11.2859
11.2859
11.2859
11.2859
11.2859
11.2859
11.2859
11.2859
11.2859
11.2859
11.2859
11.2859
11.2859
11.2859
11.2859
11.2859
11.2859
11.2859
11.2859
11.2859
11.2859
11.2859
11.2859
11.2859
11.2859
11.2859
11.2859
11.2859
11.2859
11.2859
11.2859
11.2859
11.2859
11.2859
11.2859
11.2859
11.2859
11.2859
11.2859
11.2859
11.2859
11.2859
11.2859
11.2859
11.2859
11.2859
11.2859
11.2859
11.2859
11.2859
11.2859
11.2859
11.2859
11.2859
11.2859
11.2859
11.2859
11.2859
11.2859
11.2859
11.2859
11.2859
11.2859
11.2859
11.2859
11.2859
11.2859
11.2859
11.2859
11.2859
11.2859
11.2859
11.2859
11.2859
11.2859
11.2859
11.2859
11.2859
11.2859
11.2859
11.2859
11.2859
11.2859
11.2859
11.2859
11.2859
11.2859
11.2859
11.2859
11.2859
11.2859
11.2859
11.2859
11.2859
11.2859
11.2859
11.2859
11.2859
11.2859
11.2859
11.2859
11.2859
11.2859
11.2859
11.2859
11.2859
11.2859
11.2859
11.2859
11.2859
11.2859
11.2859
11.2859
11.2859
11.2859
11.2859
11.2859
11.2859
11.2859
11.2859
11.2859
11.2859
11.2859
11.2859
11.2859
11.2859
11.2859
11.2859
11.2859
11.2859
11.2859
11.2859
11.2859
11.2859
11.2859
11.2859
11.2859
11.2859
11.2859
11.2859
11.2859
11.2859
11.2859
11.2859
11.2859
11.2859
11.2859
11.2859
11.2859
11.2859
11.2859
11.2859
11.2859
11.2859
11.2859
11.2859
11.2859
11.2859
11.2859
11.2859
11.2859
11.2859
11.2859
11.2859
11.2859
11.2859
11.2859
11.2859
11.2859
11.2859
11.2859
11.2859
11.2859
11.2859
11.2859
11.2859
11.2859
11.2859
11.2859
11.2859
11.2859
11.2859
11.2859
11.2859
11.2859
11.2859
11.2859
11.2859
11.2859
11.2859
11.2859
11.2859
11.2859
11.2859
11.2859
11.2859
11.2859
11.2859
11.2859
11.2859
11.2859
11.2859
11.2859
11.2859
11.2859
11.2859
11.2859
11.2859
11.2859
11.2859
11.2859
11.2859
11.2859
11.2859
11.2859
11.2859
11.2859
11.2859
11.2859
11.2859
11.2859
11.2859
11.2859
11.2859
11.2859
11.2859
11.2859
11.2859
11.2859
11.2859
11.2859
11.2859
11.2859
11.2859
11.2859
11.2859
11.2859
11.2859
11.2859
11.2859
11.2859
11.2859
11.2859
11.2859
11.2859
11.2859
11.2859
11.2859
11.2859
11.2859
11.2859
11.2859
11.2859
11.2859
11.2859
11.2859
11.2859
11.2859
11.2859
11.2859
11.2859
11.2859
11.2859
11.2859
11.2859
11.2859
11.2859
11.2859
11.2859
11.2859
11.2859
11.2859
11.2859
11.2859
11.2859
11.2859
11.2859
11.2859
11.2859
11.2859
11.2859
11.2859
11.2859
11.2859
11.2859
11.2859
11.2859
11.2859
11.2859
11.2859
11.2859
11.2859
11.2859
11.2859
11.2859
11.2859
11.2859
11.2859
11.2859
11.2859
11.2859
11.2859
11.2859
11.2859
11.2859
11.2859
11.2859
11.2859
11.2859
11.2859
11.2859
11.2859
11.2859
11.2859
11.2859
11.2859
11.2859
11.2859
11.2859
11.2859
11.2859
11.2859
11.2859
11.2859
11.2859
11.2859
11.2859
11.2859
11.2859
11.2859
11.2859
11.2859
11.2859
11.2859
11.2859
11.2859
11.2859
11.2859
11.2859
11.2859
11.2859
11.2859
11.2859
11.2859
11.2859
11.2859
11.2859
11.2859
11.2859
11.2859
11.2859
11.2859
11.2859
11.2859
11.2859
11.2859
11.2859
11.2859
11.2859
11.2859
11.2859
11.2859
11.2859
11.2859
11.2859
11.2859
11.2859
11.2859
11.2859
11.2859
11.2859
11.2859
11.2859
11.2859
11.2859
11.2859
11.2859
11.2859
11.2859
11.2859
11.2859
11.2859
11.2859
11.2859
11.2859
11.2859
11.2859
11.2859
11.2859
11.2859
11.2859
11.2859
11.2859
11.2859
11.2859
11.2859
11.2859
11.2859
11.2859
11.2859
11.2859
11.2859
11.2859
11.2859
11.2859
11.2859
11.2859
11.2859
11.2859
11.2859
11.2859
11.2859
11.2859
11.2859
11.2859
11.2859
11.2859
11.2859
11.2859
11.2859
11.2859
11.2859
11.2859
11.2859
11.2859
11.2859
11.2859
11.2859
11.2859
11.2859
11.2859
11.2859
11.2859
11.2859
11.2859
11.2859
11.2859
11.2859
11.2859
11.2859
11.2859
11.2859
11.2859
11.2859
11.2859
11.2859
11.2859
11.2859
11.2859
11.2859
11.2859
11.2859
11.2859
11.2859
11.2859
11.2859
11.2859
11.2859
11.2859
11.2859
11.2859
11.2859
11.2859
11.2859
11.2859
11.2859
11.2859
11.2859
11.2859
11.2859
11.2859
11.2859
11.2859
11.2859
11.2859
11.2859
11.2859
11.2859
11.2859
11.2859
11.2859
11.2859
11.2859
11.2859
11.2859
11.2859
11.2859
11.2859
11.2859
11.2859
11.2859
11.2859
11.2859
11.2859
11.2859
11.2859
11.2859
11.2859
11.2859
11.2859
11.2859
11.2859
11.2859
11.2859
11.2859
11.2859
11.2859
11.2859
11.2859
11.2859
11.2859
11.2859
11.2859
11.2859
11.2859
11.2859
11.2859
11.2859
11.2859
11.2859
11.2859
11.2859
11.2859
11.2859
11.2859
11.2859
11.2859
11.2859
11.2859
11.2859
11.2859
11.2859
11.2859
11.2859
11.2859
11.2859
11.2859
11.2859
11.2859
11.2859
11.2859
11.2859
11.2859
11.2859
11.2859
11.2858
11.2859
11.2859
11.2859
11.2859
11.2859
11.2859
11.2859
11.2859
11.2859
11.2859
11.2859
11.2859
11.2859
11.2859
11.2859
11.2859
11.2859
11.2859
11.2859
11.2859
11.2859
11.2859
11.2859
11.2859
11.2859
11.2859
11.2859
11.2859
11.2859
11.2859
11.2859
11.2859
11.2859
11.2859
11.2859
11.2859
11.2859
11.2859
11.2859
11.2859
11.2859
11.2859
11.2859
11.2859
11.2859
11.2859
11.2858
11.2858
11.2858
11.2858
11.2859
11.2859
11.2859
11.2859
11.2859
11.2859
11.2859
11.2859
11.2859
11.2859
11.2859
11.2859
11.2859
11.2859
11.2859
11.2859
11.2859
11.2859
11.2859
11.2859
11.2859
11.2859
11.2859
11.2859
11.2859
11.2859
11.2859
11.2859
11.2859
11.2859
11.2859
11.2859
11.2859
11.2859
11.2859
11.2859
11.2859
11.2859
11.2859
11.2859
11.2859
11.2859
11.2859
11.2858
11.2858
11.2858
11.2858
11.2857
11.2857
11.2855
11.2859
11.2859
11.2859
11.2859
11.2859
11.2859
11.2859
11.2859
11.2859
11.2859
11.2859
11.2859
11.2859
11.2859
11.2859
11.2859
11.2859
11.2859
11.2859
11.2859
11.2859
11.2859
11.2859
11.2859
11.2859
11.2859
11.2859
11.2859
11.2859
11.2859
11.2859
11.2859
11.2859
11.2859
11.2859
11.2859
11.2859
11.2859
11.2859
11.2859
11.2858
11.2858
11.2858
11.2858
11.2857
11.2857
11.2855
11.2852
11.2846
11.2835
11.2859
11.2859
11.2859
11.2859
11.2859
11.2859
11.2859
11.2859
11.2859
11.2859
11.2859
11.2859
11.2859
11.2859
11.2859
11.2859
11.2859
11.2859
11.2859
11.2859
11.2859
11.2859
11.2859
11.2859
11.2859
11.2859
11.2859
11.2859
11.2859
11.2859
11.2859
11.2859
11.2859
11.2859
11.2859
11.2859
11.2859
11.2858
11.2858
11.2858
11.2858
11.2857
11.2857
11.2855
11.2852
11.2847
11.2838
11.2821
11.2789
11.2725
11.2859
11.2859
11.2859
11.2859
11.2859
11.2859
11.2859
11.2859
11.2859
11.2859
11.2859
11.2859
11.2859
11.2859
11.2859
11.2859
11.2859
11.2859
11.2859
11.2859
11.2859
11.2859
11.2859
11.2859
11.2859
11.2859
11.2859
11.2859
11.2859
11.2859
11.2859
11.2859
11.2859
11.2859
11.2858
11.2858
11.2858
11.2858
11.2857
11.2856
11.2855
11.2852
11.2847
11.2838
11.2822
11.2792
11.2739
11.2643
11.2465
11.2122
11.2859
11.2859
11.2859
11.2859
11.2859
11.2859
11.2859
11.2859
11.2859
11.2859
11.2859
11.2859
11.2859
11.2859
11.2859
11.2859
11.2859
11.2859
11.2859
11.2859
11.2859
11.2859
11.2859
11.2859
11.2859
11.2859
11.2859
11.2859
11.2859
11.2859
11.2858
11.2858
11.2858
11.2858
11.2858
11.2857
11.2856
11.2855
11.2852
11.2847
11.2838
11.2821
11.2793
11.2742
11.2651
11.2489
11.2199
11.168
11.0755
10.9082
11.2859
11.2859
11.2859
11.2859
11.2859
11.2859
11.2859
11.2859
11.2859
11.2859
11.2859
11.2859
11.2859
11.2859
11.2859
11.2859
11.2859
11.2859
11.2859
11.2859
11.2859
11.2859
11.2859
11.2859
11.2859
11.2859
11.2859
11.2858
11.2858
11.2858
11.2858
11.2858
11.2857
11.2856
11.2854
11.2851
11.2846
11.2837
11.282
11.2792
11.2741
11.2653
11.2497
11.2222
11.1738
11.0896
10.9452
10.7053
10.324
9.75579
11.2859
11.2859
11.2859
11.2859
11.2859
11.2859
11.2859
11.2859
11.2859
11.2859
11.2859
11.2859
11.2859
11.2859
11.2859
11.2859
11.2859
11.2859
11.2859
11.2859
11.2859
11.2859
11.2859
11.2859
11.2858
11.2858
11.2858
11.2858
11.2858
11.2857
11.2856
11.2854
11.285
11.2845
11.2835
11.2818
11.2789
11.2737
11.2649
11.2494
11.2226
11.176
11.0958
10.9601
10.7368
10.3865
9.87404
9.19153
8.37345
7.4955
11.2859
11.2859
11.2859
11.2859
11.2859
11.2859
11.2859
11.2859
11.2859
11.2859
11.2859
11.2859
11.2859
11.2859
11.2859
11.2859
11.2859
11.2859
11.2859
11.2859
11.2858
11.2858
11.2858
11.2858
11.2858
11.2857
11.2857
11.2855
11.2853
11.2849
11.2843
11.2832
11.2814
11.2783
11.273
11.2639
11.2482
11.2212
11.1751
11.0967
10.9656
10.7521
10.4196
9.93458
9.28714
8.50812
7.66469
6.83294
6.06561
5.39425
11.2859
11.2859
11.2859
11.2859
11.2859
11.2859
11.2859
11.2859
11.2859
11.2859
11.2859
11.2859
11.2859
11.2859
11.2859
11.2859
11.2859
11.2858
11.2858
11.2858
11.2858
11.2858
11.2857
11.2856
11.2855
11.2852
11.2848
11.2841
11.2829
11.2809
11.2775
11.2718
11.2621
11.2458
11.218
11.1711
11.0925
10.9626
10.7537
10.4314
9.96435
9.34176
8.58991
7.76983
6.95323
6.19574
5.52571
4.94958
4.45828
4.04511
11.2859
11.2859
11.2859
11.2859
11.2859
11.2859
11.2859
11.2859
11.2859
11.2859
11.2859
11.2859
11.2859
11.2858
11.2858
11.2858
11.2858
11.2858
11.2857
11.2857
11.2856
11.2854
11.2851
11.2846
11.2838
11.2824
11.2801
11.2764
11.2701
11.2596
11.2421
11.2127
11.1638
11.083
10.9512
10.7421
10.4235
9.96626
9.36059
8.63029
7.83138
7.03099
6.28295
5.61669
5.04018
4.5486
4.13145
3.77793
3.47558
3.21979
11.2859
11.2859
11.2859
11.2859
11.2859
11.2859
11.2859
11.2859
11.2859
11.2858
11.2858
11.2858
11.2858
11.2858
11.2858
11.2857
11.2856
11.2855
11.2853
11.2849
11.2843
11.2833
11.2817
11.2791
11.2748
11.2678
11.2561
11.2368
11.205
11.1527
11.0675
10.9307
10.7168
10.3957
9.94104
9.34512
8.63121
7.85173
7.06921
6.33448
5.67634
5.10359
4.61262
4.19423
3.83801
3.53437
3.27489
3.05352
2.8642
2.70617
11.2859
11.2859
11.2859
11.2859
11.2859
11.2858
11.2858
11.2858
11.2858
11.2858
11.2858
11.2857
11.2857
11.2856
11.2854
11.2851
11.2846
11.2839
11.2827
11.2808
11.2777
11.2727
11.2645
11.2512
11.2295
11.1942
11.1369
11.045
10.8998
10.6765
10.347
9.88822
9.29565
8.59353
7.83178
7.06846
6.35056
5.70503
5.14063
4.65443
4.23816
3.88212
3.5772
3.31566
3.09113
2.89908
2.73647
2.60211
2.49402
2.41058
11.2859
11.2859
11.2858
11.2858
11.2858
11.2858
11.2858
11.2857
11.2857
11.2856
11.2854
11.2852
11.2848
11.2843
11.2833
11.2819
11.2795
11.2758
11.2697
11.2601
11.2445
11.2195
11.1793
11.1151
11.0138
10.8564
10.6188
10.2752
9.80625
9.21162
8.51762
7.77241
7.02959
6.33167
5.70285
5.15107
4.67368
4.26307
3.91024
3.60668
3.34509
3.1194
2.925
2.75878
2.61903
2.5049
2.41517
2.34767
2.29847
2.26317
11.2858
11.2858
11.2858
11.2858
11.2857
11.2856
11.2855
11.2853
11.285
11.2845
11.2837
11.2825
11.2807
11.2777
11.2731
11.2657
11.2539
11.2353
11.2058
11.159
11.0856
10.9714
10.7976
10.5406
10.1772
9.69267
9.09179
8.40352
7.67454
6.95381
6.27883
5.67044
5.13515
4.67025
4.26863
3.92196
3.62232
3.36285
3.13793
2.94303
2.77499
2.63188
2.51281
2.41707
2.34315
2.28837
2.24913
2.22173
2.20269
2.18892
11.2858
11.2857
11.2856
11.2855
11.2853
11.2851
11.2846
11.284
11.283
11.2814
11.2789
11.2751
11.2692
11.2599
11.2454
11.2226
11.187
11.1314
11.0456
10.9146
10.7193
10.4373
10.0487
9.54426
8.93447
8.25115
7.53923
6.84268
6.19358
5.60901
5.09368
4.64458
4.25497
3.91714
3.62377
3.36852
3.14619
2.95252
2.78436
2.63968
2.51747
2.41722
2.33804
2.27801
2.23417
2.20312
2.18154
2.16662
2.15631
2.14894
2.14358
11.2853
11.2851
11.2847
11.2841
11.2832
11.2818
11.2797
11.2764
11.2714
11.2637
11.2518
11.2334
11.2049
11.161
11.0936
10.9914
10.8387
10.6162
10.3034
9.88469
9.35743
8.73801
8.06071
7.368
6.6983
6.07806
5.52037
5.02805
4.59762
4.22266
3.89605
3.61108
3.36196
3.14392
2.95303
2.78627
2.64161
2.51791
2.41472
2.33153
2.26704
2.21901
2.18444
2.16022
2.14342
2.1318
2.12384
2.11832
2.11486
2.11239
2.11145
11.2841
11.2833
11.282
11.2801
11.2772
11.2727
11.266
11.2557
11.2401
11.2162
11.1799
11.1247
11.0416
10.9179
10.7374
10.4813
10.132
9.67968
9.12872
8.50134
7.83311
7.163
6.52335
5.93485
5.40677
4.94002
4.53068
4.17262
3.85929
3.5846
3.34331
3.13107
2.94436
2.78037
2.6371
2.51338
2.40871
2.32281
2.2549
2.20328
2.16544
2.13856
2.11988
2.10705
2.09832
2.09219
2.08818
2.08584
2.08462
2.08395
2.08384
2.08405
11.2774
11.2733
11.2671
11.2579
11.244
11.223
11.1915
11.1442
11.0737
10.9696
10.8181
10.6027
10.3063
9.91585
9.42822
8.85548
8.22444
7.57029
6.9272
6.3211
5.7671
5.27092
4.83182
4.44549
4.10614
3.80777
3.54493
3.31291
3.10784
2.92655
2.76651
2.62583
2.50335
2.39853
2.31121
2.2409
2.18642
2.1458
2.11653
2.096
2.08183
2.07213
2.06564
2.06132
2.05881
2.05716
2.05718
2.05682
2.05721
2.05805
2.0591
2.05981
11.2456
11.2263
11.1977
11.1553
11.0928
11.0014
10.8694
10.6823
10.4244
10.0817
9.6473
9.12604
8.53679
7.90906
7.27555
6.66456
6.0955
5.5784
5.11592
4.70599
4.34408
4.02477
3.74266
3.49291
3.27137
3.07459
2.89981
2.74475
2.6077
2.48754
2.38373
2.29613
2.22449
2.16803
2.12518
2.09381
2.07153
2.05612
2.04565
2.03864
2.03394
2.03103
2.02957
2.02911
2.02928
2.02974
2.03082
2.03205
2.03329
2.03463
2.03616
2.03745
11.1018
11.0181
10.8984
10.73
10.4986
10.1907
9.79778
9.32035
8.77127
8.17437
7.55912
6.95374
6.37995
5.85102
5.37264
4.94504
4.56522
4.22861
3.93025
3.66532
3.4296
3.21945
3.0319
2.8645
2.7153
2.58276
2.46585
2.36404
2.2772
2.20522
2.14761
2.10318
2.07016
2.04645
2.02988
2.01857
2.01097
2.00607
2.00306
2.00148
2.00081
2.00142
2.00192
2.00292
2.00442
2.00604
2.00744
2.00928
2.01111
2.01285
2.01458
2.01612
10.537
10.2527
9.88969
9.44656
8.93218
8.36576
7.77309
7.18077
6.611
6.07892
5.59247
5.1539
4.76169
4.41232
4.10139
3.82444
3.57725
3.35617
3.15808
2.98044
2.82115
2.67851
2.55121
2.43831
2.33934
2.25416
2.18277
2.12484
2.07952
2.04534
2.02046
2.00291
1.99089
1.98292
1.97774
1.97452
1.97275
1.97226
1.97263
1.97353
1.97464
1.97636
1.97822
1.98003
1.98193
1.98405
1.98606
1.9881
1.99013
1.99207
1.99398
1.99572
9.02451
8.4852
7.916
7.34116
6.7821
6.25446
5.76746
5.32479
4.92625
4.56925
4.2501
3.96474
3.70924
3.47999
3.27387
3.08827
2.92103
2.77036
2.63486
2.51338
2.40514
2.30969
2.22693
2.1569
2.09943
2.05389
2.01909
1.99344
1.97517
1.96257
1.95419
1.94875
1.94549
1.94384
1.94328
1.94354
1.9448
1.94614
1.94774
1.94987
1.95203
1.95401
1.95641
1.9588
1.96111
1.96342
1.96568
1.9679
1.97009
1.97221
1.97431
1.97623
6.88941
6.37244
5.89164
5.45152
5.05274
4.69356
4.37092
4.08123
3.8209
3.58654
3.37511
3.18402
3.01109
2.85453
2.71285
2.58489
2.46969
2.3666
2.27524
2.19553
2.12756
2.07124
2.02612
1.99121
1.9652
1.94651
1.93351
1.92482
1.9193
1.91597
1.91428
1.9137
1.91412
1.91534
1.91701
1.91876
1.92113
1.92359
1.92591
1.92836
1.93102
1.93358
1.93618
1.93876
1.94128
1.94375
1.94619
1.94858
1.95094
1.95325
1.95552
1.95764
4.78062
4.45934
4.16961
3.90818
3.67197
3.45813
3.26415
3.0879
2.92763
2.78185
2.64936
2.52921
2.42062
2.32306
2.23624
2.16011
2.09478
2.0402
1.99607
1.9616
1.93564
1.9168
1.9036
1.89477
1.88921
1.88586
1.88424
1.88387
1.88432
1.88555
1.88742
1.88956
1.89183
1.8946
1.89727
1.8998
1.90275
1.90566
1.90851
1.91135
1.91415
1.91691
1.91963
1.92231
1.92496
1.92756
1.93013
1.93267
1.93515
1.9376
1.9399
3.73318
3.51988
3.32567
3.14854
2.98678
2.83896
2.70392
2.58068
2.46849
2.36673
2.27498
2.19304
2.12089
2.05865
2.00634
1.96373
1.93016
1.90464
1.88598
1.87286
1.86404
1.85847
1.85518
1.85369
1.85349
1.85404
1.85539
1.85745
1.85986
1.86223
1.86523
1.86822
1.87105
1.8741
1.87728
1.88035
1.88347
1.88656
1.8896
1.8926
1.89555
1.89847
1.90135
1.9042
1.90701
1.90978
1.91252
1.91522
1.91787
1.92049
1.92296
3.02964
2.88183
2.74614
2.62164
2.50759
2.40339
2.30857
2.22282
2.14601
2.07815
2.01939
1.96977
1.9291
1.89686
1.87218
1.85401
1.84118
1.83251
1.82709
1.82404
1.82268
1.82261
1.82327
1.8249
1.82703
1.8297
1.8323
1.83539
1.83874
1.84188
1.845
1.84845
1.85184
1.85519
1.85855
1.86185
1.86511
1.86834
1.87152
1.87467
1.87778
1.88086
1.8839
1.8869
1.88987
1.89281
1.89571
1.89857
1.90138
1.90415
1.90679
2.43087
2.3346
2.24675
2.16709
2.09557
2.03224
1.97726
1.93068
1.89232
1.86177
1.83826
1.82086
1.80854
1.80023
1.79507
1.79227
1.7911
1.79127
1.79231
1.794
1.79626
1.79906
1.80228
1.80524
1.80884
1.81227
1.81561
1.81926
1.82293
1.82651
1.83011
1.83368
1.83721
1.8407
1.84414
1.84755
1.85091
1.85424
1.85754
1.8608
1.86403
1.86723
1.87039
1.87352
1.87661
1.87966
1.88267
1.88562
1.88855
1.89133
2.10832
2.04218
1.98355
1.93256
1.88927
1.85354
1.82499
1.80295
1.78658
1.77498
1.7672
1.7624
1.75993
1.75904
1.75947
1.76079
1.76264
1.76515
1.76813
1.77159
1.77475
1.77857
1.7824
1.78597
1.7897
1.79361
1.79744
1.8013
1.80514
1.80891
1.81265
1.81635
1.82
1.82362
1.82721
1.83075
1.83426
1.83774
1.84118
1.84459
1.84797
1.85131
1.85462
1.85789
1.86112
1.86432
1.86747
1.87057
1.87363
1.87654
1.88562
1.84583
1.81295
1.78665
1.76631
1.75121
1.74053
1.73343
1.72912
1.72705
1.72654
1.72723
1.72885
1.73093
1.7337
1.73683
1.74043
1.74405
1.74791
1.75206
1.75591
1.75974
1.76395
1.76808
1.77213
1.77621
1.78023
1.78422
1.78817
1.79208
1.79594
1.79976
1.80355
1.8073
1.81102
1.8147
1.81835
1.82197
1.82555
1.8291
1.83262
1.8361
1.83955
1.84296
1.84633
1.84966
1.85294
1.85617
1.85935
1.86239
1.74693
1.7285
1.71483
1.70524
1.69894
1.69525
1.69367
1.69358
1.69458
1.69654
1.69894
1.70193
1.70526
1.70904
1.71312
1.71697
1.72134
1.72554
1.7296
1.73397
1.73834
1.7426
1.74692
1.75121
1.75544
1.75963
1.76377
1.76787
1.77194
1.77596
1.77995
1.7839
1.78782
1.7917
1.79555
1.79936
1.80314
1.8069
1.81061
1.8143
1.81795
1.82156
1.82514
1.82868
1.83218
1.83563
1.83904
1.84238
1.84568
1.84884
1.66919
1.66381
1.66083
1.6598
1.66017
1.66156
1.66386
1.66661
1.6698
1.67339
1.6774
1.68182
1.68582
1.69036
1.69491
1.69919
1.70367
1.70828
1.71279
1.71733
1.72185
1.72631
1.73073
1.73512
1.73946
1.74375
1.74801
1.75223
1.75641
1.76055
1.76466
1.76873
1.77277
1.77678
1.78076
1.7847
1.78861
1.79249
1.79633
1.80014
1.80392
1.80766
1.81136
1.81502
1.81864
1.8222
1.82572
1.82917
1.83258
1.83584
1.6255
1.62637
1.62818
1.63082
1.63394
1.63738
1.64123
1.64543
1.65002
1.65444
1.65913
1.66397
1.66848
1.67307
1.67794
1.68271
1.68745
1.69219
1.69688
1.70152
1.70614
1.7107
1.71523
1.71971
1.72416
1.72856
1.73293
1.73726
1.74155
1.74581
1.75004
1.75423
1.75839
1.76252
1.76661
1.77068
1.77471
1.77871
1.78267
1.7866
1.79049
1.79435
1.79816
1.80193
1.80566
1.80933
1.81295
1.8165
1.82
1.82335
1.5975
1.60097
1.60469
1.60879
1.61324
1.61803
1.62281
1.6276
1.63265
1.63748
1.64225
1.64735
1.65234
1.65726
1.66223
1.66716
1.67203
1.67686
1.68165
1.68639
1.69109
1.69575
1.70038
1.70496
1.70951
1.71402
1.71849
1.72293
1.72734
1.73171
1.73605
1.74035
1.74463
1.74887
1.75308
1.75726
1.7614
1.76552
1.76959
1.77363
1.77764
1.7816
1.78552
1.78939
1.79322
1.79698
1.8007
1.80433
1.80791
1.81134
1.58082
1.58585
1.59085
1.5959
1.60113
1.60625
1.61123
1.61647
1.62169
1.62682
1.63201
1.63716
1.64224
1.64729
1.6523
1.65726
1.66218
1.66705
1.67188
1.67668
1.68143
1.68615
1.69084
1.69549
1.7001
1.70468
1.70922
1.71373
1.71821
1.72266
1.72707
1.73146
1.73581
1.74013
1.74441
1.74866
1.75288
1.75706
1.76121
1.76531
1.76937
1.77339
1.77735
1.78127
1.78512
1.78891
1.79263
1.79627
1.79977
1.564
1.56944
1.57476
1.57998
1.58537
1.59082
1.59617
1.60154
1.6069
1.61218
1.61744
1.62267
1.62784
1.63296
1.63805
1.6431
1.6481
1.65306
1.65798
1.66287
1.66772
1.67253
1.67731
1.68206
1.68677
1.69145
1.69609
1.7007
1.70529
1.70984
1.71435
1.71884
1.72329
1.72771
1.7321
1.73645
1.74077
1.74505
1.74929
1.75348
1.75763
1.76174
1.76579
1.76978
1.77371
1.77757
1.78135
1.78506
1.78861
1.54852
1.55408
1.55973
1.56529
1.57085
1.5764
1.5819
1.58736
1.59278
1.59816
1.60349
1.60878
1.61402
1.61923
1.6244
1.62952
1.63461
1.63966
1.64467
1.64964
1.65458
1.65948
1.66436
1.6692
1.674
1.67877
1.68352
1.68822
1.6929
1.69755
1.70216
1.70675
1.71129
1.71581
1.72029
1.72474
1.72914
1.73351
1.73784
1.74212
1.74635
1.75053
1.75466
1.75872
1.76272
1.76664
1.77047
1.77423
1.77782
1.53995
1.5457
1.5514
1.55705
1.56267
1.56824
1.57377
1.57926
1.5847
1.5901
1.59546
1.60078
1.60606
1.6113
1.61651
1.62167
1.62681
1.6319
1.63696
1.64199
1.64698
1.65194
1.65687
1.66176
1.66663
1.67146
1.67626
1.68103
1.68577
1.69047
1.69514
1.69978
1.70439
1.70895
1.71348
1.71798
1.72242
1.72683
1.73119
1.73549
1.73974
1.74393
1.74806
1.75211
1.75608
1.75996
1.76375
1.76737
1.52653
1.53234
1.5381
1.54382
1.54949
1.55513
1.56072
1.56627
1.57178
1.57725
1.58268
1.58807
1.59343
1.59874
1.60403
1.60927
1.61448
1.61966
1.6248
1.62991
1.63499
1.64003
1.64505
1.65003
1.65498
1.65989
1.66478
1.66963
1.67446
1.67925
1.684
1.68872
1.69341
1.69806
1.70266
1.70723
1.71175
1.71623
1.72065
1.72502
1.72933
1.73358
1.73775
1.74185
1.74586
1.74977
1.75359
1.75724
1.51952
1.52533
1.53111
1.53684
1.54254
1.54819
1.55381
1.55938
1.56492
1.57042
1.57588
1.58131
1.5867
1.59206
1.59738
1.60266
1.60792
1.61314
1.61833
1.62348
1.62861
1.6337
1.63876
1.64379
1.64879
1.65376
1.65869
1.66359
1.66846
1.67329
1.67809
1.68285
1.68757
1.69225
1.69688
1.70147
1.70601
1.71049
1.71492
1.71928
1.72357
1.72779
1.73192
1.73596
1.73989
1.74371
1.74736
1.5072
1.51307
1.51891
1.5247
1.53045
1.53617
1.54184
1.54748
1.55308
1.55865
1.56418
1.56968
1.57514
1.58057
1.58596
1.59132
1.59665
1.60194
1.60721
1.61244
1.61764
1.6228
1.62794
1.63305
1.63812
1.64316
1.64817
1.65314
1.65808
1.66298
1.66785
1.67268
1.67746
1.6822
1.6869
1.69155
1.69614
1.70067
1.70514
1.70955
1.71387
1.71812
1.72227
1.72632
1.73026
1.73409
1.73773
1.5013
1.50718
1.51303
1.51884
1.52462
1.53035
1.53605
1.54172
1.54735
1.55295
1.55851
1.56404
1.56953
1.57499
1.58042
1.58582
1.59119
1.59652
1.60182
1.60709
1.61233
1.61754
1.62271
1.62785
1.63296
1.63804
1.64308
1.64808
1.65305
1.65798
1.66287
1.66771
1.67251
1.67726
1.68195
1.68659
1.69116
1.69567
1.7001
1.70445
1.70871
1.71287
1.71693
1.72087
1.72469
1.72831
1.48998
1.49592
1.50182
1.50769
1.51352
1.51932
1.52508
1.5308
1.53649
1.54215
1.54778
1.55337
1.55893
1.56445
1.56995
1.57541
1.58084
1.58624
1.59161
1.59694
1.60225
1.60752
1.61276
1.61796
1.62314
1.62827
1.63337
1.63844
1.64346
1.64845
1.65339
1.65828
1.66313
1.66792
1.67265
1.67732
1.68192
1.68645
1.6909
1.69527
1.69954
1.70371
1.70776
1.71169
1.7155
1.7191
1.4791
1.48509
1.49105
1.49697
1.50285
1.50871
1.51452
1.52031
1.52606
1.53177
1.53746
1.54311
1.54873
1.55431
1.55987
1.56539
1.57089
1.57635
1.58177
1.58717
1.59253
1.59787
1.60316
1.60843
1.61366
1.61885
1.62401
1.62912
1.6342
1.63923
1.64421
1.64915
1.65403
1.65885
1.66361
1.6683
1.67293
1.67748
1.68194
1.68632
1.69059
1.69476
1.6988
1.70271
1.70648
1.71005
1.46864
1.47468
1.48069
1.48666
1.4926
1.4985
1.50437
1.51021
1.51601
1.52179
1.52753
1.53323
1.53891
1.54455
1.55016
1.55574
1.56129
1.56681
1.57229
1.57775
1.58317
1.58855
1.5939
1.59922
1.6045
1.60974
1.61494
1.6201
1.62522
1.63029
1.6353
1.64027
1.64518
1.65003
1.65482
1.65953
1.66417
1.66873
1.6732
1.67758
1.68184
1.68599
1.69001
1.69389
1.69763
1.70114
1.45857
1.46466
1.47071
1.47673
1.48272
1.48868
1.4946
1.50049
1.50634
1.51217
1.51796
1.52372
1.52945
1.53514
1.54081
1.54644
1.55204
1.55761
1.56314
1.56865
1.57412
1.57955
1.58495
1.59031
1.59563
1.60091
1.60615
1.61134
1.61649
1.62159
1.62664
1.63164
1.63657
1.64144
1.64625
1.65097
1.65562
1.66018
1.66465
1.66901
1.67326
1.67739
1.68138
1.68522
1.6889
1.69236
1.44888
1.45501
1.46111
1.46718
1.47321
1.47921
1.48518
1.49112
1.49702
1.50289
1.50873
1.51454
1.52032
1.52606
1.53178
1.53746
1.54311
1.54872
1.5543
1.55985
1.56536
1.57083
1.57627
1.58166
1.58702
1.59234
1.59761
1.60284
1.60801
1.61314
1.61821
1.62323
1.62818
1.63306
1.63788
1.64261
1.64726
1.65181
1.65626
1.66061
1.66483
1.66892
1.67287
1.67667
1.68029
1.68368
1.43953
1.44571
1.45185
1.45796
1.46404
1.47008
1.4761
1.48208
1.48803
1.49394
1.49983
1.50568
1.5115
1.51729
1.52305
1.52877
1.53446
1.54011
1.54573
1.55131
1.55686
1.56237
1.56784
1.57327
1.57866
1.584
1.5893
1.59456
1.59976
1.6049
1.60999
1.61502
1.61998
1.62487
1.62968
1.63441
1.63905
1.64359
1.64802
1.65234
1.65653
1.66058
1.66448
1.66821
1.67177
1.67508
1.43674
1.44292
1.44907
1.45519
1.46127
1.46733
1.47335
1.47934
1.4853
1.49123
1.49712
1.50297
1.5088
1.51459
1.52035
1.52607
1.53176
1.53741
1.54303
1.54861
1.55415
1.55965
1.56511
1.57052
1.57589
1.58121
1.58648
1.5917
1.59686
1.60196
1.60699
1.61195
1.61684
1.62164
1.62636
1.63098
1.6355
1.6399
1.64418
1.64833
1.65233
1.65617
1.65984
1.66332
1.66655
1.42808
1.4343
1.44048
1.44664
1.45276
1.45885
1.46491
1.47094
1.47693
1.48289
1.48881
1.4947
1.50056
1.50638
1.51217
1.51793
1.52365
1.52933
1.53498
1.54058
1.54615
1.55167
1.55715
1.56259
1.56797
1.57331
1.57859
1.58382
1.58898
1.59408
1.59912
1.60407
1.60895
1.61374
1.61844
1.62303
1.62752
1.63189
1.63612
1.64022
1.64416
1.64794
1.65152
1.65492
1.65805
1.41971
1.42596
1.43218
1.43837
1.44452
1.45064
1.45673
1.46279
1.46881
1.4748
1.48075
1.48667
1.49256
1.49842
1.50423
1.51002
1.51576
1.52147
1.52714
1.53276
1.53835
1.54389
1.54939
1.55483
1.56023
1.56558
1.57086
1.57609
1.58126
1.58635
1.59138
1.59632
1.60118
1.60595
1.61062
1.61518
1.61963
1.62395
1.62814
1.63218
1.63605
1.63975
1.64325
1.64655
1.64957
1.41788
1.42413
1.43034
1.43652
1.44267
1.44879
1.45487
1.46093
1.46694
1.47293
1.47887
1.48479
1.49066