/*--------------------------------*- C++ -*----------------------------------*\
| =========                 |                                                 |
| \\      /  F ield         | OpenFOAM: The Open Source CFD Toolbox           |
|  \\    /   O peration     | Version:  v1706                                 |
|   \\  /    A nd           | Web:      www.OpenFOAM.com                      |
|    \\/     M anipulation  |                                                 |
\*---------------------------------------------------------------------------*/
FoamFile
{
    version     2.0;
    format      ascii;
    class       volScalarField;
    location    "1e-05";
    object      mu;
}
// * * * * * * * * * * * * * * * * * * * * * * * * * * * * * * * * * * * * * //

dimensions      [1 -1 -1 0 0 0 0];


internalField   nonuniform List<scalar> 
30038
(
1.0351e-05
1.0351e-05
1.0351e-05
1.0351e-05
1.0351e-05
1.0351e-05
1.0351e-05
1.0351e-05
1.0351e-05
1.0351e-05
1.0351e-05
1.0351e-05
1.0351e-05
1.0351e-05
1.0351e-05
1.0351e-05
1.0351e-05
1.0351e-05
1.0351e-05
1.0351e-05
1.0351e-05
1.0351e-05
1.0351e-05
1.0351e-05
1.0351e-05
1.0351e-05
1.0351e-05
1.0351e-05
1.0351e-05
1.0351e-05
1.0351e-05
1.0351e-05
1.0351e-05
1.0351e-05
1.0351e-05
1.0351e-05
1.0351e-05
1.0351e-05
1.0351e-05
1.0351e-05
1.0351e-05
1.0351e-05
1.0351e-05
1.0351e-05
1.0351e-05
1.0351e-05
1.0351e-05
1.0351e-05
1.0351e-05
1.0351e-05
1.0351e-05
1.0351e-05
1.0351e-05
1.0351e-05
1.0351e-05
1.0351e-05
1.0351e-05
1.0351e-05
1.0351e-05
1.0351e-05
1.0351e-05
1.0351e-05
1.0351e-05
1.0351e-05
1.0351e-05
1.0351e-05
1.0351e-05
1.0351e-05
1.0351e-05
1.0351e-05
1.0351e-05
1.0351e-05
1.0351e-05
1.0351e-05
1.0351e-05
1.0351e-05
1.0351e-05
1.0351e-05
1.0351e-05
1.0351e-05
1.0351e-05
1.0351e-05
1.0351e-05
1.0351e-05
1.0351e-05
1.0351e-05
1.0351e-05
1.0351e-05
1.0351e-05
1.0351e-05
1.0351e-05
1.0351e-05
1.0351e-05
1.0351e-05
1.0351e-05
1.0351e-05
1.0351e-05
1.0351e-05
1.0351e-05
1.0351e-05
1.0351e-05
1.0351e-05
1.0351e-05
1.0351e-05
1.0351e-05
1.0351e-05
1.0351e-05
1.0351e-05
1.0351e-05
1.0351e-05
1.0351e-05
1.0351e-05
1.0351e-05
1.0351e-05
1.0351e-05
1.0351e-05
1.0351e-05
1.0351e-05
1.0351e-05
1.0351e-05
1.0351e-05
1.0351e-05
1.0351e-05
1.0351e-05
1.0351e-05
1.0351e-05
1.0351e-05
1.0351e-05
1.0351e-05
1.0351e-05
1.0351e-05
1.0351e-05
1.0351e-05
1.0351e-05
1.0351e-05
1.0351e-05
1.0351e-05
1.0351e-05
1.0351e-05
1.0351e-05
1.0351e-05
1.0351e-05
1.0351e-05
1.0351e-05
1.0351e-05
1.0351e-05
1.0351e-05
1.0351e-05
1.0351e-05
1.0351e-05
1.0351e-05
1.0351e-05
1.0351e-05
1.0351e-05
1.0351e-05
1.0351e-05
1.0351e-05
1.0351e-05
1.0351e-05
1.0351e-05
1.0351e-05
1.0351e-05
1.0351e-05
1.0351e-05
1.0351e-05
1.0351e-05
1.0351e-05
1.0351e-05
1.0351e-05
1.0351e-05
1.0351e-05
1.0351e-05
1.0351e-05
1.0351e-05
1.0351e-05
1.0351e-05
1.0351e-05
1.0351e-05
1.0351e-05
1.0351e-05
1.0351e-05
1.0351e-05
1.0351e-05
1.0351e-05
1.0351e-05
1.0351e-05
1.0351e-05
1.0351e-05
1.0351e-05
1.0351e-05
1.0351e-05
1.0351e-05
1.0351e-05
1.0351e-05
1.0351e-05
1.0351e-05
1.0351e-05
1.0351e-05
1.0351e-05
1.0351e-05
1.0351e-05
1.0351e-05
1.0351e-05
1.0351e-05
1.0351e-05
1.0351e-05
1.0351e-05
1.0351e-05
1.0351e-05
1.0351e-05
1.0351e-05
1.0351e-05
1.0351e-05
1.0351e-05
1.0351e-05
1.0351e-05
1.0351e-05
1.0351e-05
1.0351e-05
1.0351e-05
1.0351e-05
1.0351e-05
1.0351e-05
1.0351e-05
1.0351e-05
1.0351e-05
1.0351e-05
1.0351e-05
1.0351e-05
1.0351e-05
1.0351e-05
1.0351e-05
1.0351e-05
1.0351e-05
1.0351e-05
1.0351e-05
1.0351e-05
1.0351e-05
1.0351e-05
1.0351e-05
1.0351e-05
1.0351e-05
1.0351e-05
1.0351e-05
1.0351e-05
1.0351e-05
1.0351e-05
1.0351e-05
1.0351e-05
1.0351e-05
1.0351e-05
1.0351e-05
1.0351e-05
1.0351e-05
1.0351e-05
1.0351e-05
1.0351e-05
1.0351e-05
1.0351e-05
1.0351e-05
1.0351e-05
1.0351e-05
1.0351e-05
1.0351e-05
1.0351e-05
1.0351e-05
1.0351e-05
1.0351e-05
1.0351e-05
1.0351e-05
1.0351e-05
1.0351e-05
1.0351e-05
1.0351e-05
1.0351e-05
1.0351e-05
1.0351e-05
1.0351e-05
1.0351e-05
1.0351e-05
1.0351e-05
1.0351e-05
1.0351e-05
1.0351e-05
1.0351e-05
1.0351e-05
1.0351e-05
1.0351e-05
1.0351e-05
1.0351e-05
1.0351e-05
1.0351e-05
1.0351e-05
1.0351e-05
1.0351e-05
1.0351e-05
1.0351e-05
1.0351e-05
1.0351e-05
1.0351e-05
1.0351e-05
1.0351e-05
1.0351e-05
1.0351e-05
1.0351e-05
1.0351e-05
1.0351e-05
1.0351e-05
1.0351e-05
1.0351e-05
1.0351e-05
1.0351e-05
1.0351e-05
1.0351e-05
1.0351e-05
1.0351e-05
1.0351e-05
1.0351e-05
1.0351e-05
1.0351e-05
1.0351e-05
1.0351e-05
1.0351e-05
1.0351e-05
1.0351e-05
1.0351e-05
1.0351e-05
1.0351e-05
1.0351e-05
1.0351e-05
1.0351e-05
1.0351e-05
1.0351e-05
1.0351e-05
1.0351e-05
1.0351e-05
1.0351e-05
1.0351e-05
1.0351e-05
1.0351e-05
1.0351e-05
1.0351e-05
1.0351e-05
1.0351e-05
1.0351e-05
1.0351e-05
1.0351e-05
1.0351e-05
1.0351e-05
1.0351e-05
1.0351e-05
1.0351e-05
1.0351e-05
1.0351e-05
1.0351e-05
1.0351e-05
1.0351e-05
1.0351e-05
1.0351e-05
1.0351e-05
1.0351e-05
1.0351e-05
1.0351e-05
1.0351e-05
1.0351e-05
1.0351e-05
1.0351e-05
1.0351e-05
1.0351e-05
1.0351e-05
1.0351e-05
1.0351e-05
1.0351e-05
1.0351e-05
1.0351e-05
1.0351e-05
1.0351e-05
1.0351e-05
1.0351e-05
1.0351e-05
1.0351e-05
1.0351e-05
1.0351e-05
1.0351e-05
1.0351e-05
1.0351e-05
1.0351e-05
1.0351e-05
1.0351e-05
1.0351e-05
1.0351e-05
1.0351e-05
1.0351e-05
1.0351e-05
1.0351e-05
1.0351e-05
1.0351e-05
1.0351e-05
1.0351e-05
1.0351e-05
1.0351e-05
1.0351e-05
1.0351e-05
1.0351e-05
1.0351e-05
1.0351e-05
1.0351e-05
1.0351e-05
1.0351e-05
1.0351e-05
1.0351e-05
1.0351e-05
1.0351e-05
1.0351e-05
1.0351e-05
1.0351e-05
1.0351e-05
1.0351e-05
1.0351e-05
1.0351e-05
1.0351e-05
1.0351e-05
1.0351e-05
1.0351e-05
1.0351e-05
1.0351e-05
1.0351e-05
1.0351e-05
1.0351e-05
1.0351e-05
1.0351e-05
1.0351e-05
1.0351e-05
1.0351e-05
1.0351e-05
1.0351e-05
1.0351e-05
1.0351e-05
1.0351e-05
1.0351e-05
1.0351e-05
1.0351e-05
1.0351e-05
1.0351e-05
1.0351e-05
1.0351e-05
1.0351e-05
1.0351e-05
1.0351e-05
1.0351e-05
1.0351e-05
1.0351e-05
1.0351e-05
1.0351e-05
1.0351e-05
1.0351e-05
1.0351e-05
1.0351e-05
1.0351e-05
1.0351e-05
1.0351e-05
1.0351e-05
1.0351e-05
1.0351e-05
1.0351e-05
1.0351e-05
1.0351e-05
1.0351e-05
1.0351e-05
1.0351e-05
1.0351e-05
1.0351e-05
1.0351e-05
1.0351e-05
1.0351e-05
1.0351e-05
1.0351e-05
1.0351e-05
1.0351e-05
1.0351e-05
1.0351e-05
1.0351e-05
1.0351e-05
1.0351e-05
1.0351e-05
1.0351e-05
1.0351e-05
1.0351e-05
1.0351e-05
1.0351e-05
1.0351e-05
1.0351e-05
1.0351e-05
1.0351e-05
1.0351e-05
1.0351e-05
1.0351e-05
1.0351e-05
1.0351e-05
1.0351e-05
1.0351e-05
1.0351e-05
1.0351e-05
1.0351e-05
1.0351e-05
1.0351e-05
1.0351e-05
1.0351e-05
1.0351e-05
1.0351e-05
1.0351e-05
1.0351e-05
1.0351e-05
1.0351e-05
1.0351e-05
1.0351e-05
1.0351e-05
1.0351e-05
1.0351e-05
1.0351e-05
1.0351e-05
1.0351e-05
1.0351e-05
1.0351e-05
1.0351e-05
1.0351e-05
1.0351e-05
1.0351e-05
1.0351e-05
1.0351e-05
1.0351e-05
1.0351e-05
1.0351e-05
1.0351e-05
1.0351e-05
1.0351e-05
1.0351e-05
1.0351e-05
1.0351e-05
1.0351e-05
1.0351e-05
1.0351e-05
1.0351e-05
1.0351e-05
1.0351e-05
1.0351e-05
1.0351e-05
1.0351e-05
1.0351e-05
1.0351e-05
1.0351e-05
1.0351e-05
1.0351e-05
1.0351e-05
1.0351e-05
1.0351e-05
1.0351e-05
1.0351e-05
1.0351e-05
1.0351e-05
1.0351e-05
1.0351e-05
1.0351e-05
1.0351e-05
1.0351e-05
1.0351e-05
1.0351e-05
1.0351e-05
1.0351e-05
1.0351e-05
1.0351e-05
1.0351e-05
1.0351e-05
1.0351e-05
1.0351e-05
1.0351e-05
1.0351e-05
1.0351e-05
1.0351e-05
1.0351e-05
1.0351e-05
1.0351e-05
1.0351e-05
1.0351e-05
1.0351e-05
1.0351e-05
1.0351e-05
1.0351e-05
1.0351e-05
1.0351e-05
1.0351e-05
1.0351e-05
1.0351e-05
1.0351e-05
1.0351e-05
1.0351e-05
1.0351e-05
1.0351e-05
1.0351e-05
1.0351e-05
1.0351e-05
1.0351e-05
1.0351e-05
1.0351e-05
1.0351e-05
1.0351e-05
1.0351e-05
1.0351e-05
1.0351e-05
1.0351e-05
1.0351e-05
1.0351e-05
1.0351e-05
1.0351e-05
1.0351e-05
1.0351e-05
1.0351e-05
1.0351e-05
1.0351e-05
1.0351e-05
1.0351e-05
1.0351e-05
1.0351e-05
1.0351e-05
1.0351e-05
1.0351e-05
1.0351e-05
1.0351e-05
1.0351e-05
1.0351e-05
1.0351e-05
1.0351e-05
1.0351e-05
1.0351e-05
1.0351e-05
1.0351e-05
1.0351e-05
1.0351e-05
1.0351e-05
1.0351e-05
1.0351e-05
1.0351e-05
1.0351e-05
1.0351e-05
1.0351e-05
1.0351e-05
1.0351e-05
1.0351e-05
1.0351e-05
1.0351e-05
1.0351e-05
1.0351e-05
1.0351e-05
1.0351e-05
1.0351e-05
1.0351e-05
1.0351e-05
1.0351e-05
1.0351e-05
1.0351e-05
1.0351e-05
1.0351e-05
1.0351e-05
1.0351e-05
1.0351e-05
1.0351e-05
1.0351e-05
1.0351e-05
1.0351e-05
1.0351e-05
1.0351e-05
1.0351e-05
1.0351e-05
1.0351e-05
1.0351e-05
1.0351e-05
1.0351e-05
1.0351e-05
1.0351e-05
1.0351e-05
1.0351e-05
1.0351e-05
1.0351e-05
1.0351e-05
1.0351e-05
1.0351e-05
1.0351e-05
1.0351e-05
1.0351e-05
1.0351e-05
1.0351e-05
1.0351e-05
1.0351e-05
1.0351e-05
1.0351e-05
1.0351e-05
1.0351e-05
1.0351e-05
1.0351e-05
1.0351e-05
1.0351e-05
1.0351e-05
1.0351e-05
1.0351e-05
1.0351e-05
1.0351e-05
1.0351e-05
1.0351e-05
1.0351e-05
1.0351e-05
1.0351e-05
1.0351e-05
1.0351e-05
1.0351e-05
1.0351e-05
1.0351e-05
1.0351e-05
1.0351e-05
1.0351e-05
1.0351e-05
1.0351e-05
1.0351e-05
1.0351e-05
1.0351e-05
1.0351e-05
1.0351e-05
1.0351e-05
1.0351e-05
1.0351e-05
1.0351e-05
1.0351e-05
1.0351e-05
1.0351e-05
1.0351e-05
1.0351e-05
1.0351e-05
1.0351e-05
1.0351e-05
1.0351e-05
1.0351e-05
1.0351e-05
1.0351e-05
1.0351e-05
1.0351e-05
1.0351e-05
1.0351e-05
1.0351e-05
1.0351e-05
1.0351e-05
1.0351e-05
1.0351e-05
1.0351e-05
1.0351e-05
1.0351e-05
1.0351e-05
1.0351e-05
1.0351e-05
1.0351e-05
1.0351e-05
1.0351e-05
1.0351e-05
1.0351e-05
1.0351e-05
1.0351e-05
1.0351e-05
1.0351e-05
1.0351e-05
1.0351e-05
1.0351e-05
1.0351e-05
1.0351e-05
1.0351e-05
1.0351e-05
1.0351e-05
1.0351e-05
1.0351e-05
1.0351e-05
1.0351e-05
1.0351e-05
1.0351e-05
1.0351e-05
1.0351e-05
1.0351e-05
1.0351e-05
1.0351e-05
1.0351e-05
1.0351e-05
1.0351e-05
1.0351e-05
1.0351e-05
1.0351e-05
1.0351e-05
1.0351e-05
1.0351e-05
1.0351e-05
1.0351e-05
1.0351e-05
1.0351e-05
1.0351e-05
1.0351e-05
1.0351e-05
1.0351e-05
1.0351e-05
1.0351e-05
1.0351e-05
1.0351e-05
1.0351e-05
1.0351e-05
1.0351e-05
1.0351e-05
1.0351e-05
1.0351e-05
1.0351e-05
1.0351e-05
1.0351e-05
1.0351e-05
1.0351e-05
1.0351e-05
1.0351e-05
1.0351e-05
1.0351e-05
1.0351e-05
1.0351e-05
1.0351e-05
1.0351e-05
1.0351e-05
1.0351e-05
1.0351e-05
1.0351e-05
1.0351e-05
1.0351e-05
1.0351e-05
1.0351e-05
1.0351e-05
1.0351e-05
1.0351e-05
1.0351e-05
1.0351e-05
1.0351e-05
1.0351e-05
1.0351e-05
1.0351e-05
1.0351e-05
1.0351e-05
1.0351e-05
1.0351e-05
1.0351e-05
1.0351e-05
1.0351e-05
1.0351e-05
1.0351e-05
1.0351e-05
1.0351e-05
1.0351e-05
1.0351e-05
1.0351e-05
1.0351e-05
1.0351e-05
1.0351e-05
1.0351e-05
1.0351e-05
1.0351e-05
1.0351e-05
1.0351e-05
1.0351e-05
1.0351e-05
1.0351e-05
1.0351e-05
1.0351e-05
1.0351e-05
1.0351e-05
1.0351e-05
1.0351e-05
1.0351e-05
1.0351e-05
1.0351e-05
1.0351e-05
1.0351e-05
1.0351e-05
1.0351e-05
1.0351e-05
1.0351e-05
1.0351e-05
1.0351e-05
1.0351e-05
1.0351e-05
1.0351e-05
1.0351e-05
1.0351e-05
1.0351e-05
1.0351e-05
1.0351e-05
1.0351e-05
1.0351e-05
1.0351e-05
1.0351e-05
1.0351e-05
1.0351e-05
1.0351e-05
1.0351e-05
1.0351e-05
1.0351e-05
1.0351e-05
1.0351e-05
1.0351e-05
1.0351e-05
1.0351e-05
1.0351e-05
1.0351e-05
1.0351e-05
1.0351e-05
1.0351e-05
1.0351e-05
1.0351e-05
1.0351e-05
1.0351e-05
1.0351e-05
1.0351e-05
1.0351e-05
1.0351e-05
1.0351e-05
1.0351e-05
1.0351e-05
1.0351e-05
1.0351e-05
1.0351e-05
1.0351e-05
1.0351e-05
1.0351e-05
1.0351e-05
1.0351e-05
1.0351e-05
1.0351e-05
1.0351e-05
1.0351e-05
1.0351e-05
1.0351e-05
1.0351e-05
1.0351e-05
1.0351e-05
1.0351e-05
1.0351e-05
1.0351e-05
1.0351e-05
1.0351e-05
1.0351e-05
1.0351e-05
1.0351e-05
1.0351e-05
1.0351e-05
1.0351e-05
1.0351e-05
1.0351e-05
1.0351e-05
1.0351e-05
1.0351e-05
1.0351e-05
1.0351e-05
1.0351e-05
1.0351e-05
1.0351e-05
1.0351e-05
1.0351e-05
1.0351e-05
1.0351e-05
1.0351e-05
1.0351e-05
1.0351e-05
1.0351e-05
1.0351e-05
1.0351e-05
1.0351e-05
1.0351e-05
1.0351e-05
1.0351e-05
1.0351e-05
1.0351e-05
1.0351e-05
1.0351e-05
1.0351e-05
1.0351e-05
1.0351e-05
1.0351e-05
1.0351e-05
1.0351e-05
1.0351e-05
1.0351e-05
1.0351e-05
1.0351e-05
1.0351e-05
1.0351e-05
1.0351e-05
1.0351e-05
1.0351e-05
1.0351e-05
1.0351e-05
1.0351e-05
1.0351e-05
1.0351e-05
1.0351e-05
1.0351e-05
1.0351e-05
1.0351e-05
1.0351e-05
1.0351e-05
1.0351e-05
1.0351e-05
1.0351e-05
1.0351e-05
1.0351e-05
1.0351e-05
1.0351e-05
1.0351e-05
1.0351e-05
1.0351e-05
1.0351e-05
1.0351e-05
1.0351e-05
1.0351e-05
1.0351e-05
1.0351e-05
1.0351e-05
1.0351e-05
1.0351e-05
1.0351e-05
1.0351e-05
1.0351e-05
1.0351e-05
1.0351e-05
1.0351e-05
1.0351e-05
1.0351e-05
1.0351e-05
1.0351e-05
1.0351e-05
1.0351e-05
1.0351e-05
1.0351e-05
1.0351e-05
1.0351e-05
1.0351e-05
1.0351e-05
1.0351e-05
1.0351e-05
1.0351e-05
1.0351e-05
1.0351e-05
1.0351e-05
1.0351e-05
1.0351e-05
1.0351e-05
1.0351e-05
1.0351e-05
1.0351e-05
1.0351e-05
1.0351e-05
1.0351e-05
1.0351e-05
1.0351e-05
1.0351e-05
1.0351e-05
1.0351e-05
1.0351e-05
1.0351e-05
1.0351e-05
1.0351e-05
1.0351e-05
1.0351e-05
1.0351e-05
1.0351e-05
1.0351e-05
1.0351e-05
1.0351e-05
1.0351e-05
1.0351e-05
1.0351e-05
1.0351e-05
1.0351e-05
1.0351e-05
1.0351e-05
1.0351e-05
1.0351e-05
1.0351e-05
1.0351e-05
1.0351e-05
1.0351e-05
1.0351e-05
1.0351e-05
1.0351e-05
1.0351e-05
1.0351e-05
1.0351e-05
1.0351e-05
1.0351e-05
1.0351e-05
1.0351e-05
1.0351e-05
1.0351e-05
1.0351e-05
1.0351e-05
1.0351e-05
1.0351e-05
1.0351e-05
1.0351e-05
1.0351e-05
1.0351e-05
1.0351e-05
1.0351e-05
1.0351e-05
1.0351e-05
1.0351e-05
1.0351e-05
1.0351e-05
1.0351e-05
1.0351e-05
1.0351e-05
1.0351e-05
1.0351e-05
1.0351e-05
1.0351e-05
1.0351e-05
1.0351e-05
1.0351e-05
1.0351e-05
1.0351e-05
1.0351e-05
1.0351e-05
1.0351e-05
1.0351e-05
1.0351e-05
1.0351e-05
1.0351e-05
1.0351e-05
1.0351e-05
1.0351e-05
1.0351e-05
1.0351e-05
1.0351e-05
1.0351e-05
1.0351e-05
1.0351e-05
1.0351e-05
1.0351e-05
1.0351e-05
1.0351e-05
1.0351e-05
1.0351e-05
1.0351e-05
1.0351e-05
1.0351e-05
1.0351e-05
1.0351e-05
1.0351e-05
1.0351e-05
1.0351e-05
1.0351e-05
1.0351e-05
1.0351e-05
1.0351e-05
1.0351e-05
1.0351e-05
1.0351e-05
1.0351e-05
1.0351e-05
1.0351e-05
1.0351e-05
1.0351e-05
1.0351e-05
1.0351e-05
1.0351e-05
1.0351e-05
1.0351e-05
1.0351e-05
1.0351e-05
1.0351e-05
1.0351e-05
1.0351e-05
1.0351e-05
1.0351e-05
1.0351e-05
1.0351e-05
1.0351e-05
1.0351e-05
1.0351e-05
1.0351e-05
1.0351e-05
1.0351e-05
1.0351e-05
1.0351e-05
1.0351e-05
1.0351e-05
1.03511e-05
1.0351e-05
1.0351e-05
1.0351e-05
1.0351e-05
1.0351e-05
1.0351e-05
1.0351e-05
1.0351e-05
1.0351e-05
1.0351e-05
1.0351e-05
1.0351e-05
1.0351e-05
1.0351e-05
1.0351e-05
1.0351e-05
1.0351e-05
1.0351e-05
1.0351e-05
1.0351e-05
1.0351e-05
1.0351e-05
1.0351e-05
1.0351e-05
1.0351e-05
1.0351e-05
1.0351e-05
1.0351e-05
1.0351e-05
1.0351e-05
1.0351e-05
1.0351e-05
1.0351e-05
1.0351e-05
1.0351e-05
1.0351e-05
1.0351e-05
1.0351e-05
1.0351e-05
1.0351e-05
1.0351e-05
1.0351e-05
1.0351e-05
1.0351e-05
1.0351e-05
1.0351e-05
1.03511e-05
1.03511e-05
1.03513e-05
1.03515e-05
1.0351e-05
1.0351e-05
1.0351e-05
1.0351e-05
1.0351e-05
1.0351e-05
1.0351e-05
1.0351e-05
1.0351e-05
1.0351e-05
1.0351e-05
1.0351e-05
1.0351e-05
1.0351e-05
1.0351e-05
1.0351e-05
1.0351e-05
1.0351e-05
1.0351e-05
1.0351e-05
1.0351e-05
1.0351e-05
1.0351e-05
1.0351e-05
1.0351e-05
1.0351e-05
1.0351e-05
1.0351e-05
1.0351e-05
1.0351e-05
1.0351e-05
1.0351e-05
1.0351e-05
1.0351e-05
1.0351e-05
1.0351e-05
1.0351e-05
1.0351e-05
1.0351e-05
1.0351e-05
1.0351e-05
1.0351e-05
1.0351e-05
1.03511e-05
1.03511e-05
1.03513e-05
1.03515e-05
1.03518e-05
1.03526e-05
1.0354e-05
1.0351e-05
1.0351e-05
1.0351e-05
1.0351e-05
1.0351e-05
1.0351e-05
1.0351e-05
1.0351e-05
1.0351e-05
1.0351e-05
1.0351e-05
1.0351e-05
1.0351e-05
1.0351e-05
1.0351e-05
1.0351e-05
1.0351e-05
1.0351e-05
1.0351e-05
1.0351e-05
1.0351e-05
1.0351e-05
1.0351e-05
1.0351e-05
1.0351e-05
1.0351e-05
1.0351e-05
1.0351e-05
1.0351e-05
1.0351e-05
1.0351e-05
1.0351e-05
1.0351e-05
1.0351e-05
1.0351e-05
1.0351e-05
1.0351e-05
1.0351e-05
1.0351e-05
1.0351e-05
1.03511e-05
1.03511e-05
1.03513e-05
1.03515e-05
1.03518e-05
1.03525e-05
1.03537e-05
1.03559e-05
1.03601e-05
1.03683e-05
1.0351e-05
1.0351e-05
1.0351e-05
1.0351e-05
1.0351e-05
1.0351e-05
1.0351e-05
1.0351e-05
1.0351e-05
1.0351e-05
1.0351e-05
1.0351e-05
1.0351e-05
1.0351e-05
1.0351e-05
1.0351e-05
1.0351e-05
1.0351e-05
1.0351e-05
1.0351e-05
1.0351e-05
1.0351e-05
1.0351e-05
1.0351e-05
1.0351e-05
1.0351e-05
1.0351e-05
1.0351e-05
1.0351e-05
1.0351e-05
1.0351e-05
1.0351e-05
1.0351e-05
1.0351e-05
1.0351e-05
1.0351e-05
1.03511e-05
1.03511e-05
1.03512e-05
1.03513e-05
1.03515e-05
1.03518e-05
1.03525e-05
1.03537e-05
1.03558e-05
1.03596e-05
1.03665e-05
1.0379e-05
1.04022e-05
1.04473e-05
1.0351e-05
1.0351e-05
1.0351e-05
1.0351e-05
1.0351e-05
1.0351e-05
1.0351e-05
1.0351e-05
1.0351e-05
1.0351e-05
1.0351e-05
1.0351e-05
1.0351e-05
1.0351e-05
1.0351e-05
1.0351e-05
1.0351e-05
1.0351e-05
1.0351e-05
1.0351e-05
1.0351e-05
1.0351e-05
1.0351e-05
1.0351e-05
1.0351e-05
1.0351e-05
1.0351e-05
1.0351e-05
1.0351e-05
1.0351e-05
1.0351e-05
1.0351e-05
1.0351e-05
1.03511e-05
1.03511e-05
1.03512e-05
1.03513e-05
1.03515e-05
1.03519e-05
1.03525e-05
1.03537e-05
1.03558e-05
1.03595e-05
1.03661e-05
1.03779e-05
1.03991e-05
1.04372e-05
1.05058e-05
1.06302e-05
1.08619e-05
1.0351e-05
1.0351e-05
1.0351e-05
1.0351e-05
1.0351e-05
1.0351e-05
1.0351e-05
1.0351e-05
1.0351e-05
1.0351e-05
1.0351e-05
1.0351e-05
1.0351e-05
1.0351e-05
1.0351e-05
1.0351e-05
1.0351e-05
1.0351e-05
1.0351e-05
1.0351e-05
1.0351e-05
1.0351e-05
1.0351e-05
1.0351e-05
1.0351e-05
1.0351e-05
1.0351e-05
1.0351e-05
1.0351e-05
1.0351e-05
1.03511e-05
1.03511e-05
1.03512e-05
1.03513e-05
1.03516e-05
1.03519e-05
1.03526e-05
1.03538e-05
1.0356e-05
1.03597e-05
1.03662e-05
1.03777e-05
1.03981e-05
1.04342e-05
1.04981e-05
1.06112e-05
1.08098e-05
1.11541e-05
1.17393e-05
1.27127e-05
1.0351e-05
1.0351e-05
1.0351e-05
1.0351e-05
1.0351e-05
1.0351e-05
1.0351e-05
1.0351e-05
1.0351e-05
1.0351e-05
1.0351e-05
1.0351e-05
1.0351e-05
1.0351e-05
1.0351e-05
1.0351e-05
1.0351e-05
1.0351e-05
1.0351e-05
1.0351e-05
1.0351e-05
1.0351e-05
1.0351e-05
1.0351e-05
1.0351e-05
1.0351e-05
1.0351e-05
1.03511e-05
1.03511e-05
1.03512e-05
1.03514e-05
1.03516e-05
1.0352e-05
1.03528e-05
1.03541e-05
1.03563e-05
1.03601e-05
1.03667e-05
1.03782e-05
1.03984e-05
1.04336e-05
1.04953e-05
1.06028e-05
1.07891e-05
1.11078e-05
1.16404e-05
1.24992e-05
1.38168e-05
1.57207e-05
1.82957e-05
1.0351e-05
1.0351e-05
1.0351e-05
1.0351e-05
1.0351e-05
1.0351e-05
1.0351e-05
1.0351e-05
1.0351e-05
1.0351e-05
1.0351e-05
1.0351e-05
1.0351e-05
1.0351e-05
1.0351e-05
1.0351e-05
1.0351e-05
1.0351e-05
1.0351e-05
1.0351e-05
1.0351e-05
1.0351e-05
1.0351e-05
1.03511e-05
1.03511e-05
1.03512e-05
1.03513e-05
1.03514e-05
1.03517e-05
1.03522e-05
1.0353e-05
1.03544e-05
1.03567e-05
1.03608e-05
1.03677e-05
1.03796e-05
1.04001e-05
1.04354e-05
1.04965e-05
1.06016e-05
1.07815e-05
1.10856e-05
1.15885e-05
1.23927e-05
1.3619e-05
1.53808e-05
1.77484e-05
2.07234e-05
2.42416e-05
2.8184e-05
1.0351e-05
1.0351e-05
1.0351e-05
1.0351e-05
1.0351e-05
1.0351e-05
1.0351e-05
1.0351e-05
1.0351e-05
1.0351e-05
1.0351e-05
1.0351e-05
1.0351e-05
1.0351e-05
1.0351e-05
1.0351e-05
1.0351e-05
1.0351e-05
1.0351e-05
1.0351e-05
1.03511e-05
1.03511e-05
1.03512e-05
1.03513e-05
1.03515e-05
1.03518e-05
1.03524e-05
1.03533e-05
1.03548e-05
1.03574e-05
1.03618e-05
1.03692e-05
1.03818e-05
1.04032e-05
1.04397e-05
1.05018e-05
1.06073e-05
1.07857e-05
1.10833e-05
1.15701e-05
1.23409e-05
1.35084e-05
1.51794e-05
1.74232e-05
2.02458e-05
2.35862e-05
2.73366e-05
3.13702e-05
3.55688e-05
3.98196e-05
1.0351e-05
1.0351e-05
1.0351e-05
1.0351e-05
1.0351e-05
1.0351e-05
1.0351e-05
1.0351e-05
1.0351e-05
1.0351e-05
1.0351e-05
1.0351e-05
1.0351e-05
1.0351e-05
1.0351e-05
1.0351e-05
1.03511e-05
1.03511e-05
1.03511e-05
1.03512e-05
1.03514e-05
1.03516e-05
1.0352e-05
1.03527e-05
1.03537e-05
1.03555e-05
1.03584e-05
1.03633e-05
1.03714e-05
1.03851e-05
1.0408e-05
1.04466e-05
1.05115e-05
1.06203e-05
1.08016e-05
1.11003e-05
1.15827e-05
1.23378e-05
1.34708e-05
1.50818e-05
1.72375e-05
1.99475e-05
2.31599e-05
2.67769e-05
3.06786e-05
3.47458e-05
3.88733e-05
4.2973e-05
4.69647e-05
5.07895e-05
1.0351e-05
1.0351e-05
1.0351e-05
1.0351e-05
1.0351e-05
1.0351e-05
1.0351e-05
1.0351e-05
1.0351e-05
1.0351e-05
1.0351e-05
1.0351e-05
1.0351e-05
1.03511e-05
1.03511e-05
1.03512e-05
1.03513e-05
1.03515e-05
1.03518e-05
1.03522e-05
1.0353e-05
1.03543e-05
1.03563e-05
1.03597e-05
1.03653e-05
1.03745e-05
1.03897e-05
1.04149e-05
1.04568e-05
1.05263e-05
1.06413e-05
1.08304e-05
1.11375e-05
1.16265e-05
1.23821e-05
1.35024e-05
1.50802e-05
1.71775e-05
1.98043e-05
2.29149e-05
2.64205e-05
3.02113e-05
3.41755e-05
3.8212e-05
4.22349e-05
4.61654e-05
4.99358e-05
5.34944e-05
5.67868e-05
5.97625e-05
1.0351e-05
1.0351e-05
1.0351e-05
1.0351e-05
1.0351e-05
1.0351e-05
1.0351e-05
1.0351e-05
1.0351e-05
1.03511e-05
1.03511e-05
1.03512e-05
1.03513e-05
1.03514e-05
1.03516e-05
1.0352e-05
1.03526e-05
1.03535e-05
1.03551e-05
1.03575e-05
1.03615e-05
1.03681e-05
1.03787e-05
1.03961e-05
1.04246e-05
1.04712e-05
1.05475e-05
1.06721e-05
1.0874e-05
1.11971e-05
1.17039e-05
1.24753e-05
1.36032e-05
1.51723e-05
1.72382e-05
1.98084e-05
2.28403e-05
2.62525e-05
2.9944e-05
3.38112e-05
3.77595e-05
4.17082e-05
4.5586e-05
4.93262e-05
5.28739e-05
5.61808e-05
5.91885e-05
6.18278e-05
6.40348e-05
6.58123e-05
1.0351e-05
1.0351e-05
1.0351e-05
1.0351e-05
1.0351e-05
1.03511e-05
1.03511e-05
1.03511e-05
1.03512e-05
1.03513e-05
1.03515e-05
1.03518e-05
1.03523e-05
1.03531e-05
1.03543e-05
1.03562e-05
1.03592e-05
1.03641e-05
1.03719e-05
1.03845e-05
1.04049e-05
1.04377e-05
1.04909e-05
1.05768e-05
1.0715e-05
1.09356e-05
1.12831e-05
1.18194e-05
1.26222e-05
1.3777e-05
1.53602e-05
1.74191e-05
1.99569e-05
2.29316e-05
2.62674e-05
2.98711e-05
3.36474e-05
3.75087e-05
4.13795e-05
4.51951e-05
4.88935e-05
5.24205e-05
5.57311e-05
5.8778e-05
6.14993e-05
6.38306e-05
6.5731e-05
6.72058e-05
6.82962e-05
6.90905e-05
1.0351e-05
1.03511e-05
1.03511e-05
1.03511e-05
1.03512e-05
1.03513e-05
1.03515e-05
1.03517e-05
1.03521e-05
1.03528e-05
1.03538e-05
1.03553e-05
1.03577e-05
1.03615e-05
1.03676e-05
1.03772e-05
1.03925e-05
1.04169e-05
1.04558e-05
1.05179e-05
1.06168e-05
1.07736e-05
1.102e-05
1.14018e-05
1.19803e-05
1.28305e-05
1.40312e-05
1.56496e-05
1.77236e-05
2.02503e-05
2.31871e-05
2.64619e-05
2.99887e-05
3.36803e-05
3.74561e-05
4.12461e-05
4.49911e-05
4.86358e-05
5.21279e-05
5.5424e-05
5.84837e-05
6.12564e-05
6.36814e-05
6.5709e-05
6.73216e-05
6.85448e-05
6.94334e-05
7.00596e-05
7.04888e-05
7.07879e-05
1.03511e-05
1.03512e-05
1.03513e-05
1.03515e-05
1.03517e-05
1.0352e-05
1.03526e-05
1.03534e-05
1.03548e-05
1.03568e-05
1.03599e-05
1.03649e-05
1.03726e-05
1.03847e-05
1.04037e-05
1.04336e-05
1.04807e-05
1.05549e-05
1.06713e-05
1.08531e-05
1.11341e-05
1.15615e-05
1.21967e-05
1.31112e-05
1.43766e-05
1.60499e-05
1.81586e-05
2.06926e-05
2.36075e-05
2.68345e-05
3.02941e-05
3.39067e-05
3.75989e-05
4.13068e-05
4.49758e-05
4.85572e-05
5.2002e-05
5.52681e-05
5.8319e-05
6.11136e-05
6.35989e-05
6.5722e-05
6.74527e-05
6.87973e-05
6.97972e-05
7.05118e-05
7.10077e-05
7.13434e-05
7.15695e-05
7.1721e-05
7.18219e-05
1.03517e-05
1.0352e-05
1.03525e-05
1.03533e-05
1.03544e-05
1.03562e-05
1.0359e-05
1.03632e-05
1.03697e-05
1.03798e-05
1.03953e-05
1.04195e-05
1.0457e-05
1.05154e-05
1.06059e-05
1.07459e-05
1.0961e-05
1.12874e-05
1.17743e-05
1.24824e-05
1.34792e-05
1.48279e-05
1.65741e-05
1.87341e-05
2.12905e-05
2.41964e-05
2.73862e-05
3.07863e-05
3.43248e-05
3.79353e-05
4.156e-05
4.5149e-05
4.86589e-05
5.20455e-05
5.52687e-05
5.82939e-05
6.10866e-05
6.36022e-05
6.57902e-05
6.76131e-05
6.90625e-05
7.01638e-05
7.09668e-05
7.1532e-05
7.19198e-05
7.21783e-05
7.23492e-05
7.2459e-05
7.25241e-05
7.25667e-05
7.26057e-05
1.03532e-05
1.03543e-05
1.0356e-05
1.03585e-05
1.03623e-05
1.0368e-05
1.03768e-05
1.03902e-05
1.04107e-05
1.04421e-05
1.04902e-05
1.0564e-05
1.06768e-05
1.08485e-05
1.11076e-05
1.14932e-05
1.2056e-05
1.28553e-05
1.39532e-05
1.5403e-05
1.72379e-05
1.94627e-05
2.20526e-05
2.49589e-05
2.81188e-05
3.1465e-05
3.49325e-05
3.84624e-05
4.20027e-05
4.55083e-05
4.89403e-05
5.226e-05
5.5429e-05
5.84146e-05
6.11865e-05
6.37078e-05
6.5933e-05
6.78213e-05
6.93542e-05
7.05438e-05
7.14291e-05
7.20628e-05
7.25018e-05
7.27976e-05
7.29923e-05
7.31183e-05
7.31925e-05
7.3231e-05
7.32599e-05
7.32783e-05
7.327e-05
7.3247e-05
1.03619e-05
1.03673e-05
1.03753e-05
1.03874e-05
1.04056e-05
1.04331e-05
1.04748e-05
1.05378e-05
1.0633e-05
1.07763e-05
1.09907e-05
1.13078e-05
1.17697e-05
1.24276e-05
1.33384e-05
1.45564e-05
1.61235e-05
1.80597e-05
2.03587e-05
2.2989e-05
2.5901e-05
2.90351e-05
3.23304e-05
3.5729e-05
3.91787e-05
4.26333e-05
4.60526e-05
4.94015e-05
5.26461e-05
5.5751e-05
5.86851e-05
6.14209e-05
6.39275e-05
6.61651e-05
6.80935e-05
6.96881e-05
7.09499e-05
7.19067e-05
7.26036e-05
7.30937e-05
7.34279e-05
7.36475e-05
7.37887e-05
7.38747e-05
7.39176e-05
7.39396e-05
7.39566e-05
7.39514e-05
7.39275e-05
7.38879e-05
7.38383e-05
7.37871e-05
1.04034e-05
1.04288e-05
1.04666e-05
1.0523e-05
1.06071e-05
1.07322e-05
1.09173e-05
1.11889e-05
1.15821e-05
1.21411e-05
1.29163e-05
1.39595e-05
1.53155e-05
1.70131e-05
1.90592e-05
2.1437e-05
2.41102e-05
2.70291e-05
3.01384e-05
3.33833e-05
3.6713e-05
4.00817e-05
4.34488e-05
4.67786e-05
5.00397e-05
5.32023e-05
5.62343e-05
5.91065e-05
6.17934e-05
6.42686e-05
6.64978e-05
6.84435e-05
7.00777e-05
7.13934e-05
7.24089e-05
7.3162e-05
7.36994e-05
7.40693e-05
7.43154e-05
7.44737e-05
7.45706e-05
7.46196e-05
7.4639e-05
7.46486e-05
7.46459e-05
7.4624e-05
7.45834e-05
7.45323e-05
7.44729e-05
7.44113e-05
7.43507e-05
7.42931e-05
1.05949e-05
1.07091e-05
1.08762e-05
1.11187e-05
1.14668e-05
1.19586e-05
1.26389e-05
1.35553e-05
1.47516e-05
1.62606e-05
1.80974e-05
2.02564e-05
2.27126e-05
2.54262e-05
2.83492e-05
3.14312e-05
3.46238e-05
3.78827e-05
4.11685e-05
4.44456e-05
4.76827e-05
5.08516e-05
5.39263e-05
5.6878e-05
5.96793e-05
6.23063e-05
6.4736e-05
6.69392e-05
6.88816e-05
7.05344e-05
7.18856e-05
7.29457e-05
7.37444e-05
7.43226e-05
7.47262e-05
7.49982e-05
7.51725e-05
7.52786e-05
7.53369e-05
7.5358e-05
7.53583e-05
7.53539e-05
7.53355e-05
7.52952e-05
7.52408e-05
7.51776e-05
7.51099e-05
7.50407e-05
7.4973e-05
7.4906e-05
7.48401e-05
7.47763e-05
1.14077e-05
1.1857e-05
1.24744e-05
1.33029e-05
1.43839e-05
1.57507e-05
1.74226e-05
1.94011e-05
2.16699e-05
2.41981e-05
2.69451e-05
2.98658e-05
3.29152e-05
3.60514e-05
3.92364e-05
4.24363e-05
4.56205e-05
4.87614e-05
5.1834e-05
5.48153e-05
5.76797e-05
6.04017e-05
6.29593e-05
6.53317e-05
6.74939e-05
6.94152e-05
7.10677e-05
7.24363e-05
7.35253e-05
7.43579e-05
7.49698e-05
7.54024e-05
7.56963e-05
7.58865e-05
7.60026e-05
7.60683e-05
7.60905e-05
7.60867e-05
7.60773e-05
7.6058e-05
7.60176e-05
7.59614e-05
7.58975e-05
7.58249e-05
7.57493e-05
7.56734e-05
7.55988e-05
7.55242e-05
7.54504e-05
7.53774e-05
7.53055e-05
7.52348e-05
1.41798e-05
1.54457e-05
1.69945e-05
1.88315e-05
2.09465e-05
2.33153e-05
2.59039e-05
2.86729e-05
3.15816e-05
3.45909e-05
3.76648e-05
4.07713e-05
4.38815e-05
4.6969e-05
5.00098e-05
5.29819e-05
5.58646e-05
5.86353e-05
6.12707e-05
6.37502e-05
6.60552e-05
6.81638e-05
7.0049e-05
7.16842e-05
7.3053e-05
7.41554e-05
7.50096e-05
7.56458e-05
7.61007e-05
7.64133e-05
7.6618e-05
7.67426e-05
7.68125e-05
7.68393e-05
7.68333e-05
7.68172e-05
7.67936e-05
7.67548e-05
7.66975e-05
7.66299e-05
7.65535e-05
7.64718e-05
7.6389e-05
7.63074e-05
7.6226e-05
7.61447e-05
7.60641e-05
7.59836e-05
7.59035e-05
7.58238e-05
7.5745e-05
7.56671e-05
2.05127e-05
2.27508e-05
2.52033e-05
2.78358e-05
3.06123e-05
3.34969e-05
3.64564e-05
3.94607e-05
4.2483e-05
4.54989e-05
4.84857e-05
5.14224e-05
5.42896e-05
5.70691e-05
5.97404e-05
6.22825e-05
6.46763e-05
6.69048e-05
6.8949e-05
7.07847e-05
7.23875e-05
7.37408e-05
7.48421e-05
7.57052e-05
7.63553e-05
7.68255e-05
7.71523e-05
7.73678e-05
7.74991e-05
7.7573e-05
7.76032e-05
7.7595e-05
7.75732e-05
7.75436e-05
7.7503e-05
7.74445e-05
7.73738e-05
7.7296e-05
7.72098e-05
7.71209e-05
7.70316e-05
7.69431e-05
7.68543e-05
7.67663e-05
7.6679e-05
7.65917e-05
7.65046e-05
7.64176e-05
7.63307e-05
7.6244e-05
7.61581e-05
7.6073e-05
3.27619e-05
3.56088e-05
3.8508e-05
4.14348e-05
4.43667e-05
4.72832e-05
5.01648e-05
5.29931e-05
5.57512e-05
5.84227e-05
6.09894e-05
6.34319e-05
6.5733e-05
6.78771e-05
6.98473e-05
7.16221e-05
7.31793e-05
7.45031e-05
7.55895e-05
7.64487e-05
7.71026e-05
7.75805e-05
7.79154e-05
7.81375e-05
7.82739e-05
7.83504e-05
7.8381e-05
7.83725e-05
7.83466e-05
7.83094e-05
7.82637e-05
7.82061e-05
7.81321e-05
7.80499e-05
7.79599e-05
7.78651e-05
7.77694e-05
7.76744e-05
7.75794e-05
7.74843e-05
7.73899e-05
7.72954e-05
7.72012e-05
7.71072e-05
7.70132e-05
7.69193e-05
7.68254e-05
7.67315e-05
7.66378e-05
7.65449e-05
7.64525e-05
4.35807e-05
4.64156e-05
4.92273e-05
5.19988e-05
5.47144e-05
5.7359e-05
5.9918e-05
6.2375e-05
6.47123e-05
6.69144e-05
6.89671e-05
7.08551e-05
7.25592e-05
7.40595e-05
7.53411e-05
7.63996e-05
7.72431e-05
7.78907e-05
7.8368e-05
7.87047e-05
7.89296e-05
7.90682e-05
7.91445e-05
7.91739e-05
7.91652e-05
7.91352e-05
7.90901e-05
7.90392e-05
7.89788e-05
7.89018e-05
7.88154e-05
7.87233e-05
7.86236e-05
7.85216e-05
7.84196e-05
7.83179e-05
7.82158e-05
7.81145e-05
7.80137e-05
7.79128e-05
7.7812e-05
7.77112e-05
7.76103e-05
7.75095e-05
7.74087e-05
7.73078e-05
7.72069e-05
7.71061e-05
7.70054e-05
7.69054e-05
7.68058e-05
5.39793e-05
5.65778e-05
5.91048e-05
6.15472e-05
6.38898e-05
6.61167e-05
6.8214e-05
7.01688e-05
7.19672e-05
7.35921e-05
7.50254e-05
7.62537e-05
7.72731e-05
7.80902e-05
7.87214e-05
7.91897e-05
7.9522e-05
7.9745e-05
7.98823e-05
7.99565e-05
7.99835e-05
7.99729e-05
7.99374e-05
7.98868e-05
7.98288e-05
7.97638e-05
7.96841e-05
7.95938e-05
7.94976e-05
7.93937e-05
7.92858e-05
7.91777e-05
7.90698e-05
7.89615e-05
7.88533e-05
7.87457e-05
7.86381e-05
7.85306e-05
7.84233e-05
7.8316e-05
7.82086e-05
7.81011e-05
7.79935e-05
7.78858e-05
7.7778e-05
7.76702e-05
7.75623e-05
7.74546e-05
7.73468e-05
7.72398e-05
7.71331e-05
6.55246e-05
6.76364e-05
6.96236e-05
7.14748e-05
7.31772e-05
7.47153e-05
7.60729e-05
7.72385e-05
7.82088e-05
7.89896e-05
7.95953e-05
8.0047e-05
8.03687e-05
8.05843e-05
8.07167e-05
8.07869e-05
8.08091e-05
8.0795e-05
8.07556e-05
8.06984e-05
8.06322e-05
8.05608e-05
8.04804e-05
8.03845e-05
8.0283e-05
8.01758e-05
8.00625e-05
7.99479e-05
7.98337e-05
7.97192e-05
7.96046e-05
7.94906e-05
7.93768e-05
7.92629e-05
7.91491e-05
7.90353e-05
7.89215e-05
7.88076e-05
7.86936e-05
7.85794e-05
7.84651e-05
7.83506e-05
7.82361e-05
7.81214e-05
7.80066e-05
7.78918e-05
7.77771e-05
7.76624e-05
7.75484e-05
7.74346e-05
7.28765e-05
7.44772e-05
7.5922e-05