/*--------------------------------*- C++ -*----------------------------------*\
| =========                 |                                                 |
| \\      /  F ield         | OpenFOAM: The Open Source CFD Toolbox           |
|  \\    /   O peration     | Version:  v1706                                 |
|   \\  /    A nd           | Web:      www.OpenFOAM.com                      |
|    \\/     M anipulation  |                                                 |
\*---------------------------------------------------------------------------*/
FoamFile
{
    version     2.0;
    format      ascii;
    class       volScalarField;
    location    "1e-05";
    object      p;
}
// * * * * * * * * * * * * * * * * * * * * * * * * * * * * * * * * * * * * * //

dimensions      [1 -1 -2 0 0 0 0];


internalField   nonuniform List<scalar> 
30038
(
21.9139
21.9139
21.9139
21.9139
21.9139
21.9139
21.9139
21.9139
21.9139
21.9139
21.9139
21.9139
21.9139
21.9139
21.9139
21.9139
21.9139
21.9139
21.9139
21.9139
21.9139
21.9139
21.9139
21.9139
21.9139
21.9139
21.9139
21.9139
21.9139
21.9139
21.9139
21.9139
21.9139
21.9139
21.9139
21.9139
21.9139
21.9139
21.9139
21.9139
21.9139
21.9139
21.9139
21.9139
21.9139
21.9139
21.9139
21.9139
21.9139
21.9139
21.9139
21.9139
21.9139
21.9139
21.9139
21.9139
21.9139
21.9139
21.9139
21.9139
21.9139
21.9139
21.9139
21.9139
21.9139
21.9139
21.9139
21.9139
21.9139
21.9139
21.9139
21.9139
21.9139
21.9139
21.9139
21.9139
21.9139
21.9139
21.9139
21.9139
21.9139
21.9139
21.9139
21.9139
21.9139
21.9139
21.9139
21.9139
21.9139
21.9139
21.9139
21.9139
21.9139
21.9139
21.9139
21.9139
21.9139
21.9139
21.9139
21.9139
21.9139
21.9139
21.9139
21.9139
21.9139
21.9139
21.9139
21.9139
21.9139
21.9139
21.9139
21.9139
21.9139
21.9139
21.9139
21.9139
21.9139
21.9139
21.9139
21.9139
21.9139
21.9139
21.9139
21.9139
21.9139
21.9139
21.9139
21.9139
21.9139
21.9139
21.9139
21.9139
21.9139
21.9139
21.9139
21.9139
21.9139
21.9139
21.9139
21.9139
21.9139
21.9139
21.9139
21.9139
21.9139
21.9139
21.9139
21.9139
21.9139
21.9139
21.9139
21.9139
21.9139
21.9139
21.9139
21.9139
21.9139
21.9139
21.9139
21.9139
21.9139
21.9139
21.9139
21.9139
21.9139
21.9139
21.9139
21.9139
21.9139
21.9139
21.9139
21.9139
21.9139
21.9139
21.9139
21.9139
21.9139
21.9139
21.9139
21.9139
21.9139
21.9139
21.9139
21.9139
21.9139
21.9139
21.9139
21.9139
21.9139
21.9139
21.9139
21.9139
21.9139
21.9139
21.9139
21.9139
21.9139
21.9139
21.9139
21.9139
21.9139
21.9139
21.9139
21.9139
21.9139
21.9139
21.9139
21.9139
21.9139
21.9139
21.9139
21.9139
21.9139
21.9139
21.9139
21.9139
21.9139
21.9139
21.9139
21.9139
21.9139
21.9139
21.9139
21.9139
21.9139
21.9139
21.9139
21.9139
21.9139
21.9139
21.9139
21.9139
21.9139
21.9139
21.9139
21.9139
21.9139
21.9139
21.9139
21.9139
21.9139
21.9139
21.9139
21.9139
21.9139
21.9139
21.9139
21.9139
21.9139
21.9139
21.9139
21.9139
21.9139
21.9139
21.9139
21.9139
21.9139
21.9139
21.9139
21.9139
21.9139
21.9139
21.9139
21.9139
21.9139
21.9139
21.9139
21.9139
21.9139
21.9139
21.9139
21.9139
21.9139
21.9139
21.9139
21.9139
21.9139
21.9139
21.9139
21.9139
21.9139
21.9139
21.9139
21.9139
21.9139
21.9139
21.9139
21.9139
21.9139
21.9139
21.9139
21.9139
21.9139
21.9139
21.9139
21.9139
21.9139
21.9139
21.9139
21.9139
21.9139
21.9139
21.9139
21.9139
21.9139
21.9139
21.9139
21.9139
21.9139
21.9139
21.9139
21.9139
21.9139
21.9139
21.9139
21.9139
21.9139
21.9139
21.9139
21.9139
21.9139
21.9139
21.9139
21.9139
21.9139
21.9139
21.9139
21.9139
21.9139
21.9139
21.9139
21.9139
21.9139
21.9139
21.9139
21.9139
21.9139
21.9139
21.9139
21.9139
21.9139
21.9139
21.9139
21.9139
21.9139
21.9139
21.9139
21.9139
21.9139
21.9139
21.9139
21.9139
21.9139
21.9139
21.9139
21.9139
21.9139
21.9139
21.9139
21.9139
21.9139
21.9139
21.9139
21.9139
21.9139
21.9139
21.9139
21.9139
21.9139
21.9139
21.9139
21.9139
21.9139
21.9139
21.9139
21.9139
21.9139
21.9139
21.9139
21.9139
21.9139
21.9139
21.9139
21.9139
21.9139
21.9139
21.9139
21.9139
21.9139
21.9139
21.9139
21.9139
21.9139
21.9139
21.9139
21.9139
21.9139
21.9139
21.9139
21.9139
21.9139
21.9139
21.9139
21.9139
21.9139
21.9139
21.9139
21.9139
21.9139
21.9139
21.9139
21.9139
21.9139
21.9139
21.9139
21.9139
21.9139
21.9139
21.9139
21.9139
21.9139
21.9139
21.9139
21.9139
21.9139
21.9139
21.9139
21.9139
21.9139
21.9139
21.9139
21.9139
21.9139
21.9139
21.9139
21.9139
21.9139
21.9139
21.9139
21.9139
21.9139
21.9139
21.9139
21.9139
21.9139
21.9139
21.9139
21.9139
21.9139
21.9139
21.9139
21.9139
21.9139
21.9139
21.9139
21.9139
21.9139
21.9139
21.9139
21.9139
21.9139
21.9139
21.9139
21.9139
21.9139
21.9139
21.9139
21.9139
21.9139
21.9139
21.9139
21.9139
21.9139
21.9139
21.9139
21.9139
21.9139
21.9139
21.9139
21.9139
21.9139
21.9139
21.9139
21.9139
21.9139
21.9139
21.9139
21.9139
21.9139
21.9139
21.9139
21.9139
21.9139
21.9139
21.9139
21.9139
21.9139
21.9139
21.9139
21.9139
21.9139
21.9139
21.9139
21.9139
21.9139
21.9139
21.9139
21.9139
21.9139
21.9139
21.9139
21.9139
21.9139
21.9139
21.9139
21.9139
21.9139
21.9139
21.9139
21.9139
21.9139
21.9139
21.9139
21.9139
21.9139
21.9139
21.9139
21.9139
21.9139
21.9139
21.9139
21.9139
21.9139
21.9139
21.9139
21.9139
21.9139
21.9139
21.9139
21.9139
21.9139
21.9139
21.9139
21.9139
21.9139
21.9139
21.9139
21.9139
21.9139
21.9139
21.9139
21.9139
21.9139
21.9139
21.9139
21.9139
21.9139
21.9139
21.9139
21.9139
21.9139
21.9139
21.9139
21.9139
21.9139
21.9139
21.9139
21.9139
21.9139
21.9139
21.9139
21.9139
21.9139
21.9139
21.9139
21.9139
21.9139
21.9139
21.9139
21.9139
21.9139
21.9139
21.9139
21.9139
21.9139
21.9139
21.9139
21.9139
21.9139
21.9139
21.9139
21.9139
21.9139
21.9139
21.9139
21.9139
21.9139
21.9139
21.9139
21.9139
21.9139
21.9139
21.9139
21.9139
21.9139
21.9139
21.9139
21.9139
21.9139
21.9139
21.9139
21.9139
21.9139
21.9139
21.9139
21.9139
21.9139
21.9139
21.9139
21.9139
21.9139
21.9139
21.9139
21.9139
21.9139
21.9139
21.9139
21.9139
21.9139
21.9139
21.9139
21.9139
21.9139
21.9139
21.9139
21.9139
21.9139
21.9139
21.9139
21.9139
21.9139
21.9139
21.9139
21.9139
21.9139
21.9139
21.9139
21.9139
21.9139
21.9139
21.9139
21.9139
21.9139
21.9139
21.9139
21.9139
21.9139
21.9139
21.9139
21.9139
21.9139
21.9139
21.9139
21.9139
21.9139
21.9139
21.9139
21.9139
21.9139
21.9139
21.9139
21.9139
21.9139
21.9139
21.9139
21.9139
21.9139
21.9139
21.9139
21.9139
21.9139
21.9139
21.9139
21.9139
21.9139
21.9139
21.9139
21.9139
21.9139
21.9139
21.9139
21.9139
21.9139
21.9139
21.9139
21.9139
21.9139
21.9139
21.9139
21.9139
21.9139
21.9139
21.9139
21.9139
21.9139
21.9139
21.9139
21.9139
21.9139
21.9139
21.9139
21.9139
21.9139
21.9139
21.9139
21.9139
21.9139
21.9139
21.9139
21.9139
21.9139
21.9139
21.9139
21.9139
21.9139
21.9139
21.9139
21.9139
21.9139
21.9139
21.9139
21.9139
21.9139
21.9139
21.9139
21.9139
21.9139
21.9139
21.9139
21.9139
21.9139
21.9139
21.9139
21.9139
21.9139
21.9139
21.9139
21.9139
21.9139
21.9139
21.9139
21.9139
21.9139
21.9139
21.9139
21.9139
21.9139
21.9139
21.9139
21.9139
21.9139
21.9139
21.9139
21.9139
21.9139
21.9139
21.9139
21.9139
21.9139
21.9139
21.9139
21.9139
21.9139
21.9139
21.9139
21.9139
21.9139
21.9139
21.9139
21.9139
21.9139
21.9139
21.9139
21.9139
21.9139
21.9139
21.9139
21.9139
21.9139
21.9139
21.9139
21.9139
21.9139
21.9139
21.9139
21.9139
21.9139
21.9139
21.9139
21.9139
21.9139
21.9139
21.9139
21.9139
21.9139
21.9139
21.9139
21.9139
21.9139
21.9139
21.9139
21.9139
21.9139
21.9139
21.9139
21.9139
21.9139
21.9139
21.9139
21.9139
21.9139
21.9139
21.9139
21.9139
21.9139
21.9139
21.9139
21.9139
21.9139
21.9139
21.9139
21.9139
21.9139
21.9139
21.9139
21.9139
21.9139
21.9139
21.9139
21.9139
21.9139
21.9139
21.9139
21.9139
21.9139
21.9139
21.9139
21.9139
21.9139
21.9139
21.9139
21.9139
21.9139
21.9139
21.9139
21.9139
21.9139
21.9139
21.9139
21.9139
21.9139
21.9139
21.9139
21.9139
21.9139
21.9139
21.9139
21.9139
21.9139
21.9139
21.9139
21.9139
21.9139
21.9139
21.9139
21.9139
21.9139
21.9139
21.9139
21.9139
21.9139
21.9139
21.9139
21.9139
21.9139
21.9139
21.9139
21.9139
21.9139
21.9139
21.9139
21.9139
21.9139
21.9139
21.9139
21.9139
21.9139
21.9139
21.9139
21.9139
21.9139
21.9139
21.9139
21.9139
21.9139
21.9139
21.9139
21.9139
21.9139
21.9139
21.9139
21.9139
21.9139
21.9139
21.9139
21.9139
21.9139
21.9139
21.9139
21.9139
21.9139
21.9139
21.9139
21.9139
21.9139
21.9139
21.9139
21.9139
21.9139
21.9139
21.9139
21.9139
21.9139
21.9139
21.9139
21.9139
21.9139
21.9139
21.9139
21.9139
21.9139
21.9139
21.9139
21.9139
21.9139
21.9139
21.9139
21.9139
21.9139
21.9139
21.9139
21.9139
21.9139
21.9139
21.9139
21.9139
21.9139
21.9139
21.9139
21.9139
21.9139
21.9139
21.9139
21.9139
21.9139
21.9139
21.9139
21.9139
21.9139
21.9139
21.9139
21.9139
21.9139
21.9139
21.9139
21.9139
21.9139
21.9139
21.9139
21.9139
21.9139
21.9139
21.9139
21.9139
21.9139
21.9139
21.9139
21.9139
21.9139
21.9139
21.9139
21.9139
21.9139
21.9139
21.9139
21.9139
21.9139
21.9139
21.9139
21.9139
21.9139
21.9139
21.9139
21.9139
21.9139
21.9139
21.9139
21.9139
21.9139
21.9139
21.9139
21.9139
21.9139
21.9139
21.9139
21.9139
21.9139
21.9139
21.9139
21.9139
21.9139
21.9139
21.9139
21.9139
21.9139
21.9139
21.9139
21.9139
21.9139
21.9139
21.9139
21.9139
21.9139
21.9139
21.9139
21.9139
21.9139
21.9139
21.9139
21.9139
21.9139
21.9139
21.9139
21.9139
21.9139
21.9139
21.9139
21.9139
21.9139
21.9139
21.9139
21.9139
21.9139
21.9139
21.9139
21.9139
21.9139
21.9139
21.9139
21.9139
21.9139
21.9139
21.9139
21.9139
21.9139
21.9139
21.9139
21.9139
21.9139
21.9139
21.9139
21.9139
21.9139
21.9139
21.9139
21.9139
21.9139
21.9139
21.9139
21.9139
21.9139
21.9139
21.9139
21.9139
21.9139
21.9139
21.9139
21.9139
21.9139
21.9139
21.9139
21.9139
21.9139
21.9139
21.9139
21.9139
21.9139
21.9139
21.9139
21.9139
21.9139
21.9139
21.9139
21.9139
21.9139
21.9139
21.9139
21.9139
21.9139
21.9139
21.9139
21.9139
21.9139
21.9139
21.9139
21.9139
21.9139
21.9139
21.9139
21.9139
21.9139
21.9139
21.9139
21.9139
21.9139
21.9139
21.9139
21.9139
21.9139
21.9139
21.9139
21.9139
21.9139
21.9139
21.9139
21.9139
21.9139
21.9139
21.9139
21.9139
21.9139
21.9139
21.9139
21.9139
21.9139
21.9139
21.9139
21.9139
21.9139
21.9139
21.9139
21.9139
21.9139
21.9139
21.9139
21.9139
21.9139
21.9139
21.9139
21.9139
21.9139
21.9139
21.9139
21.9139
21.9139
21.9139
21.9139
21.9139
21.9139
21.9139
21.9139
21.9139
21.9139
21.9139
21.9139
21.9139
21.9139
21.9139
21.9139
21.9139
21.9139
21.9139
21.9139
21.9139
21.9139
21.9139
21.9139
21.9139
21.9139
21.914
21.914
21.9142
21.9139
21.9139
21.9139
21.9139
21.9139
21.9139
21.9139
21.9139
21.9139
21.9139
21.9139
21.9139
21.9139
21.9139
21.9139
21.9139
21.9139
21.9139
21.9139
21.9139
21.9139
21.9139
21.9139
21.9139
21.9139
21.9139
21.9139
21.9139
21.9139
21.9139
21.9139
21.9139
21.9139
21.9139
21.9139
21.9139
21.9139
21.9139
21.9139
21.9139
21.9139
21.9139
21.9139
21.9139
21.914
21.914
21.9141
21.9143
21.9147
21.9154
21.9139
21.9139
21.9139
21.9139
21.9139
21.9139
21.9139
21.9139
21.9139
21.9139
21.9139
21.9139
21.9139
21.9139
21.9139
21.9139
21.9139
21.9139
21.9139
21.9139
21.9139
21.9139
21.9139
21.9139
21.9139
21.9139
21.9139
21.9139
21.9139
21.9139
21.9139
21.9139
21.9139
21.9139
21.9139
21.9139
21.9139
21.9139
21.9139
21.9139
21.9139
21.914
21.914
21.9141
21.9143
21.9147
21.9153
21.9164
21.9186
21.9229
21.9139
21.9139
21.9139
21.9139
21.9139
21.9139
21.9139
21.9139
21.9139
21.9139
21.9139
21.9139
21.9139
21.9139
21.9139
21.9139
21.9139
21.9139
21.9139
21.9139
21.9139
21.9139
21.9139
21.9139
21.9139
21.9139
21.9139
21.9139
21.9139
21.9139
21.9139
21.9139
21.9139
21.9139
21.9139
21.9139
21.9139
21.9139
21.914
21.914
21.9141
21.9143
21.9147
21.9153
21.9164
21.9184
21.922
21.9286
21.941
21.9656
21.9139
21.9139
21.9139
21.9139
21.9139
21.9139
21.9139
21.9139
21.9139
21.9139
21.9139
21.9139
21.9139
21.9139
21.9139
21.9139
21.9139
21.9139
21.9139
21.9139
21.9139
21.9139
21.9139
21.9139
21.9139
21.9139
21.9139
21.9139
21.9139
21.9139
21.9139
21.9139
21.9139
21.9139
21.9139
21.914
21.9141
21.9142
21.9144
21.9147
21.9153
21.9164
21.9184
21.9219
21.9282
21.9396
21.9602
21.9977
22.0669
22.2021
21.9139
21.9139
21.9139
21.9139
21.9139
21.9139
21.9139
21.9139
21.9139
21.9139
21.9139
21.9139
21.9139
21.9139
21.9139
21.9139
21.9139
21.9139
21.9139
21.9139
21.9139
21.9139
21.9139
21.9139
21.9139
21.9139
21.9139
21.9139
21.9139
21.9139
21.9139
21.914
21.914
21.9141
21.9142
21.9144
21.9148
21.9154
21.9165
21.9185
21.922
21.9283
21.9393
21.959
21.9943
22.0576
22.1715
22.3771
22.7508
23.4534
21.9139
21.9139
21.9139
21.9139
21.9139
21.9139
21.9139
21.9139
21.9139
21.9139
21.9139
21.9139
21.9139
21.9139
21.9139
21.9139
21.9139
21.9139
21.9139
21.9139
21.9139
21.9139
21.9139
21.9139
21.9139
21.9139
21.9139
21.9139
21.914
21.914
21.9141
21.9142
21.9145
21.9149
21.9155
21.9167
21.9188
21.9224
21.9287
21.9398
21.9592
21.9936
22.0545
22.1623
22.3538
22.6933
23.2934
24.3453
26.1682
29.3053
21.9139
21.9139
21.9139
21.9139
21.9139
21.9139
21.9139
21.9139
21.9139
21.9139
21.9139
21.9139
21.9139
21.9139
21.9139
21.9139
21.9139
21.9139
21.9139
21.9139
21.9139
21.9139
21.9139
21.9139
21.9139
21.914
21.914
21.9141
21.9143
21.9145
21.915
21.9157
21.917
21.9192
21.923
21.9296
21.941
21.9608
21.9952
22.0553
22.1606
22.3449
22.6675
23.2299
24.2018
25.8551
28.5981
32.9911
39.7327
49.6545
21.9139
21.9139
21.9139
21.9139
21.9139
21.9139
21.9139
21.9139
21.9139
21.9139
21.9139
21.9139
21.9139
21.9139
21.9139
21.9139
21.9139
21.9139
21.9139
21.9139
21.9139
21.914
21.914
21.9141
21.9142
21.9144
21.9147
21.9152
21.916
21.9174
21.9199
21.924
21.931
21.9431
21.9637
21.9991
22.0602
22.1658
22.3483
22.6635
23.206
24.1322
25.6899
28.2481
32.3091
38.4823
47.4183
59.7317
75.948
96.7154
21.9139
21.9139
21.9139
21.9139
21.9139
21.9139
21.9139
21.9139
21.9139
21.9139
21.9139
21.9139
21.9139
21.9139
21.9139
21.9139
21.9139
21.9139
21.914
21.914
21.9141
21.9142
21.9145
21.9148
21.9154
21.9164
21.918
21.9208
21.9254
21.9331
21.9461
21.9682
22.0057
22.0695
22.1783
22.3638
22.6802
23.2178
24.1239
25.6298
28.0768
31.927
37.7416
46.1187
57.6157
72.697
91.733
115.073
143.084
177.007
21.9139
21.9139
21.9139
21.9139
21.9139
21.9139
21.9139
21.9139
21.9139
21.9139
21.9139
21.9139
21.9139
21.9139
21.914
21.914
21.9141
21.9142
21.9143
21.9146
21.915
21.9157
21.9169
21.9188
21.922
21.9272
21.9359
21.9505
21.9747
22.0154
22.0838
22.1988
22.3926
22.7186
23.2652
24.1746
25.6667
28.0623
31.7922
37.3769
45.3713
56.2943
70.5781
88.5646
110.537
136.812
167.858
204.423
246.852
298.486
21.9139
21.9139
21.9139
21.9139
21.9139
21.9139
21.9139
21.9139
21.9139
21.9139
21.914
21.914
21.914
21.9141
21.9143
21.9145
21.9148
21.9153
21.9162
21.9176
21.9199
21.9237
21.9298
21.9399
21.9564
21.9838
22.0291
22.1043
22.2291
22.4367
22.7813
23.3514
24.2869
25.8011
28.2003
31.8902
37.3561
45.1132
55.6418
69.3428
86.533
107.472
132.426
161.763
196.076
235.981
282.266
336.946
402.621
488.384
21.9139
21.9139
21.9139
21.9139
21.9139
21.9139
21.914
21.914
21.914
21.9141
21.9142
21.9144
21.9146
21.9151
21.9158
21.9169
21.9186
21.9214
21.926
21.9334
21.9453
21.9647
21.9963
22.048
22.1327
22.2717
22.4996
22.8731
23.4824
24.4682
26.0408
28.4966
32.2214
37.6697
45.3181
55.6079
68.9058
85.4999
105.63
129.526
157.496
190.041
227.794
271.419
322.086
382.383
456.016
546.874
654.547
782.817
21.9139
21.9139
21.9139
21.914
21.914
21.9141
21.9142
21.9143
21.9146
21.9149
21.9155
21.9164
21.9178
21.92
21.9236
21.9293
21.9383
21.9528
21.976
22.0135
22.074
22.1719
22.3303
22.5868
23.0014
23.6683
24.7312
26.4008
28.9674
32.8004
38.3262
45.9843
56.1766
69.2337
85.4151
104.939
128.013
154.905
186.025
222.002
263.434
311.164
367.009
434.205
516.446
616.106
731.912
858.356
983.765
1102.91
21.914
21.9141
21.9142
21.9143
21.9145
21.9148
21.9153
21.9161
21.9173
21.9192
21.9221
21.9267
21.9339
21.9452
21.9632
21.9918
22.0373
22.1098
22.2255
22.4106
22.7062
23.1772
23.9238
25.0952
26.9052
29.6405
33.6563
39.3524
47.1313
57.3552
70.3177
86.2486
105.342
127.793
153.833
183.811
218.29
257.887
303.276
355.724
417.841
493.147
584.633
692.866
814.166
940.624
1061.56
1167.74
1252.1
1315.14
21.9143
21.9145
21.9148
21.9152
21.9159
21.917
21.9186
21.9211
21.925
21.9311
21.9405
21.9551
21.978
22.0139
22.0704
22.1593
22.2995
22.5206
22.8691
23.4164
24.2704
25.5884
27.5889
30.5565
34.8331
40.7913
48.7966
59.1702
72.1687
87.9929
106.815
128.817
154.206
183.289
216.551
254.628
298.118
347.949
406.114
475.762
560.131
660.864
776.291
900.409
1024.09
1137.15
1232.14
1304.9
1356.14
1388.05
1405.89
21.9159
21.9169
21.9184
21.9207
21.9241
21.9294
21.9376
21.9501
21.9694
21.9992
22.0454
22.1171
22.2287
22.4023
22.6726
23.0924
23.7419
24.7387
26.2498
28.4999
31.7715
36.3919
42.7054
51.039
61.673
74.828
90.6764
109.371
131.079
155.996
184.394
216.693
253.521
295.45
343.222
398.318
463.441
541.793
635.664
744.808
865.151
988.986
1106.73
1209.74
1292.69
1353.96
1395.01
1419.02
1431.4
1435.15
1437.75
21.9205
21.9238
21.9287
21.9361
21.9473
21.9644
21.9904
22.0301
22.0908
22.184
22.3271
22.5469
22.8843
23.4006
24.1866
25.3717
27.1338
29.7036
33.3602
38.4133
45.1764
53.9366
64.9329
78.3512
94.3373
113.027
134.575
159.169
187.058
218.62
254.431
295.092
341.23
393.951
455.51
528.911
616.763
719.788
835.5
957.71
1077.83
1186.9
1278.42
1348.87
1399.03
1430.57
1448.67
1455.64
1457.92
1460.3
1459.12
1453.64
21.9463
21.9621
21.9859
22.0217
22.0757
22.1573
22.281
22.4685
22.7526
23.1823
23.8296
24.7976
26.2295
28.3142
31.2868
35.4189
40.9988
48.3054
57.5847
69.0356
82.8117
99.036
117.831
139.343
163.756
191.302
222.327
257.354
297
341.826
392.712
451.478
520.868
603.589
700.992
811.787
931.264
1051.89
1164.99
1263.18
1342.16
1400.69
1440.27
1463.59
1475.88
1479.23
1481.43
1482.05
1479.18
1472.22
1461.85
1448.77
22.0692
22.1443
22.2564
22.424
22.6746
23.049
23.6063
24.4316
25.6423
27.3957
29.8902
33.3616
38.0686
44.2727
52.215
62.0997
74.0886
88.3069
104.859
123.858
145.443
169.798
197.141
227.795
262.237
301.088
344.876
394.339
450.946
517.153
595.624
688.08
794.083
910.172
1029.91
1145.28
1248.61
1334.63
1400.73
1447.77
1477.69
1494.5
1501.21
1503.12
1505.08
1503.6
1498.41
1489.92
1478.6
1465.21
1450.74
1435.17
22.6377
22.9791
23.4811
24.2158
25.2829
26.8157
28.984
31.9923
36.0706
41.4581
48.3834
57.0475
67.6148
80.2134
94.9448
111.9
131.185
152.937
177.339
204.604
235.037
269.082
307.351
350.357
398.739
453.7
517.416
592.436
680.661
782.249
894.715
1012.69
1128.91
1235.73
1327.23
1400.21
1454.15
1490.46
1511.89
1522.91
1525.82
1527.29
1527.73
1524.55
1517.67
1507.57
1495.56
1481.48
1466.67
1451.54
1436.52
1420.82
25.0987
26.4933
28.4494
31.1461
34.7873
39.5889
45.7628
53.5005
62.9626
74.2768
87.5437
102.847
120.27
139.915
161.922
186.473
213.78
244.135
277.956
315.832
358.277
405.858
459.588
521.397
593.682
678.4
776.09
884.99
1000.68
1116.64
1225.59
1321.31
1399.95
1459.82
1502.09
1528.88
1543.67
1548.98
1550.51
1551.96
1549.91
1544.43
1536.05
1525.08
1512.14
1497.76
1482.98
1467.84
1452.64
1437.44
1422.59
1407.15
34.0781
38.4811
44.1237
51.1837
59.8133
70.1357
82.2481
96.2302
112.154
130.099
150.17
172.509
197.301
224.756
255.156
288.905
326.563
368.647
415.673
468.53
528.932
599.116
681.017
775.389
880.994
994.168
1109.11
1219.05
1317.69
1400.67
1465.83
1513.53
1545.28
1563.61
1572.37
1574.59
1575.59
1575.15
1571.39
1564.32
1554.42
1542.65
1528.87
1514.28
1499.38
1484.24
1469.1
1453.99
1438.99
1424.01
1409.36
1394.16
57.9417
67.5256
78.7534
91.6999
106.431
123.013
141.525
162.077
184.819
209.936
237.64
268.205
302.026
339.643
381.563
428.265
480.555
539.974
608.609
688.321
779.956
882.636
993.273
1106.76
1216.79
1317.21
1403.39
1472.89
1525.06
1561.29
1583.67
1595.55
1599.15
1600.12
1600.73
1597.89
1591.81
1583.31
1572.5
1559.8
1545.66
1531.08
1516.07
1500.92
1485.79
1470.72
1455.73
1440.81
1426
1411.21
1396.72
1381.69
118.311
135.58
154.7
175.79
199.005
224.533
252.584
283.429
317.459
355.201
397.142
443.73
495.72
554.533
622.111
700.207
789.677
889.857
998.095
1109.83
1219.27
1320.51
1408.94
1481.64
1537.54
1577.7
1603.87
1618.2
1624.25
1625.53
1626.11
1624.39
1619.75
1612.22
1602.28
1590.64
1577
1562.63
1547.91
1532.89
1517.81
1502.73
1487.69
1472.72
1457.81
1442.99
1428.22
1413.56
1398.9
1384.53
1369.65
191.481
215.237
241.257
269.746
300.98
335.352
373.378
415.518
462.198
514.141
572.69
639.657
716.662
804.504
902.62
1008.67
1118.52
1226.89
1328.18
1417.8
1492.68
1551.59
1595.02
1624.22
1641.3
1649.73
1651.61
1651.84
1651.32
1647.46
1640.64
1631.82
1620.99
1608.28
1594.3
1579.9
1565.02
1549.96
1534.91
1519.87
1504.87
1489.93
1475.04
1460.22
1445.45
1430.75
1416.1
1401.54
1387
1372.73
1357.99
289.308
321.045
355.9
394.379
436.898
483.867
536.002
594.604
661.365
737.751
824.455
920.927
1025.03
1132.98
1239.9
1340.58
1430.51
1506.73
1567.73
1613.51
1645.28
1665.11
1675.19
1678.22
1678.61
1678.51
1675.33
1669.43
1661.35
1651.23
1639.4
1625.93
1611.8
1597.22
1582.3
1567.3
1552.27
1537.25
1522.29
1507.37
1492.5
1477.68
1462.91
1448.18
1433.52
1418.91
1404.36
1389.9
1375.46
1361.29
1346.69
461.514
508.962
561.525
620.491
687.429
763.629
849.632
944.843
1047.24
1153.3
1258.5
1358.01
1447.53
1524.19
1586.37
1633.79
1667.66
1689.48
1701.08
1705.55
1706.22
1705.63
1703.5
1698.48
1690.9
1681.6
1670.53
1657.61
1643.74
1629.45
1614.71
1599.8
1584.85
1569.86
1554.89
1539.95
1525.04
1510.19
1495.37
1480.59
1465.86
1451.17
1436.53
1421.95
1407.43
1392.97
1378.61
1364.27
1350.2
1335.73
650.635
718.117
794.522
880.207
974.49
1075.38
1179.56
1282.8
1380.67
1469.11
1545.4
1607.95
1656.33
1691.52
1714.79
1727.89
1733.47
1734.34
1733.76
1732.26
1727.63
1720.39
1711.76
1701.4
1689.25
1675.83
1661.85
1647.31
1632.48
1617.57
1602.62
1587.67
1572.75
1557.84
1542.96
1528.11
1513.3
1498.52
1483.77
1469.07
1454.4
1439.79
1425.23
1410.72
1396.29
1381.91
1367.65
1353.41
1339.44
1325.1
916.413
1010.03
1109.57
1211.84
1312.91
1408.68
1495.43
1570.58
1632.75
1681.34
1717.12
1741.42
1755.71
1761.97
1763.27
1762.8
1761.2
1757.18
1750.6
1742.34
1732.46
1721.04
1707.89
1694.14
1679.92
1665.29
1650.51
1635.63
1620.69
1605.76
1590.85
1575.97
1561.11
1546.28
1531.47
1516.69
1501.93
1487.21
1472.52
1457.87
1443.27
1428.73
1414.24
1399.81
1385.46
1371.17
1357
1342.86
1328.99
1314.78
1250.19
1348.84
1442.09
1526.57
1599.94
1660.96
1709.03
1744.76
1769.54
1784.48
1791.22
1793.03
1792.59
1790.69
1787.23
1781.11
1772.9
1763.58
1752.69
1740.1
1726.64
1712.75
1698.25
1683.53
1668.74
1653.89
1639.01
1624.13
1609.24
1594.37
1579.52
1564.69
1549.88
1535.1
1520.33
1505.59
1490.88
1476.21
1461.58
1446.99
1432.45
1417.97
1403.55
1389.2
1374.93
1360.74
1346.66
1332.62
1318.85
1304.77
1562.52
1633.5
1692.68
1739.55
1774.67
1799.31
1814.41
1821.51
1823.44
1823.02
1820.95
1817.71
1812.01
1803.88
1794.92
1784.5
1772.35
1759.18
1745.55
1731.33
1716.76
1702.08
1687.28
1672.43
1657.57
1642.72
1627.87
1613.03
1598.19
1583.37
1568.55
1553.76
1538.98
1524.23
1509.5
1494.8
1480.14
1465.51
1450.93
1436.4
1421.92
1407.51
1393.16
1378.89
1364.7
1350.59
1336.61
1322.67
1309
1295.05
1772.92
1806.88
1830.85
1845.68
1852.79
1854.69
1854.25
1852.19
1848.65
1843.32
1835.34
1826.43
1816.5
1804.93
1791.98
1778.54
1764.52
1750.1
1735.54
1720.85
1706.07
1691.27
1676.43
1661.59
1646.76
1631.93
1617.11
1602.3
1587.49
1572.68
1557.89
1543.12
1528.37
1513.65
1498.96
1484.3
1469.67
1455.1
1440.57
1426.09
1411.68
1397.33
1383.05
1368.86
1354.75
1340.73
1326.84
1313
1299.43
1285.61
1878.31
1885.07
1886.85
1886.27
1884.11
1880.27
1875.14
1867.43
1858.42
1848.69
1837.59
1824.81
1811.62
1797.96
1783.69
1769.23
1754.61
1739.89
1725.14
1710.36
1695.56
1680.75
1665.94
1651.12
1636.3
1621.48
1606.67
1591.87
1577.07
1562.28
1547.51
1532.76
1518.04
1503.34
1488.68
1474.06
1459.48
1444.95
1430.47
1416.06
1401.7
1387.42
1373.22
1359.1
1345.07
1331.14
1317.34
1303.61
1290.14
1276.44
1916.7
1912.62
1907.35
1899.92
1890.84
1881.21
1870.42
1857.93
1844.88
1831.5
1817.38
1803.03
1788.57
1773.95
1759.25
1744.52
1729.75
1714.97
1700.18
1685.38
1670.57
1655.76
1640.94
1626.12
1611.31
1596.5
1581.7
1566.92
1552.14
1537.39
1522.66
1507.96
1493.3
1478.67
1464.09
1449.55
1435.07
1420.64
1406.28
1391.99
1377.78
1363.64
1349.6
1335.66
1321.82
1308.11
1294.47
1281.1
1267.53
1932.83
1923.7
1914.04
1903.48
1891.32
1878.37
1865.18
1851.27
1837.01
1822.7
1808.17
1793.54
1778.88
1764.17
1749.43
1734.67
1719.89
1705.1
1690.3
1675.49
1660.68
1645.86
1631.03
1616.21
1601.39
1586.58
1571.79
1557.01
1542.25
1527.52
1512.81
1498.14
1483.5
1468.91
1454.37
1439.87
1425.44
1411.06
1396.76
1382.53
1368.38
1354.32
1340.36
1326.5
1312.74
1299.12
1285.59
1272.32
1258.87
1936.83
1924.94
1912.07
1899.03
1885.36
1871.22
1857.02
1842.6
1828.04
1813.46
1798.8
1784.11
1769.4
1754.66
1739.9
1725.12
1710.32
1695.51
1680.69
1665.86
1651.03
1636.19
1621.36
1606.53
1591.71
1576.9
1562.11
1547.34
1532.6
1517.88
1503.2
1488.55
1473.95
1459.39
1444.89
1430.44
1416.05
1401.73
1387.48
1373.32
1359.23
1345.25
1331.36
1317.58
1303.91
1290.39
1276.95
1263.78
1250.46
1919.64
1905.61
1891.51
1877.23
1862.76
1848.26
1833.68
1819.03
1804.36
1789.66
1774.93
1760.18
1745.41
1730.62
1715.81
1700.98
1686.14
1671.3
1656.45
1641.6
1626.75
1611.91
1597.07
1582.25
1567.45
1552.66
1537.91
1523.18
1508.48
1493.82
1479.2
1464.63
1450.11
1435.64
1421.24
1406.9
1392.63
1378.44
1364.34
1350.32
1336.4
1322.59
1308.89
1295.31
1281.88
1268.55
1255.49
1242.3
1912.06
1897.68
1883.25
1868.76
1854.18
1839.57
1824.92
1810.23
1795.51
1780.77
1765.99
1751.2
1736.39
1721.56
1706.72
1691.86
1676.99
1662.12
1647.25
1632.39
1617.53
1602.67
1587.84
1573.01
1558.21
1543.44
1528.69
1513.98
1499.3
1484.67
1470.08
1455.54
1441.05
1426.62
1412.26
1397.97
1383.76
1369.63
1355.58
1341.63
1327.79
1314.05
1300.44
1286.95
1273.62
1260.39
1247.44
1234.37
1889.55
1875
1860.41
1845.77
1831.1
1816.39
1801.65
1786.88
1772.08
1757.26
1742.43
1727.57
1712.7
1697.82
1682.94
1668.04
1653.15
1638.26
1623.38
1608.51
1593.65
1578.81
1563.99
1549.19
1534.43
1519.7
1505
1490.34
1475.73
1461.17
1446.66
1432.21
1417.83
1403.51
1389.27
1375.1
1361.03
1347.05
1333.17
1319.4
1305.75
1292.22
1278.82
1265.59
1252.47
1239.62
1226.67
1881.55
1866.93
1852.27
1837.56
1822.83
1808.06
1793.26
1778.44
1763.59
1748.72
1733.84
1718.94
1704.04
1689.12
1674.2
1659.29
1644.37
1629.47
1614.57
1599.69
1584.83
1569.99
1555.17
1540.38
1525.63
1510.91
1496.23
1481.59
1467.01
1452.47
1438
1423.58
1409.24
1394.97
1380.77
1366.67
1352.65
1338.74
1324.93
1311.24
1297.67
1284.23
1270.92
1257.77
1244.75
1231.99
1219.17
1859.04
1844.31
1829.54
1814.73
1799.9
1785.05
1770.17
1755.27
1740.35
1725.43
1710.49
1695.55
1680.6
1665.66
1650.72
1635.79
1620.87
1605.96
1591.07
1576.2
1561.36
1546.55
1531.77
1517.02
1502.32
1487.66
1473.04
1458.48
1443.98
1429.54
1415.16
1400.86
1386.64
1372.5
1358.45
1344.5
1330.65
1316.91
1303.29
1289.79
1276.43
1263.2
1250.14
1237.22
1224.57
1211.87
1851.31
1836.5
1821.67
1806.8
1791.91
1776.99
1762.06
1747.11
1732.15
1717.18
1702.21
1687.24
1672.26
1657.29
1642.33
1627.38
1612.45
1597.53
1582.64
1567.77
1552.93
1538.12
1523.35
1508.62
1493.93
1479.29
1464.7
1450.16
1435.69
1421.29
1406.96
1392.7
1378.53
1364.44
1350.45
1336.55
1322.76
1309.08
1295.52
1282.09
1268.81
1255.68
1242.72
1229.9
1217.36
1204.79
1843.72
1828.85
1813.94
1799.02
1784.07
1769.1
1754.11
1739.12
1724.12
1709.11
1694.1
1679.1
1664.1
1649.11
1634.13
1619.16
1604.22
1589.29
1574.39
1559.52
1544.69
1529.88
1515.12
1500.4
1485.73
1471.11
1456.55
1442.05
1427.61
1413.25
1398.96
1384.74
1370.6
1356.56
1342.61
1328.77
1315.04
1301.42
1287.94
1274.6
1261.4
1248.36
1235.5
1222.78
1210.35
1197.91
1836.28
1821.33
1806.37
1791.38
1776.37
1761.35
1746.32
1731.28
1716.24
1701.2
1686.16
1671.13
1656.1
1641.09
1626.09
1611.11
1596.16
1581.23
1566.33
1551.46
1536.63
1521.83
1507.08
1492.38
1477.74
1463.14
1448.61
1434.13
1419.72
1405.39
1391.12
1376.94
1362.85
1348.85
1334.96
1321.18
1307.51
1293.97
1280.56
1267.3
1254.19
1241.23
1228.47
1215.86
1203.53
1191.22
1828.96
1813.95
1798.93
1783.88
1768.82
1753.75
1738.68
1723.6
1708.52
1693.45
1678.38
1663.32
1648.27
1633.24
1618.23
1603.24
1588.28
1573.34
1558.44
1543.58
1528.76
1513.98
1499.24
1484.56
1469.92
1455.35
1440.83
1426.38
1411.99
1397.68
1383.46
1369.32
1355.28
1341.34
1327.5
1313.78
1300.17
1286.7
1273.37
1260.18
1247.16
1234.3
1221.63
1209.13
1196.91
1184.72
1821.78
1806.71
1791.62
1776.52
1761.42
1746.3
1731.19
1716.07
1700.96
1685.85
1670.75
1655.67
1640.61
1625.56
1610.54
1595.54
1580.58
1565.64
1550.75
1535.89
1521.07
1506.29
1491.57
1476.89
1462.27
1447.71
1433.21
1418.79
1404.44
1390.17
1375.98
1361.89
1347.89
1334
1320.22
1306.56
1293.02
1279.62
1266.36
1253.25
1240.31
1227.55
1214.97
1202.58
1190.46
1178.4
1814.72
1799.59
1784.45
1769.3
1754.15
1738.99
1723.84
1708.69
1693.54
1678.41
1663.29
1648.19
1633.11
1618.06
1603.03
1588.02
1573.05
1558.11
1543.21
1528.35
1513.53
1498.76
1484.04
1469.38
1454.78
1440.24
1425.77
1411.38
1397.06
1382.83
1368.68
1354.63
1340.69
1326.85
1313.12
1299.52
1286.04
1272.71
1259.53
1246.5
1233.65
1220.97
1208.49
1196.2
1184.19
1172.26
1792.6
1777.42
1762.22
1747.02
1731.83
1716.64
1701.46
1686.29
1671.14
1656
1640.88
1625.78
1610.71
1595.66
1580.65
1565.67
1550.72
1535.81
1520.95
1506.15
1491.39
1476.68
1462.04
1447.46
1432.94
1418.5
1404.14
1389.86
1375.66
1361.55
1347.55
1333.65
1319.86
1306.19
1292.64
1279.24
1265.97
1252.86
1239.91
1227.14
1214.56
1202.18
1189.99
1178.09
1166.28
1785.75
1770.52
1755.28
1740.05
1724.82
1709.6
1694.39
1679.19
1664.01
1648.85
1633.71
1618.59
1603.5
1588.44
1573.41
1558.43
1543.48
1528.58
1513.73
1498.93
1484.18
1469.49
1454.87
1440.31
1425.82
1411.4
1397.07
1382.82
1368.66
1354.59
1340.63
1326.77
1313.04
1299.42
1285.94
1272.59
1259.4
1246.36
1233.49
1220.81
1208.31
1196.03
1183.96
1172.17
1160.51
1779.04
1763.76
1748.49
1733.21
1717.95
1702.69
1687.45
1672.22
1657.01
1641.82
1626.66
1611.53
1596.43
1581.36
1566.33
1551.35
1536.4
1521.51
1506.66
1491.87
1477.14
1462.46
1447.85
1433.31
1418.85
1404.46
1390.15
1375.94
1361.81
1347.79
1333.87
1320.06
1306.37
1292.81
1279.39
1266.1
1252.98
1240.02
1227.23
1214.63
1202.24
1190.07
1178.12
1166.48
1154.97
1757.13
1741.81
1726.5
1711.19
1695.9
1680.63
1665.38
1650.15
1634.94
1619.77
1604.62
1589.51
1574.44
1559.41
1544.42
1529.48
1514.59
1499.75
1484.97
1470.25
1455.59
1441