/*--------------------------------*- C++ -*----------------------------------*\
| =========                 |                                                 |
| \\      /  F ield         | OpenFOAM: The Open Source CFD Toolbox           |
|  \\    /   O peration     | Version:  v1706                                 |
|   \\  /    A nd           | Web:      www.OpenFOAM.com                      |
|    \\/     M anipulation  |                                                 |
\*---------------------------------------------------------------------------*/
FoamFile
{
    version     2.0;
    format      ascii;
    class       volScalarField;
    location    "1e-05";
    object      rho;
}
// * * * * * * * * * * * * * * * * * * * * * * * * * * * * * * * * * * * * * //

dimensions      [1 -3 0 0 0 0 0];


internalField   nonuniform List<scalar> 
30038
(
0.000511309
0.000511309
0.000511309
0.000511309
0.000511309
0.000511309
0.000511309
0.000511309
0.000511309
0.000511309
0.000511309
0.000511309
0.000511309
0.000511309
0.000511309
0.000511309
0.000511309
0.000511309
0.000511309
0.000511309
0.000511309
0.000511309
0.000511309
0.000511309
0.000511309
0.000511309
0.000511309
0.000511309
0.000511309
0.000511309
0.000511309
0.000511309
0.000511309
0.000511309
0.000511309
0.000511309
0.000511309
0.000511309
0.000511309
0.000511309
0.000511309
0.000511309
0.000511309
0.000511309
0.000511309
0.000511309
0.000511309
0.000511309
0.000511309
0.000511309
0.000511309
0.000511309
0.000511309
0.000511309
0.000511309
0.000511309
0.000511309
0.000511309
0.000511309
0.000511309
0.000511309
0.000511309
0.000511309
0.000511309
0.000511309
0.000511309
0.000511309
0.000511309
0.000511309
0.000511309
0.000511309
0.000511309
0.000511309
0.000511309
0.000511309
0.000511309
0.000511309
0.000511309
0.000511309
0.000511309
0.000511309
0.000511309
0.000511309
0.000511309
0.000511309
0.000511309
0.000511309
0.000511309
0.000511309
0.000511309
0.000511309
0.000511309
0.000511309
0.000511309
0.000511309
0.000511309
0.000511309
0.000511309
0.000511309
0.000511309
0.000511309
0.000511309
0.000511309
0.000511309
0.000511309
0.000511309
0.000511309
0.000511309
0.000511309
0.000511309
0.000511309
0.000511309
0.000511309
0.000511309
0.000511309
0.000511309
0.000511309
0.000511309
0.000511309
0.000511309
0.000511309
0.000511309
0.000511309
0.000511309
0.000511309
0.000511309
0.000511309
0.000511309
0.000511309
0.000511309
0.000511309
0.000511309
0.000511309
0.000511309
0.000511309
0.000511309
0.000511309
0.000511309
0.000511309
0.000511309
0.000511309
0.000511309
0.000511309
0.000511309
0.000511309
0.000511309
0.000511309
0.000511309
0.000511309
0.000511309
0.000511309
0.000511309
0.000511309
0.000511309
0.000511309
0.000511309
0.000511309
0.000511309
0.000511309
0.000511309
0.000511309
0.000511309
0.000511309
0.000511309
0.000511309
0.000511309
0.000511309
0.000511309
0.000511309
0.000511309
0.000511309
0.000511309
0.000511309
0.000511309
0.000511309
0.000511309
0.000511309
0.000511309
0.000511309
0.000511309
0.000511309
0.000511309
0.000511309
0.000511309
0.000511309
0.000511309
0.000511309
0.000511309
0.000511309
0.000511309
0.000511309
0.000511309
0.000511309
0.000511309
0.000511309
0.000511309
0.000511309
0.000511309
0.000511309
0.000511309
0.000511309
0.000511309
0.000511309
0.000511309
0.000511309
0.000511309
0.000511309
0.000511309
0.000511309
0.000511309
0.000511309
0.000511309
0.000511309
0.000511309
0.000511309
0.000511309
0.000511309
0.000511309
0.000511309
0.000511309
0.000511309
0.000511309
0.000511309
0.000511309
0.000511309
0.000511309
0.000511309
0.000511309
0.000511309
0.000511309
0.000511309
0.000511309
0.000511309
0.000511309
0.000511309
0.000511309
0.000511309
0.000511309
0.000511309
0.000511309
0.000511309
0.000511309
0.000511309
0.000511309
0.000511309
0.000511309
0.000511309
0.000511309
0.000511309
0.000511309
0.000511309
0.000511309
0.000511309
0.000511309
0.000511309
0.000511309
0.000511309
0.000511309
0.000511309
0.000511309
0.000511309
0.000511309
0.000511309
0.000511309
0.000511309
0.000511309
0.000511309
0.000511309
0.000511309
0.000511309
0.000511309
0.000511309
0.000511309
0.000511309
0.000511309
0.000511309
0.000511309
0.000511309
0.000511309
0.000511309
0.000511309
0.000511309
0.000511309
0.000511309
0.000511309
0.000511309
0.000511309
0.000511309
0.000511309
0.000511309
0.000511309
0.000511309
0.000511309
0.000511309
0.000511309
0.000511309
0.000511309
0.000511309
0.000511309
0.000511309
0.000511309
0.000511309
0.000511309
0.000511309
0.000511309
0.000511309
0.000511309
0.000511309
0.000511309
0.000511309
0.000511309
0.000511309
0.000511309
0.000511309
0.000511309
0.000511309
0.000511309
0.000511309
0.000511309
0.000511309
0.000511309
0.000511309
0.000511309
0.000511309
0.000511309
0.000511309
0.000511309
0.000511309
0.000511309
0.000511309
0.000511309
0.000511309
0.000511309
0.000511309
0.000511309
0.000511309
0.000511309
0.000511309
0.000511309
0.000511309
0.000511309
0.000511309
0.000511309
0.000511309
0.000511309
0.000511309
0.000511309
0.000511309
0.000511309
0.000511309
0.000511309
0.000511309
0.000511309
0.000511309
0.000511309
0.000511309
0.000511309
0.000511309
0.000511309
0.000511309
0.000511309
0.000511309
0.000511309
0.000511309
0.000511309
0.000511309
0.000511309
0.000511309
0.000511309
0.000511309
0.000511309
0.000511309
0.000511309
0.000511309
0.000511309
0.000511309
0.000511309
0.000511309
0.000511309
0.000511309
0.000511309
0.000511309
0.000511309
0.000511309
0.000511309
0.000511309
0.000511309
0.000511309
0.000511309
0.000511309
0.000511309
0.000511309
0.000511309
0.000511309
0.000511309
0.000511309
0.000511309
0.000511309
0.000511309
0.000511309
0.000511309
0.000511309
0.000511309
0.000511309
0.000511309
0.000511309
0.000511309
0.000511309
0.000511309
0.000511309
0.000511309
0.000511309
0.000511309
0.000511309
0.000511309
0.000511309
0.000511309
0.000511309
0.000511309
0.000511309
0.000511309
0.000511309
0.000511309
0.000511309
0.000511309
0.000511309
0.000511309
0.000511309
0.000511309
0.000511309
0.000511309
0.000511309
0.000511309
0.000511309
0.000511309
0.000511309
0.000511309
0.000511309
0.000511309
0.000511309
0.000511309
0.000511309
0.000511309
0.000511309
0.000511309
0.000511309
0.000511309
0.000511309
0.000511309
0.000511309
0.000511309
0.000511309
0.000511309
0.000511309
0.000511309
0.000511309
0.000511309
0.000511309
0.000511309
0.000511309
0.000511309
0.000511309
0.000511309
0.000511309
0.000511309
0.000511309
0.000511309
0.000511309
0.000511309
0.000511309
0.000511309
0.000511309
0.000511309
0.000511309
0.000511309
0.000511309
0.000511309
0.000511309
0.000511309
0.000511309
0.000511309
0.000511309
0.000511309
0.000511309
0.000511309
0.000511309
0.000511309
0.000511309
0.000511309
0.000511309
0.000511309
0.000511309
0.000511309
0.000511309
0.000511309
0.000511309
0.000511309
0.000511309
0.000511309
0.000511309
0.000511309
0.000511309
0.000511309
0.000511309
0.000511309
0.000511309
0.000511309
0.000511309
0.000511309
0.000511309
0.000511309
0.000511309
0.000511309
0.000511309
0.000511309
0.000511309
0.000511309
0.000511309
0.000511309
0.000511309
0.000511309
0.000511309
0.000511309
0.000511309
0.000511309
0.000511309
0.000511309
0.000511309
0.000511309
0.000511309
0.000511309
0.000511309
0.000511309
0.000511309
0.000511309
0.000511309
0.000511309
0.000511309
0.000511309
0.000511309
0.000511309
0.000511309
0.000511309
0.000511309
0.000511309
0.000511309
0.000511309
0.000511309
0.000511309
0.000511309
0.000511309
0.000511309
0.000511309
0.000511309
0.000511309
0.000511309
0.000511309
0.000511309
0.000511309
0.000511309
0.000511309
0.000511309
0.000511309
0.000511309
0.000511309
0.000511309
0.000511309
0.000511309
0.000511309
0.000511309
0.000511309
0.000511309
0.000511309
0.000511309
0.000511309
0.000511309
0.000511309
0.000511309
0.000511309
0.000511309
0.000511309
0.000511309
0.000511309
0.000511309
0.000511309
0.000511309
0.000511309
0.000511309
0.000511309
0.000511309
0.000511309
0.000511309
0.000511309
0.000511309
0.000511309
0.000511309
0.000511309
0.000511309
0.000511309
0.000511309
0.000511309
0.000511309
0.000511309
0.000511309
0.000511309
0.000511309
0.000511309
0.000511309
0.000511309
0.000511309
0.000511309
0.000511309
0.000511309
0.000511309
0.000511309
0.000511309
0.000511309
0.000511309
0.000511309
0.000511309
0.000511309
0.000511309
0.000511309
0.000511309
0.000511309
0.000511309
0.000511309
0.000511309
0.000511309
0.000511309
0.000511309
0.000511309
0.000511309
0.000511309
0.000511309
0.000511309
0.000511309
0.000511309
0.000511309
0.000511309
0.000511309
0.000511309
0.000511309
0.000511309
0.000511309
0.000511309
0.000511309
0.000511309
0.000511309
0.000511309
0.000511309
0.000511309
0.000511309
0.000511309
0.000511309
0.000511309
0.000511309
0.000511309
0.000511309
0.000511309
0.000511309
0.000511309
0.000511309
0.000511309
0.000511309
0.000511309
0.000511309
0.000511309
0.000511309
0.000511309
0.000511309
0.000511309
0.000511309
0.000511309
0.000511309
0.000511309
0.000511309
0.000511309
0.000511309
0.000511309
0.000511309
0.000511309
0.000511309
0.000511309
0.000511309
0.000511309
0.000511309
0.000511309
0.000511309
0.000511309
0.000511309
0.000511309
0.000511309
0.000511309
0.000511309
0.000511309
0.000511309
0.000511309
0.000511309
0.000511309
0.000511309
0.000511309
0.000511309
0.000511309
0.000511309
0.000511309
0.000511309
0.000511309
0.000511309
0.000511309
0.000511309
0.000511309
0.000511309
0.000511309
0.000511309
0.000511309
0.000511309
0.000511309
0.000511309
0.000511309
0.000511309
0.000511309
0.000511309
0.000511309
0.000511309
0.000511309
0.000511309
0.000511309
0.000511309
0.000511309
0.000511309
0.000511309
0.000511309
0.000511309
0.000511309
0.000511309
0.000511309
0.000511309
0.000511309
0.000511309
0.000511309
0.000511309
0.000511309
0.000511309
0.000511309
0.000511309
0.000511309
0.000511309
0.000511309
0.000511309
0.000511309
0.000511309
0.000511309
0.000511309
0.000511309
0.000511309
0.000511309
0.000511309
0.000511309
0.000511309
0.000511309
0.000511309
0.000511309
0.000511309
0.000511309
0.000511309
0.000511309
0.000511309
0.000511309
0.000511309
0.000511309
0.000511309
0.000511309
0.000511309
0.000511309
0.000511309
0.000511309
0.000511309
0.000511309
0.000511309
0.000511309
0.000511309
0.000511309
0.000511309
0.000511309
0.000511309
0.000511309
0.000511309
0.000511309
0.000511309
0.000511309
0.000511309
0.000511309
0.000511309
0.000511309
0.000511309
0.000511309
0.000511309
0.000511309
0.000511309
0.000511309
0.000511309
0.000511309
0.000511309
0.000511309
0.000511309
0.000511309
0.000511309
0.000511309
0.000511309
0.000511309
0.000511309
0.000511309
0.000511309
0.000511309
0.000511309
0.000511309
0.000511309
0.000511309
0.000511309
0.000511309
0.000511309
0.000511309
0.000511309
0.000511309
0.000511309
0.000511309
0.000511309
0.000511309
0.000511309
0.000511309
0.000511309
0.000511309
0.000511309
0.000511309
0.000511309
0.000511309
0.000511309
0.000511309
0.000511309
0.000511309
0.000511309
0.000511309
0.000511309
0.000511309
0.000511309
0.000511309
0.000511309
0.000511309
0.000511309
0.000511309
0.000511309
0.000511309
0.000511309
0.000511309
0.000511309
0.000511309
0.000511309
0.000511309
0.000511309
0.000511309
0.000511309
0.000511309
0.000511309
0.000511309
0.000511309
0.000511309
0.000511309
0.000511309
0.000511309
0.000511309
0.000511309
0.000511309
0.000511309
0.000511309
0.000511309
0.000511309
0.000511309
0.000511309
0.000511309
0.000511309
0.000511309
0.000511309
0.000511309
0.000511309
0.000511309
0.000511309
0.000511309
0.000511309
0.000511309
0.000511309
0.000511309
0.000511309
0.000511309
0.000511309
0.000511309
0.000511309
0.000511309
0.000511309
0.000511309
0.000511309
0.000511309
0.000511309
0.000511309
0.000511309
0.000511309
0.000511309
0.000511309
0.000511309
0.000511309
0.000511309
0.000511309
0.000511309
0.000511309
0.000511309
0.000511309
0.000511309
0.000511309
0.000511309
0.000511309
0.000511309
0.000511309
0.000511309
0.000511309
0.000511309
0.000511309
0.000511309
0.000511309
0.000511309
0.000511309
0.000511309
0.000511309
0.000511309
0.000511309
0.000511309
0.000511309
0.000511309
0.000511309
0.000511309
0.000511309
0.000511309
0.000511309
0.000511309
0.000511309
0.000511309
0.000511309
0.000511309
0.000511309
0.000511309
0.000511309
0.000511309
0.000511309
0.000511309
0.000511309
0.000511309
0.000511309
0.000511309
0.000511309
0.000511309
0.000511309
0.000511309
0.000511309
0.000511309
0.000511309
0.000511309
0.000511309
0.000511309
0.000511309
0.000511309
0.000511309
0.000511309
0.000511309
0.000511309
0.000511309
0.000511309
0.000511309
0.000511309
0.000511309
0.000511309
0.000511309
0.000511309
0.000511309
0.000511309
0.000511309
0.000511309
0.000511309
0.000511309
0.000511309
0.000511309
0.000511309
0.000511309
0.000511309
0.000511309
0.000511309
0.000511309
0.000511309
0.000511309
0.000511309
0.000511309
0.000511309
0.000511309
0.000511309
0.000511309
0.000511309
0.000511309
0.000511309
0.000511309
0.000511309
0.000511309
0.000511309
0.000511309
0.000511309
0.000511309
0.000511309
0.000511309
0.000511309
0.000511309
0.000511309
0.000511309
0.000511309
0.000511309
0.000511309
0.000511309
0.000511309
0.000511309
0.000511309
0.000511309
0.000511309
0.000511309
0.000511309
0.000511309
0.000511309
0.000511309
0.000511309
0.000511309
0.000511309
0.000511309
0.000511309
0.000511309
0.000511309
0.000511309
0.000511309
0.000511309
0.000511309
0.000511309
0.000511309
0.000511309
0.000511309
0.000511309
0.000511309
0.000511309
0.000511309
0.000511309
0.000511309
0.000511309
0.000511309
0.000511309
0.000511309
0.000511309
0.000511309
0.000511309
0.000511309
0.000511309
0.000511309
0.000511309
0.000511309
0.000511309
0.000511309
0.000511309
0.000511309
0.000511309
0.000511309
0.000511309
0.000511309
0.000511309
0.000511309
0.000511309
0.000511309
0.000511309
0.000511309
0.000511309
0.000511309
0.000511309
0.000511309
0.000511309
0.000511309
0.000511309
0.000511309
0.000511309
0.000511309
0.000511309
0.000511309
0.000511309
0.000511309
0.000511309
0.000511309
0.000511309
0.000511309
0.000511309
0.000511309
0.000511309
0.000511309
0.000511309
0.000511309
0.000511309
0.000511309
0.000511309
0.000511309
0.000511309
0.000511309
0.000511309
0.000511309
0.000511309
0.000511309
0.000511309
0.000511309
0.000511309
0.000511309
0.000511309
0.000511309
0.000511309
0.000511309
0.000511309
0.000511309
0.000511309
0.000511309
0.000511309
0.000511309
0.000511309
0.000511309
0.000511309
0.000511309
0.000511309
0.000511309
0.000511309
0.000511309
0.000511309
0.000511309
0.000511309
0.000511309
0.000511309
0.000511309
0.000511309
0.000511309
0.000511309
0.000511309
0.000511309
0.000511309
0.000511309
0.000511309
0.000511309
0.000511309
0.000511309
0.000511309
0.000511309
0.000511309
0.000511309
0.000511309
0.000511309
0.000511309
0.000511309
0.000511309
0.000511309
0.000511309
0.000511309
0.000511309
0.000511309
0.000511309
0.000511309
0.000511309
0.000511309
0.000511309
0.000511309
0.000511309
0.000511309
0.000511309
0.000511309
0.000511309
0.000511309
0.000511309
0.000511309
0.000511309
0.000511309
0.000511309
0.000511309
0.000511309
0.000511309
0.000511309
0.000511309
0.000511309
0.000511309
0.00051131
0.000511309
0.000511309
0.000511309
0.000511309
0.000511309
0.000511309
0.000511309
0.000511309
0.000511309
0.000511309
0.000511309
0.000511309
0.000511309
0.000511309
0.000511309
0.000511309
0.000511309
0.000511309
0.000511309
0.000511309
0.000511309
0.000511309
0.000511309
0.000511309
0.000511309
0.000511309
0.000511309
0.000511309
0.000511309
0.000511309
0.000511309
0.000511309
0.000511309
0.000511309
0.000511309
0.000511309
0.000511309
0.000511309
0.000511309
0.000511309
0.000511309
0.000511309
0.000511309
0.000511309
0.000511309
0.000511309
0.00051131
0.00051131
0.00051131
0.000511311
0.000511309
0.000511309
0.000511309
0.000511309
0.000511309
0.000511309
0.000511309
0.000511309
0.000511309
0.000511309
0.000511309
0.000511309
0.000511309
0.000511309
0.000511309
0.000511309
0.000511309
0.000511309
0.000511309
0.000511309
0.000511309
0.000511309
0.000511309
0.000511309
0.000511309
0.000511309
0.000511309
0.000511309
0.000511309
0.000511309
0.000511309
0.000511309
0.000511309
0.000511309
0.000511309
0.000511309
0.000511309
0.000511309
0.000511309
0.000511309
0.000511309
0.000511309
0.000511309
0.00051131
0.00051131
0.00051131
0.000511311
0.000511312
0.000511314
0.000511319
0.000511309
0.000511309
0.000511309
0.000511309
0.000511309
0.000511309
0.000511309
0.000511309
0.000511309
0.000511309
0.000511309
0.000511309
0.000511309
0.000511309
0.000511309
0.000511309
0.000511309
0.000511309
0.000511309
0.000511309
0.000511309
0.000511309
0.000511309
0.000511309
0.000511309
0.000511309
0.000511309
0.000511309
0.000511309
0.000511309
0.000511309
0.000511309
0.000511309
0.000511309
0.000511309
0.000511309
0.000511309
0.000511309
0.000511309
0.00051131
0.00051131
0.00051131
0.00051131
0.000511311
0.000511312
0.000511314
0.000511318
0.000511325
0.000511338
0.000511363
0.000511309
0.000511309
0.000511309
0.000511309
0.000511309
0.000511309
0.000511309
0.000511309
0.000511309
0.000511309
0.000511309
0.000511309
0.000511309
0.000511309
0.000511309
0.000511309
0.000511309
0.000511309
0.000511309
0.000511309
0.000511309
0.000511309
0.000511309
0.000511309
0.000511309
0.000511309
0.000511309
0.000511309
0.000511309
0.000511309
0.000511309
0.000511309
0.000511309
0.000511309
0.000511309
0.000511309
0.00051131
0.00051131
0.00051131
0.00051131
0.000511311
0.000511312
0.000511314
0.000511318
0.000511324
0.000511336
0.000511357
0.000511394
0.000511461
0.000511595
0.000511309
0.000511309
0.000511309
0.000511309
0.000511309
0.000511309
0.000511309
0.000511309
0.000511309
0.000511309
0.000511309
0.000511309
0.000511309
0.000511309
0.000511309
0.000511309
0.000511309
0.000511309
0.000511309
0.000511309
0.000511309
0.000511309
0.000511309
0.000511309
0.000511309
0.000511309
0.000511309
0.000511309
0.000511309
0.000511309
0.000511309
0.000511309
0.000511309
0.00051131
0.00051131
0.00051131
0.00051131
0.000511311
0.000511312
0.000511314
0.000511318
0.000511324
0.000511335
0.000511355
0.00051139
0.000511451
0.00051156
0.000511753
0.000512096
0.00051276
0.000511309
0.000511309
0.000511309
0.000511309
0.000511309
0.000511309
0.000511309
0.000511309
0.000511309
0.000511309
0.000511309
0.000511309
0.000511309
0.000511309
0.000511309
0.000511309
0.000511309
0.000511309
0.000511309
0.000511309
0.000511309
0.000511309
0.000511309
0.000511309
0.000511309
0.000511309
0.000511309
0.000511309
0.000511309
0.000511309
0.00051131
0.00051131
0.00051131
0.00051131
0.000511311
0.000511312
0.000511314
0.000511318
0.000511324
0.000511335
0.000511355
0.000511388
0.000511446
0.000511548
0.000511726
0.000512037
0.00051258
0.000513521
0.000515136
0.000518047
0.000511309
0.000511309
0.000511309
0.000511309
0.000511309
0.000511309
0.000511309
0.000511309
0.000511309
0.000511309
0.000511309
0.000511309
0.000511309
0.000511309
0.000511309
0.000511309
0.000511309
0.000511309
0.000511309
0.000511309
0.000511309
0.000511309
0.000511309
0.000511309
0.000511309
0.000511309
0.000511309
0.00051131
0.00051131
0.00051131
0.00051131
0.000511311
0.000511313
0.000511315
0.000511319
0.000511325
0.000511336
0.000511355
0.000511388
0.000511445
0.000511543
0.000511712
0.000512003
0.000512506
0.000513366
0.000514823
0.000517243
0.000521145
0.000527196
0.00053675
0.000511309
0.000511309
0.000511309
0.000511309
0.000511309
0.000511309
0.000511309
0.000511309
0.000511309
0.000511309
0.000511309
0.000511309
0.000511309
0.000511309
0.000511309
0.000511309
0.000511309
0.000511309
0.000511309
0.000511309
0.000511309
0.000511309
0.000511309
0.00051131
0.00051131
0.00051131
0.00051131
0.000511311
0.000511311
0.000511313
0.000511315
0.000511319
0.000511326
0.000511338
0.000511357
0.000511391
0.000511447
0.000511544
0.000511709
0.00051199
0.000512467
0.000513275
0.000514628
0.000516853
0.000520412
0.000525906
0.000534045
0.000545624
0.000561275
0.00058306
0.000511309
0.000511309
0.000511309
0.000511309
0.000511309
0.000511309
0.000511309
0.000511309
0.000511309
0.000511309
0.000511309
0.000511309
0.000511309
0.000511309
0.000511309
0.000511309
0.000511309
0.000511309
0.000511309
0.000511309
0.00051131
0.00051131
0.00051131
0.00051131
0.000511311
0.000511312
0.000511313
0.000511316
0.000511321
0.000511328
0.00051134
0.000511361
0.000511395
0.000511454
0.000511552
0.000511716
0.000511994
0.00051246
0.00051324
0.000514529
0.000516626
0.000519951
0.000525045
0.000532545
0.000543139
0.000557518
0.000576315
0.00060024
0.000629813
0.00066888
0.000511309
0.000511309
0.000511309
0.000511309
0.000511309
0.000511309
0.000511309
0.000511309
0.000511309
0.000511309
0.000511309
0.000511309
0.000511309
0.000511309
0.000511309
0.000511309
0.00051131
0.00051131
0.00051131
0.00051131
0.00051131
0.000511311
0.000511312
0.000511314
0.000511317
0.000511322
0.00051133
0.000511344
0.000511366
0.000511403
0.000511464
0.000511566
0.000511735
0.000512017
0.000512483
0.000513254
0.000514512
0.000516534
0.000519705
0.00052452
0.000531555
0.000541431
0.000554771
0.000572179
0.000594209
0.000621562
0.00065526
0.000696865
0.000746309
0.000811796
0.000511309
0.000511309
0.000511309
0.000511309
0.000511309
0.000511309
0.000511309
0.000511309
0.000511309
0.000511309
0.000511309
0.000511309
0.000511309
0.00051131
0.00051131
0.00051131
0.00051131
0.000511311
0.000511312
0.000511313
0.000511315
0.000511319
0.000511324
0.000511334
0.000511349
0.000511373
0.000511414
0.00051148
0.000511588
0.000511766
0.000512059
0.000512537
0.000513318
0.000514576
0.000516571
0.000519662
0.000524304
0.000531026
0.000540387
0.000552952
0.000569267
0.000589844
0.000615241
0.000646284
0.000684246
0.000730186
0.000785473
0.00085433
0.000941675
0.00106607
0.000511309
0.000511309
0.000511309
0.000511309
0.000511309
0.000511309
0.000511309
0.000511309
0.000511309
0.00051131
0.00051131
0.00051131
0.00051131
0.00051131
0.000511311
0.000511312
0.000511314
0.000511316
0.000511321
0.000511327
0.000511338
0.000511355
0.000511383
0.000511428
0.000511501
0.00051162
0.000511812
0.000512123
0.000512626
0.000513435
0.000514722
0.000516734
0.000519809
0.000524369
0.0005309
0.000539905
0.000551889
0.000567339
0.000586734
0.000610546
0.000639445
0.000674527
0.000716987
0.000767933
0.000829632
0.000907406
0.00100848
0.00114016
0.00130145
0.00149994
0.000511309
0.000511309
0.000511309
0.000511309
0.000511309
0.00051131
0.00051131
0.00051131
0.00051131
0.00051131
0.000511311
0.000511312
0.000511313
0.000511315
0.000511318
0.000511323
0.000511331
0.000511344
0.000511364
0.000511397
0.000511449
0.000511531
0.000511664
0.000511876
0.000512215
0.000512756
0.000513614
0.000514958
0.00051703
0.00052015
0.00052471
0.000531158
0.00053995
0.000551533
0.000566341
0.000584816
0.000607386
0.000634612
0.000667372
0.000706934
0.000754268
0.000810881
0.000880436
0.000969326
0.00108451
0.00123032
0.00140475
0.00159875
0.00179289
0.00197885
0.000511309
0.00051131
0.00051131
0.00051131
0.00051131
0.00051131
0.000511311
0.000511311
0.000511312
0.000511314
0.000511317
0.000511321
0.000511327
0.000511337
0.000511352
0.000511377
0.000511415
0.000511476
0.000511572
0.000511723
0.000511963
0.000512341
0.000512936
0.000513866
0.000515301
0.000517478
0.000520702
0.000525342
0.000531807
0.00054051
0.000551844
0.000566195
0.000583958
0.000605543
0.000631421
0.000662312
0.000699379
0.000743677
0.000796327
0.000859759
0.000939144
0.00104113
0.00117118
0.00133042
0.00151292
0.00170588
0.00189197
0.00205609
0.00218649
0.00228347
0.00051131
0.00051131
0.00051131
0.000511311
0.000511311
0.000511312
0.000511314
0.000511316
0.000511319
0.000511324
0.000511332
0.000511345
0.000511364
0.000511394
0.000511441
0.000511514
0.000511627
0.000511805
0.000512081
0.000512512
0.000513181
0.000514209
0.000515772
0.0005181
0.000521488
0.000526281
0.000532851
0.000541569
0.000552783
0.000566832
0.000584071
0.000604892
0.000629703
0.000659122
0.000694125
0.000735887
0.000785349
0.000844178
0.000916273
0.00100761
0.00112406
0.00126863
0.00143876
0.00162486
0.00181234
0.0019849
0.00213043
0.00224188
0.00231997
0.00236778
0.00239366
0.000511311
0.000511312
0.000511313
0.000511315
0.000511318
0.000511323
0.00051133
0.00051134
0.000511356
0.000511381
0.000511418
0.000511476
0.000511566
0.000511703
0.000511915
0.000512242
0.000512743
0.00051351
0.000514669
0.0005164
0.000518932
0.000522547
0.000527566
0.000534328
0.000543164
0.000554381
0.000568272
0.000585159
0.000605404
0.000629389
0.000657641
0.000690984
0.00073062
0.00077744
0.000832698
0.000899209
0.000982101
0.00108719
0.00121855
0.00137599
0.00155314
0.00173788
0.00191509
0.002071
0.00219689
0.00228988
0.00235177
0.00238736
0.00240525
0.00240964
0.00241226
0.000511315
0.000511318
0.000511322
0.000511328
0.000511337
0.000511351
0.000511372
0.000511404
0.000511453
0.000511526
0.000511638
0.000511808
0.000512067
0.00051246
0.000513056
0.00051395
0.000515281
0.000517229
0.000520023
0.000523932
0.000529252
0.000536288
0.000545331
0.000556647
0.000570493
0.000587158
0.000606978
0.000630324
0.000657657
0.000689698
0.00072755
0.000772196
0.000824631
0.000886871
0.000963166
0.00105897
0.00117887
0.00132426
0.0014914
0.00167069
0.0018488
0.00201172
0.00214911
0.0022551
0.00233052
0.0023775
0.00240429
0.00241414
0.00241663
0.00241974
0.00241815
0.0024101
0.000511336
0.000511349
0.000511368
0.000511396
0.000511438
0.000511502
0.000511597
0.00051174
0.000511955
0.000512277
0.00051276
0.00051348
0.000514542
0.000516092
0.000518315
0.000521435
0.000525706
0.000531397
0.000538779
0.000548104
0.000559606
0.000573509
0.000590076
0.000609625
0.000632519
0.000659168
0.000690215
0.00072664
0.000769496
0.000819631
0.000878579
0.000949722
0.00103803
0.00114822
0.00128272
0.0014397
0.001612
0.00178813
0.00195473
0.0021003
0.00221789
0.00230528
0.00236429
0.00239879
0.00241703
0.00242155
0.00242439
0.00242563
0.002422
0.00241234
0.00239752
0.0023783
0.000511431
0.000511488
0.000511573
0.000511699
0.000511886
0.000512162
0.000512572
0.000513175
0.000514058
0.000515337
0.000517165
0.000519729
0.000523245
0.000527949
0.000534082
0.00054188
0.000551562
0.000563331
0.000577385
0.000593967
0.000613377
0.000635968
0.000662115
0.000692398
0.000727694
0.000769087
0.000817356
0.00087373
0.000940886
0.00102324
0.00112542
0.0012504
0.00139773
0.00156229
0.00173438
0.00190187
0.00205305
0.00217968
0.00227739
0.00234711
0.0023914
0.00241646
0.00242645
0.00242913
0.0024324
0.00243097
0.00242436
0.00241287
0.00239711
0.00237805
0.00235717
0.00233432
0.000511848
0.000512096
0.000512459
0.000512987
0.000513752
0.00051485
0.000516408
0.000518584
0.000521564
0.000525551
0.00053076
0.000537401
0.000545677
0.000555777
0.000567876
0.000582153
0.000598837
0.000618213
0.000640627
0.000666435
0.000696167
0.000730621
0.000770873
0.000817671
0.00087204
0.000936116
0.00101378
0.00110943
0.0012263
0.00136487
0.00152157
0.00168845
0.00185471
0.00200889
0.00214189
0.00224859
0.00232789
0.00238147
0.00241318
0.00242985
0.00243447
0.00243701
0.00243851
0.0024352
0.00242658
0.00241317
0.00239685
0.00237724
0.00235637
0.00233486
0.00231346
0.00229082
0.000513578
0.000514559
0.000515939
0.000517851
0.000520455
0.000523931
0.000528464
0.000534243
0.000541449
0.000550254
0.000560822
0.000573308
0.000587877
0.000604746
0.000624198
0.000646566
0.000672196
0.000701579
0.00073545
0.000774832
0.000820489
0.000873292
0.000934998
0.00100902
0.00109944
0.00120955
0.00134041
0.00148959
0.00165069
0.00181413
0.0019692
0.00210653
0.0022202
0.00230731
0.00236921
0.00240865
0.00243098
0.00243951
0.00244232
0.00244544
0.00244397
0.00243776
0.00242729
0.00241307
0.00239584
0.00237627
0.00235595
0.00233501
0.00231388
0.00229267
0.00227191
0.00225012
0.000519787
0.000522907
0.00052696
0.000532111
0.000538521
0.000546341
0.000555722
0.000566804
0.000579729
0.000594651
0.000611783
0.000631405
0.000653841
0.000679427
0.000708622
0.000742124
0.000780891
0.000825696
0.000877312
0.000937244
0.00100848
0.00109479
0.0011994
0.00132366
0.00146598
0.00162114
0.00178078
0.00193506
0.00207476
0.00219322
0.00228697
0.0023562
0.00240267
0.00243001
0.00244389
0.00244802
0.0024506
0.00245158
0.0024482
0.0024401
0.00242791
0.00241302
0.00239496
0.00237554
0.00235556
0.00233514
0.00231463
0.0022941
0.00227366
0.00225319
0.00223316
0.00221215
0.000536636
0.000543725
0.0005522
0.000562189
0.000573821
0.000587222
0.000602545
0.000620007
0.000639886
0.0006625
0.000688173
0.000717343
0.00075068
0.000789089
0.00083333
0.000884102
0.000942745
0.0010119
0.00109506
0.00119527
0.00131401
0.00145023
0.00159963
0.00175498
0.00190727
0.00204761
0.00216909
0.00226794
0.0023429
0.00239546
0.00242851
0.00244707
0.00245353
0.00245628
0.00245896
0.0024571
0.00245077
0.002441
0.00242799
0.00241213
0.00239401
0.00237511
0.0023555
0.00233557
0.00231559
0.00229563
0.00227573
0.00225588
0.00223613
0.00221632
0.00219691
0.00217657
0.000581967
0.000595884
0.000611664
0.000629529
0.000649762
0.000672669
0.000698558
0.000727855
0.000761214
0.000799501
0.000843436
0.000893668
0.000951429
0.00101912
0.00109994
0.00119673
0.00131097
0.00144191
0.00158596
0.00173676
0.00188618
0.0020258
0.00214889
0.00225109
0.00233053
0.00238823
0.00242656
0.0024486
0.00245885
0.00246236
0.00246518
0.00246503
0.00246114
0.00245318
0.00244186
0.0024281
0.00241129
0.00239326
0.00237464
0.0023555
0.00233618
0.00231679
0.00229738
0.00227801
0.00225868
0.00223939
0.00222014
0.00220098
0.00218175
0.00216288
0.00214314
0.000640487
0.000661164
0.000684464
0.000710681
0.000740246
0.000773806
0.000812194
0.000856073
0.000906056
0.000963311
0.00103007
0.00110928
0.00120353
0.00131418
0.00144065
0.00157983
0.00172608
0.00187205
0.00200994
0.00213315
0.00223717
0.00231995
0.00238178
0.00242417
0.00245001
0.00246386
0.00246856
0.00247105
0.00247283
0.0024703
0.00246372
0.00245435
0.00244224
0.00242733
0.00241047
0.00239289
0.00237453
0.0023558
0.002337
0.00231816
0.0022993
0.00228046
0.00226164
0.00224284
0.00222407
0.00220533
0.00218661
0.00216796
0.00214925
0.00213088
0.00211169
0.000724669
0.000754655
0.00078861
0.000827331
0.000871401
0.000921407
0.000978501