/*--------------------------------*- C++ -*----------------------------------*\
| =========                 |                                                 |
| \\      /  F ield         | OpenFOAM: The Open Source CFD Toolbox           |
|  \\    /   O peration     | Version:  v1706                                 |
|   \\  /    A nd           | Web:      www.OpenFOAM.com                      |
|    \\/     M anipulation  |                                                 |
\*---------------------------------------------------------------------------*/
FoamFile
{
    version     2.0;
    format      ascii;
    class       volScalarField;
    location    "1e-05";
    object      Tov;
}
// * * * * * * * * * * * * * * * * * * * * * * * * * * * * * * * * * * * * * //

dimensions      [0 0 0 1 0 0 0];


internalField   nonuniform List<scalar> 
30038
(
144.4
144.4
144.4
144.4
144.4
144.4
144.4
144.4
144.4
144.4
144.4
144.4
144.4
144.4
144.4
144.4
144.4
144.4
144.4
144.4
144.4
144.4
144.4
144.4
144.4
144.4
144.4
144.4
144.4
144.4
144.4
144.4
144.4
144.4
144.4
144.4
144.4
144.4
144.4
144.4
144.4
144.4
144.4
144.4
144.4
144.4
144.4
144.4
144.4
144.4
144.4
144.4
144.4
144.4
144.4
144.4
144.4
144.4
144.4
144.4
144.4
144.4
144.4
144.4
144.4
144.4
144.4
144.4
144.4
144.4
144.4
144.4
144.4
144.4
144.4
144.4
144.4
144.4
144.4
144.4
144.4
144.4
144.4
144.4
144.4
144.4
144.4
144.4
144.4
144.4
144.4
144.4
144.4
144.4
144.4
144.4
144.4
144.4
144.4
144.4
144.4
144.4
144.4
144.4
144.4
144.4
144.4
144.4
144.4
144.4
144.4
144.4
144.4
144.4
144.4
144.4
144.4
144.4
144.4
144.4
144.4
144.4
144.4
144.4
144.4
144.4
144.4
144.4
144.4
144.4
144.4
144.4
144.4
144.4
144.4
144.4
144.4
144.4
144.4
144.4
144.4
144.4
144.4
144.4
144.4
144.4
144.4
144.4
144.4
144.4
144.4
144.4
144.4
144.4
144.4
144.4
144.4
144.4
144.4
144.4
144.4
144.4
144.4
144.4
144.4
144.4
144.4
144.4
144.4
144.4
144.4
144.4
144.4
144.4
144.4
144.4
144.4
144.4
144.4
144.4
144.4
144.4
144.4
144.4
144.4
144.4
144.4
144.4
144.4
144.4
144.4
144.4
144.4
144.4
144.4
144.4
144.4
144.4
144.4
144.4
144.4
144.4
144.4
144.4
144.4
144.4
144.4
144.4
144.4
144.4
144.4
144.4
144.4
144.4
144.4
144.4
144.4
144.4
144.4
144.4
144.4
144.4
144.4
144.4
144.4
144.4
144.4
144.4
144.4
144.4
144.4
144.4
144.4
144.4
144.4
144.4
144.4
144.4
144.4
144.4
144.4
144.4
144.4
144.4
144.4
144.4
144.4
144.4
144.4
144.4
144.4
144.4
144.4
144.4
144.4
144.4
144.4
144.4
144.4
144.4
144.4
144.4
144.4
144.4
144.4
144.4
144.4
144.4
144.4
144.4
144.4
144.4
144.4
144.4
144.4
144.4
144.4
144.4
144.4
144.4
144.4
144.4
144.4
144.4
144.4
144.4
144.4
144.4
144.4
144.4
144.4
144.4
144.4
144.4
144.4
144.4
144.4
144.4
144.4
144.4
144.4
144.4
144.4
144.4
144.4
144.4
144.4
144.4
144.4
144.4
144.4
144.4
144.4
144.4
144.4
144.4
144.4
144.4
144.4
144.4
144.4
144.4
144.4
144.4
144.4
144.4
144.4
144.4
144.4
144.4
144.4
144.4
144.4
144.4
144.4
144.4
144.4
144.4
144.4
144.4
144.4
144.4
144.4
144.4
144.4
144.4
144.4
144.4
144.4
144.4
144.4
144.4
144.4
144.4
144.4
144.4
144.4
144.4
144.4
144.4
144.4
144.4
144.4
144.4
144.4
144.4
144.4
144.4
144.4
144.4
144.4
144.4
144.4
144.4
144.4
144.4
144.4
144.4
144.4
144.4
144.4
144.4
144.4
144.4
144.4
144.4
144.4
144.4
144.4
144.4
144.4
144.4
144.4
144.4
144.4
144.4
144.4
144.4
144.4
144.4
144.4
144.4
144.4
144.4
144.4
144.4
144.4
144.4
144.4
144.4
144.4
144.4
144.4
144.4
144.4
144.4
144.4
144.4
144.4
144.4
144.4
144.4
144.4
144.4
144.4
144.4
144.4
144.4
144.4
144.4
144.4
144.4
144.4
144.4
144.4
144.4
144.4
144.4
144.4
144.4
144.4
144.4
144.4
144.4
144.4
144.4
144.4
144.4
144.4
144.4
144.4
144.4
144.4
144.4
144.4
144.4
144.4
144.4
144.4
144.4
144.4
144.4
144.4
144.4
144.4
144.4
144.4
144.4
144.4
144.4
144.4
144.4
144.4
144.4
144.4
144.4
144.4
144.4
144.4
144.4
144.4
144.4
144.4
144.4
144.4
144.4
144.4
144.4
144.4
144.4
144.4
144.4
144.4
144.4
144.4
144.4
144.4
144.4
144.4
144.4
144.4
144.4
144.4
144.4
144.4
144.4
144.4
144.4
144.4
144.4
144.4
144.4
144.4
144.4
144.4
144.4
144.4
144.4
144.4
144.4
144.4
144.4
144.4
144.4
144.4
144.4
144.4
144.4
144.4
144.4
144.4
144.4
144.4
144.4
144.4
144.4
144.4
144.4
144.4
144.4
144.4
144.4
144.4
144.4
144.4
144.4
144.4
144.4
144.4
144.4
144.4
144.4
144.4
144.4
144.4
144.4
144.4
144.4
144.4
144.4
144.4
144.4
144.4
144.4
144.4
144.4
144.4
144.4
144.4
144.4
144.4
144.4
144.4
144.4
144.4
144.4
144.4
144.4
144.4
144.4
144.4
144.4
144.4
144.4
144.4
144.4
144.4
144.4
144.4
144.4
144.4
144.4
144.4
144.4
144.4
144.4
144.4
144.4
144.4
144.4
144.4
144.4
144.4
144.4
144.4
144.4
144.4
144.4
144.4
144.4
144.4
144.4
144.4
144.4
144.4
144.4
144.4
144.4
144.4
144.4
144.4
144.4
144.4
144.4
144.4
144.4
144.4
144.4
144.4
144.4
144.4
144.4
144.4
144.4
144.4
144.4
144.4
144.4
144.4
144.4
144.4
144.4
144.4
144.4
144.4
144.4
144.4
144.4
144.4
144.4
144.4
144.4
144.4
144.4
144.4
144.4
144.4
144.4
144.4
144.4
144.4
144.4
144.4
144.4
144.4
144.4
144.4
144.4
144.4
144.4
144.4
144.4
144.4
144.4
144.4
144.4
144.4
144.4
144.4
144.4
144.4
144.4
144.4
144.4
144.4
144.4
144.4
144.4
144.4
144.4
144.4
144.4
144.4
144.4
144.4
144.4
144.4
144.4
144.4
144.4
144.4
144.4
144.4
144.4
144.4
144.4
144.4
144.4
144.4
144.4
144.4
144.4
144.4
144.4
144.4
144.4
144.4
144.4
144.4
144.4
144.4
144.4
144.4
144.4
144.4
144.4
144.4
144.4
144.4
144.4
144.4
144.4
144.4
144.4
144.4
144.4
144.4
144.4
144.4
144.4
144.4
144.4
144.4
144.4
144.4
144.4
144.4
144.4
144.4
144.4
144.4
144.4
144.4
144.4
144.4
144.4
144.4
144.4
144.4
144.4
144.4
144.4
144.4
144.4
144.4
144.4
144.4
144.4
144.4
144.4
144.4
144.4
144.4
144.4
144.4
144.4
144.4
144.4
144.4
144.4
144.4
144.4
144.4
144.4
144.4
144.4
144.4
144.4
144.4
144.4
144.4
144.4
144.4
144.4
144.4
144.4
144.4
144.4
144.4
144.4
144.4
144.4
144.4
144.4
144.4
144.4
144.4
144.4
144.4
144.4
144.4
144.4
144.4
144.4
144.4
144.4
144.4
144.4
144.4
144.4
144.4
144.4
144.4
144.4
144.4
144.4
144.4
144.4
144.4
144.4
144.4
144.4
144.4
144.4
144.4
144.4
144.4
144.4
144.4
144.4
144.4
144.4
144.4
144.4
144.4
144.4
144.4
144.4
144.4
144.4
144.4
144.4
144.4
144.4
144.4
144.4
144.4
144.4
144.4
144.4
144.4
144.4
144.4
144.4
144.4
144.4
144.4
144.4
144.4
144.4
144.4
144.4
144.4
144.4
144.4
144.4
144.4
144.4
144.4
144.4
144.4
144.4
144.4
144.4
144.4
144.4
144.4
144.4
144.4
144.4
144.4
144.4
144.4
144.4
144.4
144.4
144.4
144.4
144.4
144.4
144.4
144.4
144.4
144.4
144.4
144.4
144.4
144.4
144.4
144.4
144.4
144.4
144.4
144.4
144.4
144.4
144.4
144.4
144.4
144.4
144.4
144.4
144.4
144.4
144.4
144.4
144.4
144.4
144.4
144.4
144.4
144.4
144.4
144.4
144.4
144.4
144.4
144.4
144.4
144.4
144.4
144.4
144.4
144.4
144.4
144.4
144.4
144.4
144.4
144.4
144.4
144.4
144.4
144.4
144.4
144.4
144.4
144.4
144.4
144.4
144.4
144.4
144.4
144.4
144.4
144.4
144.4
144.4
144.4
144.4
144.4
144.4
144.4
144.4
144.4
144.4
144.4
144.4
144.4
144.4
144.4
144.4
144.4
144.4
144.4
144.4
144.4
144.4
144.4
144.4
144.4
144.4
144.4
144.4
144.4
144.4
144.4
144.4
144.4
144.4
144.4
144.4
144.4
144.4
144.4
144.4
144.4
144.4
144.4
144.4
144.4
144.4
144.4
144.4
144.4
144.4
144.4
144.4
144.4
144.4
144.4
144.4
144.4
144.4
144.4
144.4
144.4
144.4
144.4
144.4
144.4
144.4
144.4
144.4
144.4
144.4
144.4
144.4
144.4
144.4
144.4
144.4
144.4
144.4
144.4
144.4
144.4
144.4
144.4
144.4
144.4
144.4
144.4
144.4
144.4
144.4
144.4
144.4
144.4
144.4
144.4
144.4
144.4
144.4
144.4
144.4
144.4
144.4
144.4
144.4
144.4
144.4
144.4
144.4
144.4
144.4
144.4
144.4
144.4
144.4
144.4
144.4
144.4
144.4
144.4
144.4
144.4
144.4
144.4
144.4
144.4
144.4
144.4
144.4
144.4
144.4
144.4
144.4
144.4
144.4
144.4
144.4
144.4
144.4
144.4
144.4
144.4
144.4
144.4
144.4
144.4
144.4
144.4
144.4
144.4
144.4
144.4
144.4
144.4
144.4
144.4
144.4
144.4
144.4
144.4
144.4
144.4
144.4
144.4
144.4
144.4
144.4
144.4
144.4
144.4
144.4
144.4
144.4
144.4
144.4
144.4
144.4
144.4
144.4
144.4
144.4
144.4
144.4
144.4
144.4
144.4
144.4
144.4
144.4
144.4
144.4
144.4
144.4
144.4
144.4
144.4
144.4
144.4
144.4
144.4
144.4
144.4
144.4
144.4
144.4
144.4
144.4
144.4
144.4
144.4
144.4
144.4
144.4
144.4
144.4
144.4
144.4
144.4
144.4
144.4
144.4
144.4
144.4
144.4
144.4
144.401
144.402
144.4
144.4
144.4
144.4
144.4
144.4
144.4
144.4
144.4
144.4
144.4
144.4
144.4
144.4
144.4
144.4
144.4
144.4
144.4
144.4
144.4
144.4
144.4
144.4
144.4
144.4
144.4
144.4
144.4
144.4
144.4
144.4
144.4
144.4
144.4
144.4
144.4
144.4
144.4
144.4
144.4
144.4
144.4
144.4
144.4
144.401
144.401
144.403
144.405
144.41
144.4
144.4
144.4
144.4
144.4
144.4
144.4
144.4
144.4
144.4
144.4
144.4
144.4
144.4
144.4
144.4
144.4
144.4
144.4
144.4
144.4
144.4
144.4
144.4
144.4
144.4
144.4
144.4
144.4
144.4
144.4
144.4
144.4
144.4
144.4
144.4
144.4
144.4
144.4
144.4
144.4
144.4
144.401
144.401
144.403
144.405
144.409
144.416
144.429
144.457
144.4
144.4
144.4
144.4
144.4
144.4
144.4
144.4
144.4
144.4
144.4
144.4
144.4
144.4
144.4
144.4
144.4
144.4
144.4
144.4
144.4
144.4
144.4
144.4
144.4
144.4
144.4
144.4
144.4
144.4
144.4
144.4
144.4
144.4
144.4
144.4
144.4
144.4
144.4
144.401
144.402
144.403
144.405
144.409
144.416
144.428
144.451
144.493
144.571
144.725
144.4
144.4
144.4
144.4
144.4
144.4
144.4
144.4
144.4
144.4
144.4
144.4
144.4
144.4
144.4
144.4
144.4
144.4
144.4
144.4
144.4
144.4
144.4
144.4
144.4
144.4
144.4
144.4
144.4
144.4
144.4
144.4
144.4
144.4
144.4
144.401
144.401
144.402
144.403
144.405
144.409
144.416
144.428
144.45
144.49
144.562
144.691
144.928
145.365
146.217
144.4
144.4
144.4
144.4
144.4
144.4
144.4
144.4
144.4
144.4
144.4
144.4
144.4
144.4
144.4
144.4
144.4
144.4
144.4
144.4
144.4
144.4
144.4
144.4
144.4
144.4
144.4
144.4
144.4
144.4
144.4
144.4
144.401
144.401
144.402
144.403
144.405
144.409
144.417
144.429
144.451
144.49
144.56
144.684
144.907
145.307
146.026
147.324
149.685
154.107
144.4
144.4
144.4
144.4
144.4
144.4
144.4
144.4
144.4
144.4
144.4
144.4
144.4
144.4
144.4
144.4
144.4
144.4
144.4
144.4
144.4
144.4
144.4
144.4
144.4
144.4
144.4
144.4
144.4
144.401
144.401
144.402
144.404
144.406
144.41
144.418
144.431
144.454
144.493
144.563
144.686
144.903
145.287
145.969
147.179
149.324
153.109
159.73
171.152
190.593
144.4
144.4
144.4
144.4
144.4
144.4
144.4
144.4
144.4
144.4
144.4
144.4
144.4
144.4
144.4
144.4
144.4
144.4
144.4
144.4
144.4
144.4
144.4
144.4
144.4
144.401
144.401
144.401
144.402
144.404
144.407
144.412
144.42
144.434
144.458
144.499
144.571
144.696
144.913
145.294
145.959
147.125
149.164
152.714
158.837
169.208
186.283
213.289
253.926
311.686
144.4
144.4
144.4
144.4
144.4
144.4
144.4
144.4
144.4
144.4
144.4
144.4
144.4
144.4
144.4
144.4
144.4
144.4
144.4
144.4
144.4
144.4
144.401
144.401
144.402
144.403
144.405
144.408
144.413
144.422
144.438
144.464
144.508
144.584
144.714
144.939
145.325
145.993
147.147
149.141
152.569
158.408
168.19
184.143
209.174
246.538
299.157
368.844
455.902
558.873
144.4
144.4
144.4
144.4
144.4
144.4
144.4
144.4
144.4
144.4
144.4
144.4
144.4
144.4
144.4
144.4
144.4
144.4
144.4
144.401
144.401
144.402
144.403
144.406
144.409
144.416
144.426
144.443
144.472
144.521
144.604
144.743
144.98
145.384
146.073
147.248
149.25
152.648
158.365
167.829
183.106
206.884
242.189
291.777
357.405
439.328
536.287
645.924
765.439
891.606
144.4
144.4
144.4
144.4
144.4
144.4
144.4
144.4
144.4
144.4
144.4
144.4
144.4
144.4
144.4
144.401
144.401
144.402
144.403
144.404
144.407
144.412
144.419
144.431
144.451
144.484
144.539
144.631
144.785
145.042
145.475
146.204
147.431
149.496
152.953
158.693
168.076
183.044
206.108
240.089
287.584
350.31
428.635
521.506
626.757
741.6
863.093
988.349
1114.42
1238.81
144.4
144.4
144.4
144.4
144.4
144.4
144.4
144.4
144.4
144.4
144.4
144.401
144.401
144.401
144.402
144.404
144.406
144.409
144.415
144.423
144.438
144.462
144.501
144.564
144.669
144.843
145.13
145.606
146.397
147.713
149.896
153.503
159.411
168.935
183.931
206.761
240.055
286.233
346.918
422.518
512.149
613.891
725.201
843.31
965.476
1088.86
1210.76
1328.81
1440.53
1543.5
144.4
144.4
144.4
144.4
144.4
144.4
144.4
144.401
144.401
144.401
144.402
144.403
144.405
144.407
144.412
144.419
144.43
144.448
144.477
144.523
144.599
144.722
144.922
145.25
145.787
146.668
148.114
150.481
154.338
160.564
170.456
185.805
208.849
242.04
287.601
347.017
420.663
507.754
606.562
714.774
829.844
949.242
1070.44
1190.82
1308.02
1419.79
1523.49
1616.03
1694.49
1758.38
144.4
144.4
144.4
144.4
144.401
144.401
144.402
144.403
144.404
144.406
144.41
144.416
144.425
144.439
144.461
144.497
144.555
144.646
144.794
145.032
145.415
146.036
147.042
148.67
151.298
155.52
162.233
172.733
188.766
212.463
246.098
291.687
350.536
422.939
508.145
604.57
710.101
822.406
939.147
1058.05
1176.73
1292.89
1404.46
1509.22
1604.43
1687.18
1755.44
1808.89
1848.68
1877.8
144.401
144.401
144.402
144.403
144.404
144.406
144.409
144.414
144.421
144.433
144.452
144.481
144.527
144.599
144.713
144.894
145.183
145.643
146.378
147.553
149.43
152.417
157.144
164.541
175.917
192.986
217.775
252.383
298.598
357.52
429.318
513.236
607.789
711.039
820.846
935.057
1051.6
1168.35
1283.14
1394.01
1499.01
1595.87
1681.85
1754.63
1813.1
1857.77
1890.4
1913.48
1929.35
1940.42
144.402
144.404
144.406
144.408
144.413
144.42
144.43
144.446
144.471
144.509
144.569
144.662
144.807
145.035
145.394
145.959
146.849
148.254
150.467
153.939
159.345
167.662
180.222
198.711
225.05
261.145
308.543
368.112
439.871
523.027
616.168
717.506
825.08
936.917
1051.12
1165.8
1278.95
1388.71
1493.31
1590.84
1678.9
1755.1
1817.86
1867.02
1903.79
1930.19
1948.56
1961.02
1969.42
1975.06
1978.81
144.413
144.419
144.428
144.443
144.465
144.499
144.55
144.63
144.752
144.942
145.236
145.692
146.401
147.505
149.222
151.889
156.008
162.315
171.842
185.947
206.281
234.645
272.733
321.829
382.556
454.765
537.611
629.739
729.489
835.072
944.686
1056.59
1169.1
1280.4
1388.72
1492.44
1589.88
1679.01
1757.55
1823.7
1876.74
1917.31
1947.03
1968.02
1982.46
1992.09
1998.46
2002.56
2004.99
2006.57
2008.02
144.442
144.463
144.494
144.541
144.612
144.721
144.886
145.138
145.525
146.118
147.028
148.426
150.571
153.85
158.833
166.326
177.418
193.49
216.141
247.023
287.594
338.857
401.177
474.238
557.139
648.572
747
850.792
958.312
1067.97
1178.25
1287.53
1394.17
1496.61
1593.39
1682.77
1762.7
1831.28
1887.45
1931.35
1964.19
1987.78
2004.16
2015.22
2022.5
2027.22
2029.99
2031.43
2032.51
2033.19
2032.88
2032
144.606
144.707
144.858
145.086
145.429
145.949
146.737
147.93
149.737
152.469
156.579
162.711
171.752
184.845
203.375
228.858
262.76
306.273
360.104
424.366
498.586
581.814
672.794
770.107
872.273
977.806
1085.27
1193.28
1300.41
1405.12
1505.98
1601.64
1690.62
1771.09
1841.21
1899.73
1946.38
1981.95
2007.96
2026.3
2038.83
2047.07
2052.37
2055.6
2057.21
2058.03
2058.66
2058.46
2057.55
2056.06
2054.18
2052.25
145.389
145.867
146.581
147.649
149.245
151.627
155.169
160.405
168.065
179.111
194.729
216.272
245.128
282.537
329.396
386.116
452.572
528.155
611.889
702.574
798.908
899.552
1003.17
1108.45
1214.15
1319
1421.61
1520.61
1614.78
1702.81
1783.13
1854.01
1914.1
1962.83
2000.67
2028.85
2049.01
2062.92
2072.19
2078.16
2081.81
2083.65
2084.38
2084.73
2084.62
2083.79
2082.25
2080.31
2078.06
2075.73
2073.43
2071.25
149.013
151.186
154.38
159.046
165.808
175.485
189.102
207.853
233.011
265.782
307.135
357.659
417.482
486.27
563.311
647.625
738.085
833.5
932.671
1034.39
1137.5
1240.85
1343.32
1443.64
1540.56
1632.92
1719.57
1799.14
1870.06
1930.97
1981.14
2020.73
2050.69
2072.46
2087.68
2097.96
2104.54
2108.56
2110.76
2111.55
2111.56
2111.38
2110.68
2109.14
2107.07
2104.67
2102.1
2099.47
2096.9
2094.36
2091.86
2089.44
164.656
173.473
185.783
202.642
225.2
254.584
291.762
337.404
391.792
454.8
525.933
604.415
689.288
779.508
874.003
971.698
1071.52
1172.41
1273.36
1373.33
1471.2
1565.81
1656.08
1740.98
1819.31
1889.66
1950.71
2001.66
2042.45
2073.77
2096.87
2113.24
2124.38
2131.6
2136
2138.49
2139.33
2139.18
2138.81
2138.07
2136.53
2134.38
2131.95
2129.18
2126.3
2123.41
2120.58
2117.73
2114.93
2112.15
2109.41
2106.72
220.892
247.945
282.115
324.086
374.22
432.52
498.654
572.017
651.811
737.129
827.019
920.522
1016.68
1114.54
1213.16
1311.61
1408.97
1504.24
1596.33
1684.26
1767.08
1843.75
1913
1973.61
2024.72
2066.13
2098.36
2122.46
2139.73
2151.61
2159.41
2164.15
2166.8
2167.82
2167.58
2166.96
2166.06
2164.57
2162.37
2159.79
2156.87
2153.75
2150.59
2147.47
2144.37
2141.26
2138.19
2135.12
2132.07
2129.02
2126.02
2123.05
363.783
418.427
480.512
549.562
624.916
705.795
791.359
880.755
973.135
1067.65
1163.46
1259.7
1355.55
1450.18
1542.68
1632.05
1717.4
1797.87
1872.5
1940.2
1999.82
2050.52
2092.02
2124.7
2149.4
2167.3
2179.77
2188
2193.02
2195.84
2196.99
2196.67
2195.82
2194.68
2193.12
2190.88
2188.16
2185.18
2181.88
2178.47
2175.05
2171.66
2168.27
2164.9
2161.56
2158.22
2154.89
2151.57
2148.25
2144.94
2141.66
2138.41
684.944
766.592
852.135
940.82
1031.9
1124.62
1218.24
1311.98
1405.1
1496.86
1586.42
1672.89
1755.43
1833.26
1905.55
1971.28
2029.43
2079.21
2120.29
2152.93
2177.86
2196.13
2208.95
2217.46
2222.69
2225.62
2226.79
2226.45
2225.45
2224.01
2222.25
2220.03
2217.18
2214.02
2210.56
2206.92
2203.24
2199.6
2195.95
2192.3
2188.68
2185.05
2181.44
2177.84
2174.24
2170.64
2167.05
2163.46
2159.87
2156.31
2152.78
1007.26
1096.82
1187.56
1278.81
1369.89
1460.14
1548.87
1635.32
1718.68
1798.2
1873.15
1942.79
2006.21
2062.48
2110.87
2151.05
2183.22
2207.99
2226.3
2239.23
2247.88
2253.22
2256.15
2257.27
2256.93
2255.77
2254.02
2252.05
2249.72
2246.74
2243.41
2239.85
2236.01
2232.08
2228.15
2224.23
2220.3
2216.41
2212.53
2208.65
2204.77
2200.9
2197.03
2193.16
2189.29
2185.42
2181.55
2177.68
2173.82
2169.99
2166.18
1345.07
1433.32
1520.51
1606.05
1689.21
1769.28
1845.55
1917.39
1984.11
2044.89
2098.91
2145.49
2184.35
2215.62
2239.87
2257.89
2270.71
2279.31
2284.61
2287.47
2288.51
2288.09
2286.71
2284.74
2282.5
2279.97
2276.88
2273.39
2269.66
2265.64
2261.47
2257.3
2253.13
2248.95
2244.77
2240.62
2236.47
2232.32
2228.19
2224.06
2219.92
2215.78
2211.64
2207.5
2203.36
2199.22
2195.07
2190.94
2186.8
2182.7
2178.61
1747.89
1824.45
1897.27
1965.77
2029.32
2087.18
2138.6
2183.01
2220.16
2250.17
2273.52
2290.97
2303.43
2311.78
2316.91
2319.62
2320.48
2319.92
2318.38
2316.16
2313.58
2310.8
2307.67
2303.95
2300.01
2295.84
2291.45
2287.01
2282.58
2278.15
2273.71
2269.3
2264.89
2260.49
2256.09
2251.69
2247.3
2242.9
2238.5
2234.1
2229.69
2225.28
2220.87
2216.46
2212.04
2207.62
2203.21
2198.81
2194.43
2190.06
2018.04
2078.18
2132.85
2181.39
2223.3
2258.4
2286.8
2308.95
2325.56
2337.41
2345.31
2350.14
2352.61
2353.17
2352.44
2350.71
2348.18
2345.3
2342.28
2338.94
2335.03
2330.88
2326.58
2321.99
2317.3
2312.61
2307.92
2303.22
2298.53
2293.87
2289.21
2284.56
2279.92
2275.27
2270.62
2265.96
2261.3
2256.64
2251.98
2247.31
2242.63
2237.95
2233.27
2228.58
2223.89
2219.2
2214.52
2209.84
2205.18
2200.54
2227.05
2266.18
2298.93
2325.42
2346.1
2361.6
2372.62
2379.91
2384.32
2386.42
2386.6
2385.67
2383.68
2380.82
2377.68
2374.36
2370.73
2366.68
2362.33
2357.81
2353.02
2348.09
2343.15
2338.23
2333.29
2328.35
2323.43
2318.51
2313.59
2308.69
2303.79
2298.89
2294
2289.09
2284.18
2279.26
2274.34
2269.42
2264.48
2259.54
2254.6
2249.65
2244.69
2239.73
2234.77
2229.81
2224.85
2219.9
2214.97
2210.04
2365.9
2384.87
2399.03
2409.02
2415.57
2419.39
2421
2420.79
2419.58
2417.28
2414.1
2410.68
2407.03
2403.11
2398.92
2394.29
2389.51
2384.57
2379.42
2374.24
2369.06
2363.86
2358.66
2353.49
2348.33
2343.17
2338.02
2332.87
2327.72
2322.57
2317.42
2312.27
2307.12
2301.95
2296.78
2291.6
2286.42
2281.22
2276.02
2270.81
2265.6
2260.37
2255.15
2249.92
2244.68
2239.45
2234.22
2228.99
2223.78
2218.57
2446.55
2452.21
2455.33
2456.33
2455.74
2454.12
2451.46
2447.97
2444.22
2440.26
2436.05
2431.64
2426.78
2421.75
2416.62
2411.24
2405.79
2400.38
2394.95
2389.5
2384.07
2378.66
2373.25
2367.85
2362.46
2357.08
2351.69
2346.3
2340.9
2335.5
2330.1
2324.69
2319.27
2313.85
2308.42
2302.98
2297.52
2292.06
2286.59
2281.12
2275.63
2270.14
2264.64
2259.13
2253.62
2248.12
2242.61
2237.1
2231.62
2226.13
2492.37
2491.36
2489.27
2486.21
2482.41
2478.31
2474.04
2469.5
2464.8
2459.76
2454.47
2449.11
2443.55
2437.85
2432.19
2426.51
2420.81
2415.14
2409.49
2403.83
2398.19
2392.56
2386.92
2381.3
2375.67
2370.04
2364.41
2358.78
2353.13
2347.48
2341.82
2336.15
2330.48
2324.79
2319.09
2313.39
2307.67
2301.94
2296.2
2290.46
2284.7
2278.93
2273.16
2267.38
2261.6
2255.81
2250.03
2244.25
2238.48
2232.71
2521.5
2517.36
2512.92
2508.31
2503.46
2498.46
2493.2
2487.65
2482.03
2476.27
2470.35
2464.42
2458.54
2452.6
2446.67
2440.77
2434.88
2428.99
2423.12
2417.26
2411.39
2405.53
2399.67
2393.8
2387.94
2382.06
2376.19
2370.3
2364.4
2358.5
2352.58
2346.66
2340.72
2334.77
2328.81
2322.84
2316.86
2310.86
2304.85
2298.83
2292.8
2286.76
2280.72
2274.66
2268.6
2262.54
2256.48
2250.42
2244.38
2238.33
2537.89
2532.59
2527.06
2521.28
2515.4
2509.42
2503.27
2497.09
2490.97
2484.81
2478.63
2472.5
2466.38
2460.25
2454.14
2448.04
2441.94
2435.85
2429.76
2423.67
2417.57
2411.47
2405.37
2399.26
2393.14
2387.01
2380.87
2374.72
2368.56
2362.39
2356.21
2350.01
2343.8
2337.57
2331.34
2325.08
2318.82
2312.54
2306.25
2299.95
2293.63
2287.31
2280.98
2274.64
2268.3
2261.97
2255.63
2249.3
2242.97
2555.32
2549.17
2542.95
2536.59
2530.18
2523.81
2517.42
2511
2504.64
2498.29
2491.92
2485.58
2479.26
2472.93
2466.61
2460.29
2453.97
2447.65
2441.33
2435.01
2428.67
2422.33
2415.99
2409.63
2403.26
2396.89
2390.5
2384.1
2377.68
2371.25
2364.81
2358.35
2351.87
2345.38
2338.88
2332.36
2325.82
2319.27
2312.71
2306.13
2299.54
2292.94
2286.33
2279.72
2273.1
2266.49
2259.87
2253.26
2246.65
2570.28
2563.63
2557.02
2550.42
2543.77
2537.16
2530.59
2523.99
2517.42
2510.87
2504.31
2497.77
2491.23
2484.69
2478.15
2471.61
2465.07
2458.52
2451.97
2445.41
2438.84
2432.26
2425.66
2419.06
2412.45
2405.82
2399.18
2392.52
2385.85
2379.16
2372.45
2365.73
2358.99
2352.24
2345.46
2338.67
2331.87
2325.04
2318.2
2311.35
2304.49
2297.61
2290.73
2283.84
2276.94
2270.04
2263.15
2256.26
2249.37
2576.89
2570.04
2563.24
2556.43
2549.63
2542.86
2536.08
2529.31
2522.56
2515.8
2509.05
2502.29
2495.54
2488.78
2482.01
2475.24
2468.46
2461.67
2454.87
2448.06
2441.24
2434.4
2427.55
2420.69
2413.81
2406.91
2400
2393.07
2386.12
2379.15
2372.17
2365.16
2358.14
2351.1
2344.04
2336.96
2329.86
2322.75
2315.62
2308.48
2301.33
2294.17
2287
2279.82
2272.65
2265.47
2258.31
2251.13
2589.2
2582.18
2575.19
2568.2
2561.22
2554.25
2547.28
2540.31
2533.34
2526.38
2519.41
2512.44
2505.46
2498.47
2491.48
2484.48
2477.46
2470.44
2463.4
2456.35
2449.28
2442.2
2435.1
2427.99
2420.86
2413.7
2406.53
2399.35
2392.14
2384.91
2377.65
2370.38
2363.09
2355.78
2348.45
2341.1
2333.73
2326.34
2318.94
2311.52
2304.09
2296.65
2289.2
2281.75
2274.29
2266.84
2259.39
2251.93
2593.44
2586.26
2579.09
2571.91
2564.74
2557.57
2550.39
2543.22
2536.04
2528.85
2521.66
2514.45
2507.24
2500.02
2492.78
2485.54
2478.27
2471
2463.7
2456.39
2449.06
2441.71
2434.35
2426.96
2419.56
2412.13
2404.68
2397.21
2389.71
2382.2
2374.66
2367.1
2359.52
2351.92
2344.29
2336.65
2328.99
2321.31
2313.61
2305.91
2298.19
2290.46
2282.72
2274.99
2267.28
2259.58
2251.86
2603.82
2596.45
2589.08
2581.7
2574.33
2566.95
2559.56
2552.17
2544.78
2537.37
2529.96
2522.53
2515.09
2507.63
2500.16
2492.68
2485.18
2477.66
2470.12
2462.56
2454.99
2447.39
2439.77
2432.13
2424.47
2416.78
2409.07
2401.34
2393.58
2385.8
2377.99
2370.17
2362.31
2354.44
2346.54
2338.62
2330.69
2322.73
2314.76
2306.77
2298.78
2290.8
2282.81
2274.82
2266.84
2258.87
2250.89
2605.73
2598.16
2590.59
2583.01
2575.42
2567.82
2560.22
2552.6
2544.97
2537.33
2529.68
2522.01
2514.32
2506.61
2498.89
2491.15
2483.39
2475.61
2467.81
2459.98
2452.13
2444.26
2436.36
2428.44
2420.5
2412.53
2404.53
2396.51
2388.46
2380.39
2372.29
2364.17
2356.02
2347.85
2339.66
2331.44
2323.23
2315
2306.76
2298.51
2290.26
2282
2273.75
2265.5
2257.26
2249.01
2614.12
2606.34
2598.56
2590.77
2582.97
2575.16
2567.34
2559.5
2551.65
2543.79
2535.9
2528
2520.08
2512.14
2504.18
2496.2
2488.19
2480.17
2472.12
2464.04
2455.94
2447.82
2439.66
2431.49
2423.28
2415.05
2406.79
2398.51
2390.19
2381.85
2373.48
2365.08
2356.67
2348.25
2339.8
2331.33
2322.85
2314.36
2305.86
2297.34
2288.82
2280.29
2271.77
2263.25
2254.75
2246.23
2621.6
2613.62
2605.63
2597.63
2589.62
2581.59
2573.55
2565.49
2557.41
2549.32
2541.21
2533.07
2524.92
2516.74
2508.54
2500.32
2492.07
2483.8
2475.5
2467.17
2458.82
2450.44
2442.04
2433.6
2425.14
2416.64
2408.12
2399.56
2390.98
2382.39
2373.77
2365.12
2356.45
2347.77
2339.06
2330.34
2321.59
2312.82
2304.05
2295.27
2286.48
2277.69
2268.91
2260.13
2251.36
2242.59
2628.17
2619.99
2611.79
2603.58
2595.35
2587.1
2578.84
2570.56
2562.26
2553.93
2545.59
2537.22
2528.83
2520.42
2511.98
2503.51
2495.02
2486.5
2477.96
2469.38
2460.78
2452.14
2443.48
2434.78
2426.06
2417.31
2408.54
2399.74
2390.91
2382.06
2373.18
2364.28
2355.35
2346.4
2337.43
2328.43
2319.42
2310.39
2301.36
2292.31
2283.26
2274.22
2265.18
2256.14
2247.13
2238.1
2633.84
2625.44
2617.04
2608.61
2600.16
2591.7
2583.22
2574.71
2566.18
2557.63
2549.05
2540.45
2531.83
2523.17
2514.49
2505.79
2497.05
2488.28
2479.49
2470.66
2461.8
2452.91
2444.01
2435.07
2426.1
2417.1
2408.08
2399.04
2389.96
2380.84
2371.71
2362.54
2353.35
2344.14
2334.9
2325.65
2316.38
2307.09
2297.8
2288.5
2279.19
2269.89
2260.6
2251.32
2242.06
2232.78
2638.6
2629.99
2621.37
2612.73
2604.07
2595.38
2586.68
2577.95
2569.19
2560.41
2551.6
2542.77
2533.9
2525.01
2516.09
2507.14
2498.15
2489.14
2480.1
2471.04
2461.95
2452.82
2443.67
2434.49
2425.28
2416.03
2406.75
2397.44
2388.11
2378.74
2369.34
2359.92
2350.47
2341
2331.51
2322
2312.47
2302.94
2293.39
2283.84
2274.29
2264.74
2255.21
2245.68
2236.18
2226.66
2642.45
2633.63
2624.8
2615.94
2607.06
2598.16
2589.23
2580.27
2571.28
2562.27
2553.23
2544.16
2535.06
2525.93
2516.77
2507.59
2498.37
2489.13
2479.86
2470.56
2461.23
2451.86
2442.46
2433.02
2423.56
2414.06
2404.53
2394.97
2385.38
2375.76
2366.11
2356.43
2346.73
2337.01
2327.27
2317.51
2307.73
2297.95
2288.16
2278.36
2268.57
2258.78
2249.01
2239.25
2229.51
2219.76
2636.37
2627.32
2618.25
2609.14
2600.02
2590.86
2581.68
2572.46
2563.22
2553.94
2544.65
2535.33
2525.97
2516.58
2507.17
2497.73
2488.26
2478.74
2469.2
2459.62
2450
2440.36
2430.67
2420.96
2411.21
2401.44
2391.63
2381.79
2371.92
2362.02
2352.1
2342.15
2332.18
2322.2
2312.19
2302.18
2292.15
2282.12
2272.09
2262.06
2252.04
2242.03
2232.04
2222.07
2212.11
2638.19
2628.93
2619.64
2610.31
2600.96
2591.58
2582.18
2572.75
2563.29
2553.8
2544.28
2534.73
2525.16
2515.54
2505.89
2496.21
2486.49
2476.74
2466.95
2457.13
2447.27
2437.38
2427.46
2417.5
2407.51
2397.49
2387.44
2377.35
2367.24
2357.1
2346.94
2336.75
2326.54
2316.32
2306.07
2295.82
2285.56
2275.3
2265.03
2254.77
2244.53
2234.3
2224.08
2213.9
2203.71
2639.1
2629.62
2620.12
2610.59
2601.03
2591.44
2581.83
2572.18
2562.5
2552.79
2543.04
2533.26
2523.45
2513.6
2503.72
2493.8
2483.85
2473.86
2463.83
2453.78
2443.68
2433.55
2423.39
2413.2
2402.97
2392.71
2382.42
2372.1
2361.75
2351.37
2340.97
2330.55
2320.11
2309.65
2299.17
2288.69
2278.2
2267.71
2257.22
2246.74
2236.28
2225.83
2215.41
2205.01
2194.61
2629.46
2619.75
2610.02
2600.25
2590.45
2580.61
2570.74
2560.83
2550.89
2540.92
2530.91
2520.87
2510.79
2500.68
2490.53
2480.35
2470.12
2459.87
2449.58
2439.25
2428.89
2418.5
2408.07
2397.61
2387.11
2376.59
2366.03
2355.45
2344.85
2334.22
2323.57
2312.9
2302.21
2291.51
2280.81
2270.1
2259.39
2248.68
2237.99
2227.31
2216.66
2206.03
2195.43
2184.84
2628.45
2618.52
2608.57
2598.58
2588.56
2578.5
2568.41
2558.29
2548.12
2537.93
2527.7
2517.43
2507.13
2496.79
2486.41
2476
2465.55
2455.07
2444.55
2434
2423.41
2412.78
2402.13
2391.44
2380.72
2369.97
2359.19
2348.38
2337.55
2326.7
2315.83
2304.94
2294.03
2283.12
2272.2
2261.27
2250.35
2239.44
2228.54
2217.66
2206.81
2195.98
2185.2
2174.41
2626.54
2616.4
2606.24
2596.04
2585.8
2575.53
2565.22
2554.88
2544.5
2534.08
2523.63
2513.14
2502.62
2492.06
2481.46
2470.83
2460.16
2449.45
2438.71
2427.93
2417.12
2406.28
2395.4
2384.49
2373.55
2362.58
2351.58
2340.55
2329.5
2318.44
2307.35
2296.24
2285.13
2274.01
2262.88
2251.75
2240.63
2229.52
2218.43
2207.36
2196.32
2185.31
2174.33
2163.37
2623.76
2613.42
2603.04
2592.63
2582.18
2571.7
2561.18
2550.62
2540.03
2529.4
2518.73
2508.03
2497.29
2486.51
2475.7
2464.85
2453.96
2443.04
2432.08
2421.09
2410.06
2399
2387.9
2376.78
2365.62
2354.43
2343.22
2331.99
2320.73
2309.45
2298.16
2286.85
2275.53
2264.21
2252.89
2241.57
2230.25
2218.96
2207.68
2196.42
2185.2
2174.01
2162.87
2151.73
2609.57
2598.99
2588.37
2577.72
2567.03
2556.3
2545.54
2534.73
2523.89
2513.02
2502.1
2491.15
2480.16
2469.14
2458.08
2446.98
2435.84
2424.67
2413.47
2402.23
2390.96
2379.65
2368.32
2356.96
2345.57
2334.15
2322.71
2311.25
2299.78
2288.28
2276.78
2265.27
2253.76
2242.25
2230.74
2219.25
2207.77
2196.31
2184.88
2173.49
2162.13
2150.82
2139.52
2604.89
2594.11
2583.29
2572.43
2561.53
2550.6
2539.63
2528.63
2517.58
2506.5
2495.38
2484.22
2473.03
2461.8
2450.53
2439.22
2427.89
2416.51
2405.1
2393.66
2382.19
2370.68
2359.15
2347.59
2336
2324.39
2312.75
2301.1
2289.44
2277.76
2266.07
2254.38
2242.68
2230.99
2219.31
2207.64
2195.99
2184.36
2172.76
2161.21
2149.69
2138.21
2126.76
2599.37
2588.39
2577.38
2566.32
2555.23
2544.1
2532.93
2521.72
2510.48
2499.2
2487.88
2476.52
2465.13
2453.7
2442.23
2430.73
2419.19
2407.62
2396.01
2384.38
2372.71
2361.01
2349.29
2337.54
2325.76
2313.96
2302.14
2290.31
2278.46
2266.6
2254.74
2242.87
2231
2219.13
2207.28
2195.44
2183.63
2171.84
2160.09
2148.37
2136.7
2125.08
2113.48
2581.87
2570.66
2559.42
2548.13
2536.8
2525.44
2514.04
2502.6
2491.13
2479.62
2468.07
2456.48
2444.86
2433.2
2421.51
2409.78
2398.02
2386.23
2374.41
2362.55
2350.67
2338.76
2326.83
2314.88
2302.9
2290.9
2278.89
2266.87
2254.84
2242.8
2230.76
2218.73
2206.7
2194.69
2182.69
2170.72
2158.78
2146.88
2135.02
2123.21
2111.45
2099.71
2574.56
2563.17
2551.73
2540.26
2528.74
2517.19
2505.61
2493.98
2482.32
2470.63
2458.89
2447.12
2435.31
2423.47
2411.6
2399.69
2387.75
2375.78
2363.78
2351.74
2339.68
2327.6
2315.49
2303.36
2291.21
2279.05
2266.87
2254.68
2242.49
2230.29
2218.09
2205.9
2193.72
2181.55
2169.41
2157.3
2145.21
2133.17
2121.18
2109.23
2097.34
2085.47
2566.48
2554.9
2543.29
2531.64
2519.94
2508.21
2496.45
2484.64
2472.8
2460.93
2449.02
2437.07
2425.09
2413.07
2401.02
2388.93