/*--------------------------------*- C++ -*----------------------------------*\
| =========                 |                                                 |
| \\      /  F ield         | OpenFOAM: The Open Source CFD Toolbox           |
|  \\    /   O peration     | Version:  v1706                                 |
|   \\  /    A nd           | Web:      www.OpenFOAM.com                      |
|    \\/     M anipulation  |                                                 |
\*---------------------------------------------------------------------------*/
FoamFile
{
    version     2.0;
    format      ascii;
    class       volScalarField;
    location    "1e-05";
    object      Tt;
}
// * * * * * * * * * * * * * * * * * * * * * * * * * * * * * * * * * * * * * //

dimensions      [0 0 0 1 0 0 0];


internalField   nonuniform List<scalar> 
30038
(
144.4
144.4
144.4
144.4
144.4
144.4
144.4
144.4
144.4
144.4
144.4
144.4
144.4
144.4
144.4
144.4
144.4
144.4
144.4
144.4
144.4
144.4
144.4
144.4
144.4
144.4
144.4
144.4
144.4
144.4
144.4
144.4
144.4
144.4
144.4
144.4
144.4
144.4
144.4
144.4
144.4
144.4
144.4
144.4
144.4
144.4
144.4
144.4
144.4
144.4
144.4
144.4
144.4
144.4
144.4
144.4
144.4
144.4
144.4
144.4
144.4
144.4
144.4
144.4
144.4
144.4
144.4
144.4
144.4
144.4
144.4
144.4
144.4
144.4
144.4
144.4
144.4
144.4
144.4
144.4
144.4
144.4
144.4
144.4
144.4
144.4
144.4
144.4
144.4
144.4
144.4
144.4
144.4
144.4
144.4
144.4
144.4
144.4
144.4
144.4
144.4
144.4
144.4
144.4
144.4
144.4
144.4
144.4
144.4
144.4
144.4
144.4
144.4
144.4
144.4
144.4
144.4
144.4
144.4
144.4
144.4
144.4
144.4
144.4
144.4
144.4
144.4
144.4
144.4
144.4
144.4
144.4
144.4
144.4
144.4
144.4
144.4
144.4
144.4
144.4
144.4
144.4
144.4
144.4
144.4
144.4
144.4
144.4
144.4
144.4
144.4
144.4
144.4
144.4
144.4
144.4
144.4
144.4
144.4
144.4
144.4
144.4
144.4
144.4
144.4
144.4
144.4
144.4
144.4
144.4
144.4
144.4
144.4
144.4
144.4
144.4
144.4
144.4
144.4
144.4
144.4
144.4
144.4
144.4
144.4
144.4
144.4
144.4
144.4
144.4
144.4
144.4
144.4
144.4
144.4
144.4
144.4
144.4
144.4
144.4
144.4
144.4
144.4
144.4
144.4
144.4
144.4
144.4
144.4
144.4
144.4
144.4
144.4
144.4
144.4
144.4
144.4
144.4
144.4
144.4
144.4
144.4
144.4
144.4
144.4
144.4
144.4
144.4
144.4
144.4
144.4
144.4
144.4
144.4
144.4
144.4
144.4
144.4
144.4
144.4
144.4
144.4
144.4
144.4
144.4
144.4
144.4
144.4
144.4
144.4
144.4
144.4
144.4
144.4
144.4
144.4
144.4
144.4
144.4
144.4
144.4
144.4
144.4
144.4
144.4
144.4
144.4
144.4
144.4
144.4
144.4
144.4
144.4
144.4
144.4
144.4
144.4
144.4
144.4
144.4
144.4
144.4
144.4
144.4
144.4
144.4
144.4
144.4
144.4
144.4
144.4
144.4
144.4
144.4
144.4
144.4
144.4
144.4
144.4
144.4
144.4
144.4
144.4
144.4
144.4
144.4
144.4
144.4
144.4
144.4
144.4
144.4
144.4
144.4
144.4
144.4
144.4
144.4
144.4
144.4
144.4
144.4
144.4
144.4
144.4
144.4
144.4
144.4
144.4
144.4
144.4
144.4
144.4
144.4
144.4
144.4
144.4
144.4
144.4
144.4
144.4
144.4
144.4
144.4
144.4
144.4
144.4
144.4
144.4
144.4
144.4
144.4
144.4
144.4
144.4
144.4
144.4
144.4
144.4
144.4
144.4
144.4
144.4
144.4
144.4
144.4
144.4
144.4
144.4
144.4
144.4
144.4
144.4
144.4
144.4
144.4
144.4
144.4
144.4
144.4
144.4
144.4
144.4
144.4
144.4
144.4
144.4
144.4
144.4
144.4
144.4
144.4
144.4
144.4
144.4
144.4
144.4
144.4
144.4
144.4
144.4
144.4
144.4
144.4
144.4
144.4
144.4
144.4
144.4
144.4
144.4
144.4
144.4
144.4
144.4
144.4
144.4
144.4
144.4
144.4
144.4
144.4
144.4
144.4
144.4
144.4
144.4
144.4
144.4
144.4
144.4
144.4
144.4
144.4
144.4
144.4
144.4
144.4
144.4
144.4
144.4
144.4
144.4
144.4
144.4
144.4
144.4
144.4
144.4
144.4
144.4
144.4
144.4
144.4
144.4
144.4
144.4
144.4
144.4
144.4
144.4
144.4
144.4
144.4
144.4
144.4
144.4
144.4
144.4
144.4
144.4
144.4
144.4
144.4
144.4
144.4
144.4
144.4
144.4
144.4
144.4
144.4
144.4
144.4
144.4
144.4
144.4
144.4
144.4
144.4
144.4
144.4
144.4
144.4
144.4
144.4
144.4
144.4
144.4
144.4
144.4
144.4
144.4
144.4
144.4
144.4
144.4
144.4
144.4
144.4
144.4
144.4
144.4
144.4
144.4
144.4
144.4
144.4
144.4
144.4
144.4
144.4
144.4
144.4
144.4
144.4
144.4
144.4
144.4
144.4
144.4
144.4
144.4
144.4
144.4
144.4
144.4
144.4
144.4
144.4
144.4
144.4
144.4
144.4
144.4
144.4
144.4
144.4
144.4
144.4
144.4
144.4
144.4
144.4
144.4
144.4
144.4
144.4
144.4
144.4
144.4
144.4
144.4
144.4
144.4
144.4
144.4
144.4
144.4
144.4
144.4
144.4
144.4
144.4
144.4
144.4
144.4
144.4
144.4
144.4
144.4
144.4
144.4
144.4
144.4
144.4
144.4
144.4
144.4
144.4
144.4
144.4
144.4
144.4
144.4
144.4
144.4
144.4
144.4
144.4
144.4
144.4
144.4
144.4
144.4
144.4
144.4
144.4
144.4
144.4
144.4
144.4
144.4
144.4
144.4
144.4
144.4
144.4
144.4
144.4
144.4
144.4
144.4
144.4
144.4
144.4
144.4
144.4
144.4
144.4
144.4
144.4
144.4
144.4
144.4
144.4
144.4
144.4
144.4
144.4
144.4
144.4
144.4
144.4
144.4
144.4
144.4
144.4
144.4
144.4
144.4
144.4
144.4
144.4
144.4
144.4
144.4
144.4
144.4
144.4
144.4
144.4
144.4
144.4
144.4
144.4
144.4
144.4
144.4
144.4
144.4
144.4
144.4
144.4
144.4
144.4
144.4
144.4
144.4
144.4
144.4
144.4
144.4
144.4
144.4
144.4
144.4
144.4
144.4
144.4
144.4
144.4
144.4
144.4
144.4
144.4
144.4
144.4
144.4
144.4
144.4
144.4
144.4
144.4
144.4
144.4
144.4
144.4
144.4
144.4
144.4
144.4
144.4
144.4
144.4
144.4
144.4
144.4
144.4
144.4
144.4
144.4
144.4
144.4
144.4
144.4
144.4
144.4
144.4
144.4
144.4
144.4
144.4
144.4
144.4
144.4
144.4
144.4
144.4
144.4
144.4
144.4
144.4
144.4
144.4
144.4
144.4
144.4
144.4
144.4
144.4
144.4
144.4
144.4
144.4
144.4
144.4
144.4
144.4
144.4
144.4
144.4
144.4
144.4
144.4
144.4
144.4
144.4
144.4
144.4
144.4
144.4
144.4
144.4
144.4
144.4
144.4
144.4
144.4
144.4
144.4
144.4
144.4
144.4
144.4
144.4
144.4
144.4
144.4
144.4
144.4
144.4
144.4
144.4
144.4
144.4
144.4
144.4
144.4
144.4
144.4
144.4
144.4
144.4
144.4
144.4
144.4
144.4
144.4
144.4
144.4
144.4
144.4
144.4
144.4
144.4
144.4
144.4
144.4
144.4
144.4
144.4
144.4
144.4
144.4
144.4
144.4
144.4
144.4
144.4
144.4
144.4
144.4
144.4
144.4
144.4
144.4
144.4
144.4
144.4
144.4
144.4
144.4
144.4
144.4
144.4
144.4
144.4
144.4
144.4
144.4
144.4
144.4
144.4
144.4
144.4
144.4
144.4
144.4
144.4
144.4
144.4
144.4
144.4
144.4
144.4
144.4
144.4
144.4
144.4
144.4
144.4
144.4
144.4
144.4
144.4
144.4
144.4
144.4
144.4
144.4
144.4
144.4
144.4
144.4
144.4
144.4
144.4
144.4
144.4
144.4
144.4
144.4
144.4
144.4
144.4
144.4
144.4
144.4
144.4
144.4
144.4
144.4
144.4
144.4
144.4
144.4
144.4
144.4
144.4
144.4
144.4
144.4
144.4
144.4
144.4
144.4
144.4
144.4
144.4
144.4
144.4
144.4
144.4
144.4
144.4
144.4
144.4
144.4
144.4
144.4
144.4
144.4
144.4
144.4
144.4
144.4
144.4
144.4
144.4
144.4
144.4
144.4
144.4
144.4
144.4
144.4
144.4
144.4
144.4
144.4
144.4
144.4
144.4
144.4
144.4
144.4
144.4
144.4
144.4
144.4
144.4
144.4
144.4
144.4
144.4
144.4
144.4
144.4
144.4
144.4
144.4
144.4
144.4
144.4
144.4
144.4
144.4
144.4
144.4
144.4
144.4
144.4
144.4
144.4
144.4
144.4
144.4
144.4
144.4
144.4
144.4
144.4
144.4
144.4
144.4
144.4
144.4
144.4
144.4
144.4
144.4
144.4
144.4
144.4
144.4
144.4
144.4
144.4
144.4
144.4
144.4
144.4
144.4
144.4
144.4
144.4
144.4
144.4
144.4
144.4
144.4
144.4
144.4
144.4
144.4
144.4
144.4
144.4
144.4
144.4
144.4
144.4
144.4
144.4
144.4
144.4
144.4
144.4
144.4
144.4
144.4
144.4
144.4
144.4
144.4
144.4
144.4
144.4
144.4
144.4
144.4
144.4
144.4
144.4
144.4
144.4
144.4
144.4
144.4
144.4
144.4
144.4
144.4
144.4
144.4
144.4
144.4
144.4
144.4
144.4
144.4
144.4
144.4
144.4
144.4
144.4
144.4
144.4
144.4
144.4
144.4
144.4
144.4
144.4
144.4
144.4
144.4
144.4
144.4
144.4
144.4
144.4
144.4
144.4
144.4
144.4
144.4
144.4
144.4
144.4
144.4
144.4
144.4
144.4
144.4
144.4
144.4
144.4
144.4
144.4
144.4
144.4
144.4
144.4
144.4
144.4
144.4
144.4
144.4
144.4
144.4
144.4
144.4
144.4
144.4
144.4
144.4
144.4
144.4
144.4
144.4
144.4
144.4
144.4
144.4
144.4
144.4
144.4
144.4
144.4
144.4
144.4
144.4
144.4
144.4
144.4
144.4
144.4
144.4
144.4
144.4
144.4
144.4
144.4
144.4
144.4
144.4
144.4
144.4
144.4
144.4
144.4
144.4
144.4
144.4
144.4
144.4
144.4
144.4
144.4
144.4
144.4
144.4
144.4
144.4
144.4
144.4
144.4
144.4
144.4
144.4
144.4
144.4
144.4
144.4
144.4
144.4
144.4
144.4
144.401
144.402
144.4
144.4
144.4
144.4
144.4
144.4
144.4
144.4
144.4
144.4
144.4
144.4
144.4
144.4
144.4
144.4
144.4
144.4
144.4
144.4
144.4
144.4
144.4
144.4
144.4
144.4
144.4
144.4
144.4
144.4
144.4
144.4
144.4
144.4
144.4
144.4
144.4
144.4
144.4
144.4
144.4
144.4
144.4
144.4
144.4
144.401
144.401
144.403
144.405
144.41
144.4
144.4
144.4
144.4
144.4
144.4
144.4
144.4
144.4
144.4
144.4
144.4
144.4
144.4
144.4
144.4
144.4
144.4
144.4
144.4
144.4
144.4
144.4
144.4
144.4
144.4
144.4
144.4
144.4
144.4
144.4
144.4
144.4
144.4
144.4
144.4
144.4
144.4
144.4
144.4
144.4
144.4
144.401
144.401
144.403
144.405
144.409
144.416
144.429
144.457
144.4
144.4
144.4
144.4
144.4
144.4
144.4
144.4
144.4
144.4
144.4
144.4
144.4
144.4
144.4
144.4
144.4
144.4
144.4
144.4
144.4
144.4
144.4
144.4
144.4
144.4
144.4
144.4
144.4
144.4
144.4
144.4
144.4
144.4
144.4
144.4
144.4
144.4
144.4
144.401
144.402
144.403
144.405
144.409
144.416
144.428
144.451
144.493
144.571
144.725
144.4
144.4
144.4
144.4
144.4
144.4
144.4
144.4
144.4
144.4
144.4
144.4
144.4
144.4
144.4
144.4
144.4
144.4
144.4
144.4
144.4
144.4
144.4
144.4
144.4
144.4
144.4
144.4
144.4
144.4
144.4
144.4
144.4
144.4
144.4
144.401
144.401
144.402
144.403
144.405
144.409
144.416
144.428
144.45
144.49
144.562
144.691
144.928
145.365
146.217
144.4
144.4
144.4
144.4
144.4
144.4
144.4
144.4
144.4
144.4
144.4
144.4
144.4
144.4
144.4
144.4
144.4
144.4
144.4
144.4
144.4
144.4
144.4
144.4
144.4
144.4
144.4
144.4
144.4
144.4
144.4
144.4
144.401
144.401
144.402
144.403
144.405
144.409
144.417
144.429
144.451
144.49
144.56
144.684
144.907
145.307
146.026
147.324
149.685
154.107
144.4
144.4
144.4
144.4
144.4
144.4
144.4
144.4
144.4
144.4
144.4
144.4
144.4
144.4
144.4
144.4
144.4
144.4
144.4
144.4
144.4
144.4
144.4
144.4
144.4
144.4
144.4
144.4
144.4
144.401
144.401
144.402
144.404
144.406
144.41
144.418
144.431
144.454
144.493
144.563
144.686
144.903
145.287
145.969
147.179
149.324
153.109
159.73
171.152
190.593
144.4
144.4
144.4
144.4
144.4
144.4
144.4
144.4
144.4
144.4
144.4
144.4
144.4
144.4
144.4
144.4
144.4
144.4
144.4
144.4
144.4
144.4
144.4
144.4
144.4
144.401
144.401
144.401
144.402
144.404
144.407
144.412
144.42
144.434
144.458
144.499
144.571
144.696
144.913
145.294
145.959
147.125
149.164
152.714
158.837
169.208
186.283
213.289
253.926
311.686
144.4
144.4
144.4
144.4
144.4
144.4
144.4
144.4
144.4
144.4
144.4
144.4
144.4
144.4
144.4
144.4
144.4
144.4
144.4
144.4
144.4
144.4
144.401
144.401
144.402
144.403
144.405
144.408
144.413
144.422
144.438
144.464
144.508
144.584
144.714
144.939
145.325
145.993
147.147
149.141
152.569
158.408
168.19
184.143
209.174
246.538
299.157
368.844
455.902
558.874
144.4
144.4
144.4
144.4
144.4
144.4
144.4
144.4
144.4
144.4
144.4
144.4
144.4
144.4
144.4
144.4
144.4
144.4
144.4
144.401
144.401
144.402
144.403
144.406
144.409
144.416
144.426
144.443
144.472
144.521
144.604
144.743
144.98
145.384
146.073
147.248
149.25
152.648
158.365
167.829
183.106
206.884
242.189
291.777
357.405
439.328
536.287
645.924
765.44
891.608
144.4
144.4
144.4
144.4
144.4
144.4
144.4
144.4
144.4
144.4
144.4
144.4
144.4
144.4
144.4
144.401
144.401
144.402
144.403
144.404
144.407
144.412
144.419
144.431
144.451
144.484
144.539
144.631
144.785
145.042
145.475
146.204
147.431
149.496
152.953
158.693
168.076
183.044
206.108
240.089
287.584
350.31
428.635
521.506
626.757
741.602
863.095
988.351
1114.42
1238.82
144.4
144.4
144.4
144.4
144.4
144.4
144.4
144.4
144.4
144.4
144.4
144.401
144.401
144.401
144.402
144.404
144.406
144.409
144.415
144.423
144.438
144.462
144.501
144.564
144.669
144.843
145.13
145.606
146.397
147.713
149.896
153.503
159.411
168.935
183.931
206.761
240.055
286.233
346.918
422.519
512.15
613.891
725.202
843.312
965.479
1088.87
1210.76
1328.82
1440.54
1543.51
144.4
144.4
144.4
144.4
144.4
144.4
144.4
144.401
144.401
144.401
144.402
144.403
144.405
144.407
144.412
144.419
144.43
144.448
144.477
144.523
144.599
144.722
144.922
145.25
145.787
146.668
148.114
150.481
154.338
160.564
170.456
185.805
208.849
242.04
287.601
347.017
420.664
507.754
606.563
714.775
829.845
949.244
1070.44
1190.83
1308.03
1419.8
1523.5
1616.04
1694.51
1758.4
144.4
144.4
144.4
144.4
144.401
144.401
144.402
144.403
144.404
144.406
144.41
144.416
144.425
144.439
144.461
144.497
144.555
144.646
144.794
145.032
145.415
146.036
147.042
148.67
151.298
155.52
162.233
172.733
188.766
212.463
246.098
291.687
350.536
422.939
508.145
604.571
710.102
822.408
939.149
1058.05
1176.73
1292.9
1404.47
1509.23
1604.44
1687.2
1755.46
1808.92
1848.71
1877.84
144.401
144.401
144.402
144.403
144.404
144.406
144.409
144.414
144.421
144.433
144.452
144.481
144.527
144.599
144.713
144.894
145.183
145.643
146.378
147.553
149.43
152.417
157.144
164.541
175.917
192.986
217.775
252.383
298.598
357.52
429.318
513.237
607.789
711.04
820.848
935.06
1051.61
1168.36
1283.15
1394.02
1499.03
1595.88
1681.87
1754.66
1813.13
1857.8
1890.44
1913.53
1929.4
1940.48
144.402
144.404
144.406
144.408
144.413
144.42
144.43
144.446
144.471
144.509
144.569
144.662
144.807
145.035
145.394
145.959
146.849
148.254
150.467
153.939
159.345
167.662
180.222
198.711
225.05
261.145
308.543
368.112
439.871
523.028
616.169
717.508
825.082
936.92
1051.12
1165.8
1278.96
1388.72
1493.32
1590.85
1678.92
1755.12
1817.89
1867.05
1903.83
1930.24
1948.61
1961.08
1969.49
1975.13
1978.89
144.413
144.419
144.428
144.443
144.465
144.499
144.55
144.63
144.752
144.942
145.236
145.692
146.401
147.505
149.222
151.889
156.008
162.315
171.842
185.947
206.281
234.645
272.733
321.83
382.556
454.765
537.612
629.739
729.491
835.074
944.69
1056.59
1169.1
1280.41
1388.73
1492.45
1589.9
1679.03
1757.58
1823.73
1876.78
1917.35
1947.08
1968.08
1982.52
1992.16
1998.54
2002.64
2005.08
2006.67
2008.13
144.442
144.463
144.494
144.541
144.612
144.721
144.886
145.138
145.525
146.118
147.028
148.426
150.571
153.85
158.833
166.326
177.418
193.49
216.141
247.023
287.594
338.857
401.177
474.238
557.14
648.573
747.001
850.795
958.316
1067.98
1178.25
1287.54
1394.18
1496.63
1593.41
1682.8
1762.73
1831.32
1887.49
1931.39
1964.23
1987.83
2004.22
2015.29
2022.58
2027.3
2030.09
2031.53
2032.62
2033.31
2033
2032.14
144.606
144.707
144.858
145.086
145.429
145.949
146.737
147.93
149.737
152.469
156.579
162.711
171.752
184.845
203.375
228.858
262.76
306.273
360.104
424.366
498.586
581.815
672.796
770.109
872.276
977.81
1085.27
1193.28
1300.41
1405.13
1506
1601.66
1690.64
1771.12
1841.25
1899.77
1946.43
1982
2008.01
2026.36
2038.9
2047.15
2052.46
2055.7
2057.31
2058.14
2058.78
2058.59
2057.69
2056.2
2054.34
2052.42
145.389
145.867
146.581
147.649
149.245
151.627
155.169
160.405
168.065
179.111
194.729
216.272
245.128
282.537
329.396
386.116
452.573
528.156
611.89
702.576
798.91
899.555
1003.17
1108.46
1214.16
1319.01
1421.62
1520.63
1614.8
1702.84
1783.16
1854.05
1914.14
1962.88
2000.72
2028.91
2049.08
2063
2072.28
2078.25
2081.91
2083.76
2084.49
2084.85
2084.76
2083.93
2082.4
2080.47
2078.23
2075.91
2073.63
2071.46
149.012
151.186
154.38
159.046
165.808
175.485
189.102
207.853
233.011
265.782
307.135
357.66
417.482
486.27
563.312
647.626
738.086
833.503
932.675
1034.4
1137.51
1240.86
1343.33
1443.65
1540.58
1632.94
1719.59
1799.17
1870.1
1931.01
1981.19
2020.79
2050.76
2072.53
2087.76
2098.05
2104.64
2108.66
2110.87
2111.67
2111.69
2111.52
2110.82
2109.3
2107.24
2104.85
2102.29
2099.67
2097.11
2094.58
2092.1
2089.69
164.656
173.473
185.783
202.642
225.2
254.584
291.762
337.404
391.793
454.801
525.934
604.416
689.29
779.511
874.006
971.702
1071.53
1172.42
1273.37
1373.34
1471.22
1565.83
1656.11
1741.01
1819.34
1889.7
1950.76
2001.72
2042.51
2073.84
2096.95
2113.33
2124.48
2131.7
2136.11
2138.61
2139.46
2139.31
2138.96
2138.23
2136.69
2134.56
2132.13
2129.38
2126.51
2123.63
2120.81
2117.98
2115.18
2112.42
2109.69
2107.02
220.892
247.945
282.115
324.086
374.22
432.52
498.654
572.018
651.813
737.132
827.022
920.527
1016.69
1114.55
1213.17
1311.62
1408.99
1504.26
1596.35
1684.29
1767.12
1843.79
1913.05
1973.66
2024.78
2066.2
2098.44
2122.54
2139.82
2151.71
2159.51
2164.26
2166.93
2167.96
2167.73
2167.12
2166.22
2164.74
2162.56
2159.98
2157.07
2153.97
2150.82
2147.71
2144.62
2141.53
2138.46
2135.41
2132.37
2129.34
2126.35
2123.4
363.783
418.427
480.512
549.563
624.918
705.797
791.362
880.759
973.14
1067.66
1163.46
1259.71
1355.57
1450.2
1542.7
1632.08
1717.43
1797.9
1872.55
1940.25
1999.87
2050.58
2092.09
2124.78
2149.48
2167.4
2179.88
2188.12
2193.14
2195.97
2197.13
2196.82
2195.99
2194.86
2193.3
2191.07
2188.37
2185.39
2182.1
2178.71
2175.3
2171.93
2168.54
2165.19
2161.86
2158.53
2155.22
2151.91
2148.6
2145.3
2142.04
2138.8
684.946
766.595
852.139
940.825
1031.91
1124.63
1218.25
1311.99
1405.12
1496.88
1586.44
1672.92
1755.46
1833.3
1905.59
1971.33
2029.49
2079.28
2120.37
2153.02
2177.96
2196.23
2209.06
2217.58
2222.82
2225.76
2226.94
2226.61
2225.62
2224.2
2222.44
2220.23
2217.4
2214.25
2210.8
2207.17
2203.5
2199.87
2196.23
2192.6
2188.99
2185.38
2181.78
2178.19
2174.6
2171.02
2167.44
2163.86
2160.29
2156.75
2153.24
1007.27
1096.83
1187.57
1278.83
1369.91
1460.16
1548.89
1635.35
1718.72
1798.24
1873.2
1942.84
2006.27
2062.55
2110.94
2151.14
2183.31
2208.1
2226.41
2239.35
2248.01
2253.36
2256.3
2257.43
2257.1
2255.95
2254.21
2252.25
2249.93
2246.97
2243.64
2240.1
2236.27
2232.35
2228.44
2224.53
2220.61
2216.73
2212.86
2209
2205.14
2201.28
2197.42
2193.56
2189.71
2185.85
2182
2178.15
2174.3
2170.49
2166.69
1345.09
1433.34
1520.54
1606.07
1689.25
1769.32
1845.6
1917.44
1984.17
2044.96
2098.98
2145.57
2184.44
2215.73
2239.98
2258.01
2270.84
2279.45
2284.76
2287.64
2288.68
2288.28
2286.91
2284.95
2282.71
2280.2
2277.12
2273.64
2269.93
2265.92
2261.76
2257.59
2253.44
2249.27
2245.11
2240.97
2236.83
2232.7
2228.58
2224.46
2220.34
2216.22
2212.09
2207.96
2203.84
2199.71
2195.58
2191.46
2187.34
2183.25
2179.18
1747.93
1824.5
1897.32
1965.83
2029.38
2087.25
2138.68
2183.1
2220.26
2250.28
2273.64
2291.11
2303.57
2311.93
2317.07
2319.8
2320.67
2320.12
2318.59
2316.38
2313.81
2311.04
2307.93
2304.22
2300.29
2296.13
2291.75
2287.32
2282.91
2278.49
2274.06
2269.66
2265.27
2260.88
2256.5
2252.11
2247.73
2243.35
2238.97
2234.58
2230.19
2225.79
2221.39
2217
2212.6
2208.2
2203.8
2199.41
2195.05
2190.7
2018.11
2078.26
2132.94
2181.48
2223.41
2258.51
2286.92
2309.08
2325.7
2337.57
2345.47
2350.32
2352.8
2353.37
2352.66
2350.94
2348.42
2345.55
2342.54
2339.21
2335.31
2331.18
2326.89
2322.31
2317.63
2312.96
2308.28
2303.59
2298.92
2294.27
2289.63
2284.99
2280.36
2275.72
2271.08
2266.44
2261.8
2257.15
2252.5
2247.85
2243.19
2238.52
2233.85
2229.18
2224.51
2219.84
2215.17
2210.51
2205.87
2201.24
2227.16
2266.3
2299.06
2325.56
2346.25
2361.76
2372.79
2380.09
2384.51
2386.63
2386.82
2385.9
2383.92
2381.08
2377.94
2374.64
2371.02
2366.99
2362.64
2358.14
2353.36
2348.44
2343.52
2338.61
2333.68
2328.75
2323.85
2318.94
2314.04
2309.15
2304.27
2299.38
2294.5
2289.61
2284.71
2279.81
2274.9
2269.99
2265.07
2260.15
2255.22
2250.29
2245.35
2240.4
2235.46
2230.52
2225.57
2220.64
2215.72
2210.81
2366.06
2385.03
2399.21
2409.21
2415.77
2419.61
2421.23
2421.03
2419.83
2417.54
2414.38
2410.96
2407.33
2403.42
2399.24
2394.63
2389.86
2384.93
2379.79
2374.63
2369.46
2364.28
2359.08
2353.93
2348.78
2343.64
2338.51
2333.37
2328.23
2323.1
2317.96
2312.83
2307.68
2302.54
2297.38
2292.22
2287.04
2281.87
2276.68
2271.49
2266.29
2261.08
2255.87
2250.66
2245.44
2240.22
2235.01
2229.79
2224.6
2219.41
2446.76
2452.43
2455.57
2456.58
2456
2454.39
2451.74
2448.27
2444.53
2440.58
2436.39
2431.99
2427.14
2422.12
2417.01
2411.64
2406.21
2400.81
2395.39
2389.95
2384.54
2379.14
2373.74
2368.36
2362.99
2357.61
2352.24
2346.86
2341.48
2336.1
2330.71
2325.31
2319.91
2314.5
2309.09
2303.66
2298.22
2292.78
2287.32
2281.86
2276.39
2270.91
2265.43
2259.94
2254.45
2248.96
2243.47
2237.98
2232.51
2227.04
2492.64
2491.65
2489.57
2486.52
2482.73
2478.65
2474.39
2469.86
2465.18
2460.14
2454.87
2449.53
2443.98
2438.29
2432.64
2426.98
2421.29
2415.63
2409.99
2404.35
2398.72
2393.11
2387.49
2381.87
2376.26
2370.65
2365.03
2359.41
2353.78
2348.14
2342.5
2336.85
2331.18
2325.51
2319.83
2314.14
2308.44
2302.73
2297.01
2291.27
2285.53
2279.78
2274.03
2268.26
2262.5
2256.73
2250.96
2245.19
2239.44
2233.69
2521.84
2517.71
2513.28
2508.69
2503.85
2498.87
2493.62
2488.08
2482.47
2476.73
2470.82
2464.91
2459.04
2453.11
2447.19
2441.31
2435.43
2429.56
2423.7
2417.85
2412
2406.15
2400.3
2394.45
2388.6
2382.74
2376.88
2371.01
2365.13
2359.24
2353.33
2347.42
2341.5
2335.57
2329.63
2323.67
2317.7
2311.72
2305.73
2299.72
2293.71
2287.69
2281.65
2275.62
2269.57
2263.53
2257.48
2251.43
2245.41
2239.37
2538.31
2533.03
2527.51
2521.75
2515.87
2509.91
2503.78
2497.61
2491.5
2485.35
2479.18
2473.07
2466.96
2460.85
2454.75
2448.67
2442.58
2436.5
2430.43
2424.35
2418.27
2412.18
2406.09
2400
2393.89
2387.78
2381.66
2375.52
2369.38
2363.22
2357.05
2350.87
2344.67
2338.46
2332.24
2326
2319.75
2313.49
2307.21
2300.93
2294.63
2288.32
2282
2275.68
2269.36
2263.03
2256.71
2250.4
2244.08
2555.82
2549.69
2543.48
2537.14
2530.73
2524.38
2518.01
2511.6
2505.25
2498.91
2492.56
2486.23
2479.92
2473.61
2467.3
2460.99
2454.69
2448.38
2442.08
2435.77
2429.45
2423.12
2416.79
2410.45
2404.1
2397.74
2391.36
2384.97
2378.57
2372.16
2365.73
2359.28
2352.82
2346.35
2339.86
2333.35
2326.83
2320.29
2313.74
2307.18
2300.61
2294.02
2287.43
2280.83
2274.23
2267.62
2261.02
2254.43
2247.83
2570.86
2564.23
2557.63
2551.04
2544.41
2537.81
2531.25
2524.67
2518.11
2511.57
2505.03
2498.5
2491.98
2485.45
2478.93
2472.4
2465.87
2459.33
2452.79
2446.25
2439.69
2433.13
2426.55
2419.96
2413.36
2406.75
2400.12
2393.48
2386.82
2380.14
2373.45
2366.74
2360.02
2353.28
2346.52
2339.74
2332.95
2326.14
2319.32
2312.48
2305.63
2298.76
2291.89
2285.01
2278.13
2271.25
2264.36
2257.49
2250.61
2577.57
2570.74
2563.95
2557.15
2550.36
2543.61
2536.84
2530.09
2523.35
2516.6
2509.86
2503.12
2496.38
2489.63
2482.88
2476.12
2469.35
2462.58
2455.8
2449
2442.19
2435.37
2428.53
2421.68
2414.82
2407.93
2401.04
2394.12
2387.18
2380.23
2373.26
2366.27
2359.26
2352.23
2345.18
2338.11
2331.03
2323.93
2316.82
2309.69
2302.55
2295.4
2288.24
2281.08
2273.92
2266.75
2259.6
2252.44
2589.97
2582.96
2575.99
2569.01
2562.04
2555.08
2548.13
2541.17
2534.22
2527.27
2520.31
2513.35
2506.39
2499.41
2492.43
2485.44
2478.44
2471.43
2464.41
2457.37
2450.32
2443.25
2436.17
2429.06
2421.94
2414.81
2407.65
2400.47
2393.28
2386.06
2378.82
2371.56
2364.28
2356.99
2349.67
2342.33
2334.97
2327.6
2320.21
2312.8
2305.38
2297.95
2290.51
2283.07
2275.63
2268.18
2260.74
2253.29
2594.32
2587.15
2579.99
2572.82
2565.67
2558.51
2551.34
2544.18
2537.01
2529.84
2522.66
2515.47
2508.27
2501.06
2493.84
2486.6
2479.35
2472.09
2464.81
2457.51
2450.19
2442.86
2435.51
2428.13
2420.74
2413.32
2405.89
2398.43
2390.95
2383.44
2375.92
2368.37
2360.8
2353.21
2345.59
2337.96
2330.31
2322.64
2314.96
2307.26
2299.55
2291.83
2284.11
2276.39
2268.68
2260.99
2253.28
2604.79
2597.43
2590.07
2582.71
2575.35
2567.98
2560.61
2553.23
2545.85
2538.45
2531.05
2523.63
2516.2
2508.76
2501.31
2493.83
2486.34
2478.84
2471.31
2463.77
2456.2
2448.62
2441.01
2433.38
2425.73
2418.06
2410.36
2402.64
2394.89
2387.12
2379.33
2371.51
2363.67
2355.8
2347.92
2340.01
2332.08
2324.13
2316.17
2308.19
2300.21
2292.24
2284.25
2276.27
2268.3
2260.34
2252.36
2606.81
2599.25
2591.69
2584.12
2576.54
2568.96
2561.36
2553.76
2546.14
2538.51
2530.87
2523.21
2515.54
2507.84
2500.13
2492.4
2484.65
2476.88
2469.09
2461.28
2453.44
2445.58
2437.7
2429.79
2421.85
2413.89
2405.91
2397.89
2389.86
2381.8
2373.71
2365.59
2357.46
2349.29
2341.11
2332.9
2324.7
2316.47
2308.24
2300
2291.75
2283.51
2275.26
2267.01
2258.78
2250.53
2615.29
2607.53
2599.76
2591.98
2584.19
2576.39
2568.58
2560.76
2552.92
2545.06
2537.19
2529.3
2521.39
2513.46
2505.51
2497.54
2489.54
2481.53
2473.49
2465.42
2457.33
2449.22
2441.08
2432.91
2424.71
2416.49
2408.24
2399.96
2391.66
2383.33
2374.96
2366.58
2358.17
2349.75
2341.31
2332.85
2324.38
2315.9
2307.4
2298.89
2290.37
2281.85
2273.33
2264.82
2256.32
2247.8
2622.87
2614.9
2606.92
2598.94
2590.93
2582.92
2574.88
2566.83
2558.77
2550.68
2542.58
2534.46
2526.31
2518.14
2509.95
2501.74
2493.5
2485.24
2476.95
2468.64
2460.29
2451.92
2443.52
2435.1
2426.64
2418.16
2409.64
2401.09
2392.52
2383.93
2375.32
2366.68
2358.02
2349.34
2340.64
2331.92
2323.17
2314.41
2305.65
2296.87
2288.08
2279.3
2270.52
2261.74
2252.98
2244.21
2629.54
2621.37
2613.18
2604.98
2596.76
2588.52
2580.27
2572
2563.7
2555.39
2547.05
2538.7
2530.31
2521.91
2513.48
2505.02
2496.54
2488.03
2479.49
2470.92
2462.32
2453.7
2445.04
2436.35
2427.63
2418.89
2410.13
2401.33
2392.51
2383.67
2374.8
2365.9
2356.98
2348.03
2339.06
2330.07
2321.06
2312.04
2303.01
2293.96
2284.92
2275.87
2266.83
2257.8
2248.78
2239.76
2635.31
2626.92
2618.52
2610.11
2601.67
2593.21
2584.74
2576.24
2567.72
2559.17
2550.61
2542.01
2533.39
2524.75
2516.08
2507.38
2498.65
2489.89
2481.1
2472.28
2463.43
2454.54
2445.64
2436.71
2427.75
2418.76
2409.74
2400.7
2391.63
2382.52
2373.38
2364.22
2355.04
2345.82
2336.59
2327.34
2318.07
2308.79
2299.49
2290.19
2280.89
2271.59
2262.3
2253.02
2243.75
2234.48
2640.16
2631.57
2622.96
2614.32
2605.67
2596.99
2588.29
2579.57
2570.82
2562.04
2553.24
2544.41
2535.56
2526.67
2517.76
2508.81
2499.83
2490.82
2481.79
2472.73
2463.64
2454.52
2445.38
2436.2
2426.99
2417.75
2408.48
2399.17
2389.84
2380.47
2371.08
2361.66
2352.21
2342.74
2333.25
2323.74
2314.22
2304.68
2295.13
2285.58
2276.03
2266.48
2256.94
2247.41
2237.91
2228.39
2644.11
2635.31
2626.48
2617.63
2608.75
2599.85
2590.93
2581.98
2573
2563.99
2554.96
2545.89
2536.79
2527.67
2518.51
2509.34
2500.13
2490.89
2481.62
2472.32
2462.99
2453.63
2444.23
2434.8
2425.34
2415.84
2406.31
2396.75
2387.16
2377.54
2367.9
2358.22
2348.52
2338.8
2329.06
2319.3
2309.52
2299.73
2289.94
2280.14
2270.35
2260.56
2250.78
2241.01
2231.27
2221.52
2638.14
2629.09
2620.02
2610.93
2601.8
2592.65
2583.47
2574.26
2565.02
2555.75
2546.46
2537.14
2527.79
2518.41
2509
2499.56
2490.09
2480.57
2471.03
2461.45
2451.84
2442.2
2432.52
2422.8
2413.06
2403.28
2393.47
2383.63
2373.76
2363.86
2353.94
2343.99
2334.02
2324.03
2314.02
2304
2293.97
2283.94
2273.9
2263.87
2253.84
2243.83
2233.83
2223.86
2213.89
2640.05
2630.79
2621.5
2612.18
2602.83
2593.46
2584.06
2574.63
2565.17
2555.68
2546.17
2536.63
2527.05
2517.43
2507.78
2498.1
2488.39
2478.64
2468.85
2459.03
2449.17
2439.28
2429.36
2419.4
2409.41
2399.39
2389.33
2379.25
2369.13
2358.99
2348.82
2338.63
2328.42
2318.19
2307.94
2297.69
2287.42
2277.15
2266.88
2256.61
2246.36
2236.12
2225.9
2215.71
2205.51
2641.05
2631.58
2622.08
2612.55
2602.99
2593.4
2583.79
2574.14
2564.47
2554.76
2545.01
2535.23
2525.42
2515.57
2505.68
2495.76
2485.81
2475.82
2465.8
2455.74
2445.64
2435.51
2425.35
2415.15
2404.92
2394.66
2384.36
2374.04
2363.68
2353.3
2342.9
2332.47
2322.02
2311.56
2301.08
2290.59
2280.09
2269.59
2259.1
2248.61
2238.14
2227.68
2217.24
2206.84
2196.43
2631.5
2621.79
2612.06
2602.29
2592.49
2582.65
2572.77
2562.87
2552.93
2542.96
2532.95
2522.9
2512.82
2502.71
2492.56
2482.37
2472.15
2461.89
2451.6
2441.27
2430.9
2420.5
2410.07
2399.6
2389.11
2378.58
2368.02
2357.43
2346.82
2336.18
2325.52
2314.85
2304.15
2293.45
2282.74
2272.02
2261.3
2250.58
2239.88
2229.19
2218.53
2207.88
2197.27
2186.67
2630.57
2620.64
2610.69
2600.7
2590.67
2580.61
2570.52
2560.39
2550.23
2540.03
2529.8
2519.53
2509.22
2498.88
2488.5
2478.08
2467.63
2457.15
2446.62
2436.06
2425.47
2414.84
2404.18
2393.48
2382.75
2372
2361.21
2350.4
2339.56
2328.7
2317.82
2306.92
2296
2285.08
2274.15
2263.21
2252.28
2241.36
2230.45
2219.56
2208.69
2197.85
2187.05
2176.26
2628.74
2618.6
2608.43
2598.23
2587.99
2577.71
2567.4
2557.05
2546.67
2536.25
2525.8
2515.3
2504.77
2494.21
2483.61
2472.97
2462.29
2451.58
2440.83
2430.05
2419.23
2408.38
2397.49
2386.57
2375.62
2364.64
2353.63
2342.6
2331.54
2320.46
2309.37
2298.25
2287.13
2275.99
2264.85
2253.71
2242.58
2231.45
2220.35
2209.26
2198.21
2187.18
2176.2
2165.22
2626.03
2615.69
2605.31
2594.89
2584.44
2573.95
2563.42
2552.86
2542.26
2531.63
2520.96
2510.25
2499.5
2488.71
2477.89
2467.04
2456.14
2445.21
2434.24
2423.24
2412.2
2401.13
2390.03
2378.89
2367.73
2356.53
2345.31
2334.06
2322.8
2311.51
2300.2
2288.88
2277.55
2266.21
2254.88
2243.54
2232.22
2220.9
2209.61
2198.34
2187.1
2175.9
2164.73
2153.58
2611.91
2601.33
2590.7
2580.04
2569.34
2558.61
2547.83
2537.03
2526.18
2515.29
2504.37
2493.41
2482.41
2471.38
2460.31
2449.2
2438.06
2426.88
2415.66
2404.41
2393.13
2381.82
2370.47
2359.1
2347.69
2336.27
2324.81
2313.34
2301.85
2290.35
2278.83
2267.31
2255.78
2244.25
2232.73
2221.22
2209.73
2198.25
2186.81
2175.4
2164.02
2152.69
2141.37
2607.29
2596.5
2585.68
2574.81
2563.91
2552.97
2541.99
2530.97
2519.92
2508.82
2497.7
2486.53
2475.32
2464.08
2452.8
2441.49
2430.14
2418.75
2407.33
2395.88
2384.39
2372.87
2361.33
2349.75
2338.15
2326.52
2314.88
2303.21
2291.53
2279.84
2268.13
2256.42
2244.71
2233
2221.3
2209.62
2197.95
2186.3
2174.69
2163.11
2151.57
2140.08
2128.6
2601.84
2590.85
2579.82
2568.76
2557.66
2546.51
2535.33
2524.12
2512.86
2501.57
2490.24
2478.87
2467.46
2456.02
2444.54
2433.02
2421.47
2409.89
2398.27
2386.62
2374.94
2363.23
2351.49
2339.72
2327.93
2316.12
2304.28
2292.43
2280.57
2268.69
2256.81
2244.92
2233.03
2221.15
2209.28
2197.42
2185.59
2173.78
2162.01
2150.28
2138.58
2126.94
2115.32
2584.39
2573.16
2561.9
2550.61
2539.27
2527.89
2516.48
2505.03
2493.54
2482.02
2470.45
2458.85
2447.22
2435.54
2423.84
2412.1
2400.32
2388.52
2376.68
2364.81
2352.91
2340.98
2329.03
2317.06
2305.07
2293.05
2281.03
2268.99
2256.94
2244.88
2232.82
2220.77
2208.72
2196.69
2184.67
2172.68
2160.72
2148.8
2136.92
2125.08
2113.3
2101.54
2577.12
2565.71
2554.26
2542.78
2531.25
2519.69
2508.09
2496.45
2484.77
2473.06
2461.31
2449.52
2437.7
2425.84
2413.95
2402.03
2390.07
2378.08
2366.06
2354.01
2341.94
2329.84
2317.71
2305.56
2293.39
2281.21
2269.01
2256.8
2244.59
2232.37
2220.15
2207.94
2195.74
2183.55
2171.39
2159.25
2147.15
2135.08
2123.07
2111.1
2099.18
2087.29
2569.09
2557.5
2545.87
2534.2
2522.49
2510.74
2498.96
2487.14
2475.28
2463.39
2451.46
2439.5
2427.5
2415.46