/*--------------------------------*- C++ -*----------------------------------*\
| =========                 |                                                 |
| \\      /  F ield         | OpenFOAM: The Open Source CFD Toolbox           |
|  \\    /   O peration     | Version:  v1706                                 |
|   \\  /    A nd           | Web:      www.OpenFOAM.com                      |
|    \\/     M anipulation  |                                                 |
\*---------------------------------------------------------------------------*/
FoamFile
{
    version     2.0;
    format      ascii;
    class       volScalarField;
    location    "1e-05";
    object      Tv;
}
// * * * * * * * * * * * * * * * * * * * * * * * * * * * * * * * * * * * * * //

dimensions      [0 0 0 1 0 0 0];


internalField   nonuniform List<scalar> 
30038
(
144.4
144.4
144.4
144.4
144.4
144.4
144.4
144.4
144.4
144.4
144.4
144.4
144.4
144.4
144.4
144.4
144.4
144.4
144.4
144.4
144.4
144.4
144.4
144.4
144.4
144.4
144.4
144.4
144.4
144.4
144.4
144.4
144.4
144.4
144.4
144.4
144.4
144.4
144.4
144.4
144.4
144.4
144.4
144.4
144.4
144.4
144.4
144.4
144.4
144.4
144.4
144.4
144.4
144.4
144.4
144.4
144.4
144.4
144.4
144.4
144.4
144.4
144.4
144.4
144.4
144.4
144.4
144.4
144.4
144.4
144.4
144.4
144.4
144.4
144.4
144.4
144.4
144.4
144.4
144.4
144.4
144.4
144.4
144.4
144.4
144.4
144.4
144.4
144.4
144.4
144.4
144.4
144.4
144.4
144.4
144.4
144.4
144.4
144.4
144.4
144.4
144.4
144.4
144.4
144.4
144.4
144.4
144.4
144.4
144.4
144.4
144.4
144.4
144.4
144.4
144.4
144.4
144.4
144.4
144.4
144.4
144.4
144.4
144.4
144.4
144.4
144.4
144.4
144.4
144.4
144.4
144.4
144.4
144.4
144.4
144.4
144.4
144.4
144.4
144.4
144.4
144.4
144.4
144.4
144.4
144.4
144.4
144.4
144.4
144.4
144.4
144.4
144.4
144.4
144.4
144.4
144.4
144.4
144.4
144.4
144.4
144.4
144.4
144.4
144.4
144.4
144.4
144.4
144.4
144.4
144.4
144.4
144.4
144.4
144.4
144.4
144.4
144.4
144.4
144.4
144.4
144.4
144.4
144.4
144.4
144.4
144.4
144.4
144.4
144.4
144.4
144.4
144.4
144.4
144.4
144.4
144.4
144.4
144.4
144.4
144.4
144.4
144.4
144.4
144.4
144.4
144.4
144.4
144.4
144.4
144.4
144.4
144.4
144.4
144.4
144.4
144.4
144.4
144.4
144.4
144.4
144.4
144.4
144.4
144.4
144.4
144.4
144.4
144.4
144.4
144.4
144.4
144.4
144.4
144.4
144.4
144.4
144.4
144.4
144.4
144.4
144.4
144.4
144.4
144.4
144.4
144.4
144.4
144.4
144.4
144.4
144.4
144.4
144.4
144.4
144.4
144.4
144.4
144.4
144.4
144.4
144.4
144.4
144.4
144.4
144.4
144.4
144.4
144.4
144.4
144.4
144.4
144.4
144.4
144.4
144.4
144.4
144.4
144.4
144.4
144.4
144.4
144.4
144.4
144.4
144.4
144.4
144.4
144.4
144.4
144.4
144.4
144.4
144.4
144.4
144.4
144.4
144.4
144.4
144.4
144.4
144.4
144.4
144.4
144.4
144.4
144.4
144.4
144.4
144.4
144.4
144.4
144.4
144.4
144.4
144.4
144.4
144.4
144.4
144.4
144.4
144.4
144.4
144.4
144.4
144.4
144.4
144.4
144.4
144.4
144.4
144.4
144.4
144.4
144.4
144.4
144.4
144.4
144.4
144.4
144.4
144.4
144.4
144.4
144.4
144.4
144.4
144.4
144.4
144.4
144.4
144.4
144.4
144.4
144.4
144.4
144.4
144.4
144.4
144.4
144.4
144.4
144.4
144.4
144.4
144.4
144.4
144.4
144.4
144.4
144.4
144.4
144.4
144.4
144.4
144.4
144.4
144.4
144.4
144.4
144.4
144.4
144.4
144.4
144.4
144.4
144.4
144.4
144.4
144.4
144.4
144.4
144.4
144.4
144.4
144.4
144.4
144.4
144.4
144.4
144.4
144.4
144.4
144.4
144.4
144.4
144.4
144.4
144.4
144.4
144.4
144.4
144.4
144.4
144.4
144.4
144.4
144.4
144.4
144.4
144.4
144.4
144.4
144.4
144.4
144.4
144.4
144.4
144.4
144.4
144.4
144.4
144.4
144.4
144.4
144.4
144.4
144.4
144.4
144.4
144.4
144.4
144.4
144.4
144.4
144.4
144.4
144.4
144.4
144.4
144.4
144.4
144.4
144.4
144.4
144.4
144.4
144.4
144.4
144.4
144.4
144.4
144.4
144.4
144.4
144.4
144.4
144.4
144.4
144.4
144.4
144.4
144.4
144.4
144.4
144.4
144.4
144.4
144.4
144.4
144.4
144.4
144.4
144.4
144.4
144.4
144.4
144.4
144.4
144.4
144.4
144.4
144.4
144.4
144.4
144.4
144.4
144.4
144.4
144.4
144.4
144.4
144.4
144.4
144.4
144.4
144.4
144.4
144.4
144.4
144.4
144.4
144.4
144.4
144.4
144.4
144.4
144.4
144.4
144.4
144.4
144.4
144.4
144.4
144.4
144.4
144.4
144.4
144.4
144.4
144.4
144.4
144.4
144.4
144.4
144.4
144.4
144.4
144.4
144.4
144.4
144.4
144.4
144.4
144.4
144.4
144.4
144.4
144.4
144.4
144.4
144.4
144.4
144.4
144.4
144.4
144.4
144.4
144.4
144.4
144.4
144.4
144.4
144.4
144.4
144.4
144.4
144.4
144.4
144.4
144.4
144.4
144.4
144.4
144.4
144.4
144.4
144.4
144.4
144.4
144.4
144.4
144.4
144.4
144.4
144.4
144.4
144.4
144.4
144.4
144.4
144.4
144.4
144.4
144.4
144.4
144.4
144.4
144.4
144.4
144.4
144.4
144.4
144.4
144.4
144.4
144.4
144.4
144.4
144.4
144.4
144.4
144.4
144.4
144.4
144.4
144.4
144.4
144.4
144.4
144.4
144.4
144.4
144.4
144.4
144.4
144.4
144.4
144.4
144.4
144.4
144.4
144.4
144.4
144.4
144.4
144.4
144.4
144.4
144.4
144.4
144.4
144.4
144.4
144.4
144.4
144.4
144.4
144.4
144.4
144.4
144.4
144.4
144.4
144.4
144.4
144.4
144.4
144.4
144.4
144.4
144.4
144.4
144.4
144.4
144.4
144.4
144.4
144.4
144.4
144.4
144.4
144.4
144.4
144.4
144.4
144.4
144.4
144.4
144.4
144.4
144.4
144.4
144.4
144.4
144.4
144.4
144.4
144.4
144.4
144.4
144.4
144.4
144.4
144.4
144.4
144.4
144.4
144.4
144.4
144.4
144.4
144.4
144.4
144.4
144.4
144.4
144.4
144.4
144.4
144.4
144.4
144.4
144.4
144.4
144.4
144.4
144.4
144.4
144.4
144.4
144.4
144.4
144.4
144.4
144.4
144.4
144.4
144.4
144.4
144.4
144.4
144.4
144.4
144.4
144.4
144.4
144.4
144.4
144.4
144.4
144.4
144.4
144.4
144.4
144.4
144.4
144.4
144.4
144.4
144.4
144.4
144.4
144.4
144.4
144.4
144.4
144.4
144.4
144.4
144.4
144.4
144.4
144.4
144.4
144.4
144.4
144.4
144.4
144.4
144.4
144.4
144.4
144.4
144.4
144.4
144.4
144.4
144.4
144.4
144.4
144.4
144.4
144.4
144.4
144.4
144.4
144.4
144.4
144.4
144.4
144.4
144.4
144.4
144.4
144.4
144.4
144.4
144.4
144.4
144.4
144.4
144.4
144.4
144.4
144.4
144.4
144.4
144.4
144.4
144.4
144.4
144.4
144.4
144.4
144.4
144.4
144.4
144.4
144.4
144.4
144.4
144.4
144.4
144.4
144.4
144.4
144.4
144.4
144.4
144.4
144.4
144.4
144.4
144.4
144.4
144.4
144.4
144.4
144.4
144.4
144.4
144.4
144.4
144.4
144.4
144.4
144.4
144.4
144.4
144.4
144.4
144.4
144.4
144.4
144.4
144.4
144.4
144.4
144.4
144.4
144.4
144.4
144.4
144.4
144.4
144.4
144.4
144.4
144.4
144.4
144.4
144.4
144.4
144.4
144.4
144.4
144.4
144.4
144.4
144.4
144.4
144.4
144.4
144.4
144.4
144.4
144.4
144.4
144.4
144.4
144.4
144.4
144.4
144.4
144.4
144.4
144.4
144.4
144.4
144.4
144.4
144.4
144.4
144.4
144.4
144.4
144.4
144.4
144.4
144.4
144.4
144.4
144.4
144.4
144.4
144.4
144.4
144.4
144.4
144.4
144.4
144.4
144.4
144.4
144.4
144.4
144.4
144.4
144.4
144.4
144.4
144.4
144.4
144.4
144.4
144.4
144.4
144.4
144.4
144.4
144.4
144.4
144.4
144.4
144.4
144.4
144.4
144.4
144.4
144.4
144.4
144.4
144.4
144.4
144.4
144.4
144.4
144.4
144.4
144.4
144.4
144.4
144.4
144.4
144.4
144.4
144.4
144.4
144.4
144.4
144.4
144.4
144.4
144.4
144.4
144.4
144.4
144.4
144.4
144.4
144.4
144.4
144.4
144.4
144.4
144.4
144.4
144.4
144.4
144.4
144.4
144.4
144.4
144.4
144.4
144.4
144.4
144.4
144.4
144.4
144.4
144.4
144.4
144.4
144.4
144.4
144.4
144.4
144.4
144.4
144.4
144.4
144.4
144.4
144.4
144.4
144.4
144.4
144.4
144.4
144.4
144.4
144.4
144.4
144.4
144.4
144.4
144.4
144.4
144.4
144.4
144.4
144.4
144.4
144.4
144.4
144.4
144.4
144.4
144.4
144.4
144.4
144.4
144.4
144.4
144.4
144.4
144.4
144.4
144.4
144.4
144.4
144.4
144.4
144.4
144.4
144.4
144.4
144.4
144.4
144.4
144.4
144.4
144.4
144.4
144.4
144.4
144.4
144.4
144.4
144.4
144.4
144.4
144.4
144.4
144.4
144.4
144.4
144.4
144.4
144.4
144.4
144.4
144.4
144.4
144.4
144.4
144.4
144.4
144.4
144.4
144.4
144.4
144.4
144.4
144.4
144.4
144.4
144.4
144.4
144.4
144.4
144.4
144.4
144.4
144.4
144.4
144.4
144.4
144.4
144.4
144.4
144.4
144.4
144.4
144.4
144.4
144.4
144.4
144.4
144.4
144.4
144.4
144.4
144.4
144.4
144.4
144.4
144.4
144.4
144.4
144.4
144.4
144.4
144.4
144.4
144.4
144.4
144.4
144.4
144.4
144.4
144.4
144.4
144.4
144.4
144.4
144.4
144.4
144.4
144.4
144.4
144.4
144.4
144.4
144.4
144.4
144.4
144.4
144.4
144.4
144.4
144.4
144.4
144.4
144.4
144.4
144.4
144.4
144.4
144.4
144.4
144.4
144.4
144.4
144.4
144.4
144.4
144.4
144.4
144.4
144.4
144.4
144.4
144.4
144.4
144.4
144.4
144.4
144.401
144.401
144.4
144.4
144.4
144.4
144.4
144.4
144.4
144.4
144.4
144.4
144.4
144.4
144.4
144.4
144.4
144.4
144.4
144.4
144.4
144.4
144.4
144.4
144.4
144.4
144.4
144.4
144.4
144.4
144.4
144.4
144.4
144.4
144.4
144.4
144.4
144.4
144.4
144.4
144.4
144.4
144.4
144.4
144.4
144.4
144.4
144.401
144.401
144.402
144.405
144.412
144.4
144.4
144.4
144.4
144.4
144.4
144.4
144.4
144.4
144.4
144.4
144.4
144.4
144.4
144.4
144.4
144.4
144.4
144.4
144.4
144.4
144.4
144.4
144.4
144.4
144.4
144.4
144.4
144.4
144.4
144.4
144.4
144.4
144.4
144.4
144.4
144.4
144.4
144.4
144.4
144.4
144.4
144.401
144.401
144.402
144.405
144.411
144.423
144.45
144.518
144.4
144.4
144.4
144.4
144.4
144.4
144.4
144.4
144.4
144.4
144.4
144.4
144.4
144.4
144.4
144.4
144.4
144.4
144.4
144.4
144.4
144.4
144.4
144.4
144.4
144.4
144.4
144.4
144.4
144.4
144.4
144.4
144.4
144.4
144.4
144.4
144.4
144.4
144.4
144.401
144.401
144.403
144.406
144.412
144.424
144.45
144.504
144.618
144.862
145.441
144.4
144.4
144.4
144.4
144.4
144.4
144.4
144.4
144.4
144.4
144.4
144.4
144.4
144.4
144.4
144.4
144.4
144.4
144.4
144.4
144.4
144.4
144.4
144.4
144.4
144.4
144.4
144.4
144.4
144.4
144.4
144.4
144.4
144.4
144.4
144.4
144.401
144.402
144.403
144.406
144.413
144.426
144.453
144.509
144.624
144.859
145.327
146.225
147.846
150.723
144.4
144.4
144.4
144.4
144.4
144.4
144.4
144.4
144.4
144.4
144.4
144.4
144.4
144.4
144.4
144.4
144.4
144.4
144.4
144.4
144.4
144.4
144.4
144.4
144.4
144.4
144.4
144.4
144.4
144.4
144.4
144.4
144.4
144.401
144.402
144.404
144.407
144.415
144.429
144.459
144.519
144.64
144.882
145.356
146.245
147.797
150.241
153.674
158.064
163.586
144.4
144.4
144.4
144.4
144.4
144.4
144.4
144.4
144.4
144.4
144.4
144.4
144.4
144.4
144.4
144.4
144.4
144.4
144.4
144.4
144.4
144.4
144.4
144.4
144.4
144.4
144.4
144.4
144.4
144.401
144.401
144.402
144.404
144.409
144.417
144.434
144.467
144.534
144.665
144.924
145.42
146.332
147.893
150.312
153.665
157.88
162.812
168.327
174.346
180.989
144.4
144.4
144.4
144.4
144.4
144.4
144.4
144.4
144.4
144.4
144.4
144.4
144.4
144.4
144.4
144.4
144.4
144.4
144.4
144.4
144.4
144.4
144.4
144.4
144.4
144.4
144.401
144.402
144.403
144.406
144.411
144.421
144.441
144.48
144.556
144.704
144.989
145.524
146.486
148.094
150.535
153.866
158.013
162.84
168.215
174.029
180.181
186.563
193.073
199.692
144.4
144.4
144.4
144.4
144.4
144.4
144.4
144.4
144.4
144.4
144.4
144.4
144.4
144.4
144.4
144.4
144.4
144.4
144.4
144.4
144.4
144.4
144.401
144.401
144.402
144.404
144.407
144.414
144.427
144.451
144.498
144.588
144.76
145.084
145.678
146.719
148.411
150.914
154.264
158.38
163.136
168.411
174.109
180.132
186.375
192.717
199.032
205.21
211.188
216.96
144.4
144.4
144.4
144.4
144.4
144.4
144.4
144.4
144.4
144.4
144.4
144.4
144.4
144.4
144.4
144.4
144.4
144.4
144.4
144.401
144.402
144.403
144.405
144.41
144.419
144.435
144.466
144.524
144.634
144.84
145.219
145.897
147.048
148.861
151.464
154.866
158.982
163.692
168.892
174.491
180.405
186.535
192.768
198.983
205.069
210.94
216.541
221.856
226.906
231.735
144.4
144.4
144.4
144.4
144.4
144.4
144.4
144.4
144.4
144.4
144.4
144.4
144.4
144.4
144.4
144.401
144.401
144.402
144.404
144.408
144.414
144.426
144.448
144.488
144.563
144.701
144.954
145.409
146.2
147.497
149.468
152.203
155.686
159.825
164.512
169.655
175.173
180.99
187.014
193.141
199.257
205.257
211.056
216.597
221.856
226.83
231.536
236.004
240.281
244.419
144.4
144.4
144.4
144.4
144.4
144.4
144.4
144.4
144.4
144.4
144.4
144.401
144.401
144.402
144.404
144.406
144.411
144.42
144.437
144.466
144.521
144.619
144.798
145.118
145.678
146.617
148.099
150.262
153.156
156.74
160.921
165.602
170.704
176.155
181.886
187.812
193.834
199.847
205.751
211.466
216.937
222.138
227.064
231.727
236.149
240.356
244.376
248.239
251.99
255.685
144.4
144.4
144.4
144.4
144.4
144.4
144.4
144.401
144.401
144.402
144.403
144.405
144.41
144.417
144.43
144.453
144.495
144.57
144.704
144.942
145.355
146.056
147.186
148.894
151.277
154.349
158.047
162.283
166.971
172.044
177.441
183.095
188.927
194.846
200.751
206.551
212.17
217.557
222.685
227.549
232.16
236.535
240.699
244.678
248.495
252.174
255.739
259.21
262.621
266.037
144.4
144.4
144.4
144.401
144.401
144.402
144.403
144.405
144.409
144.415
144.426
144.446
144.48
144.541
144.648
144.834
145.156
145.701
146.588
147.957
149.927
152.552
155.81
159.629
163.925
168.63
173.685
179.035
184.62
190.362
196.176
201.97
207.657
213.168
218.456
223.497
228.286
232.83
237.147
241.258
245.189
248.961
252.597
256.117
259.539
262.879
266.15
269.36
272.527
275.717
144.401
144.402
144.403
144.405
144.408
144.414
144.425
144.442
144.472
144.524
144.615
144.77
145.035
145.48
146.204
147.333
148.988
151.248
154.124
157.568
161.505
165.866
170.592
175.635
180.945
186.464
192.118
197.826
203.502
209.067
214.459
219.637
224.577
229.275
233.74
237.987
242.035
245.908
249.627
253.213
256.685
260.059
263.352
266.575
269.737
272.841
275.888
278.875
281.809
284.758
144.405
144.409
144.415
144.424
144.441
144.469
144.517
144.598
144.735
144.966
145.349
145.969
146.934
148.362
150.341
152.905
156.027
159.646
163.696
168.12
172.87
177.905
183.178
188.632
194.196
199.794
205.345
210.779
216.042
221.096
225.922
230.518
234.891
239.056
243.031
246.837
250.495
254.024
257.441
260.763
264.005
267.178
270.291
273.349
276.352
279.298
282.183
285.002
287.755
290.45
293.157
144.443
144.47
144.517
144.594
144.723
144.936
145.285
145.842
146.704
147.978
149.754
152.077
154.939
158.289
162.069
166.223
170.705
175.479
180.507
185.742
191.128
196.598
202.078
207.496
212.79
217.911
222.83
227.531
232.012
236.282
240.354
244.246
247.977
251.566
255.03
258.388
261.653
264.839
267.958
271.019
274.027
276.983
279.886
282.731
285.515
288.233
290.886
293.473
296
298.479
300.974
144.603
144.731
144.939
145.274
145.801
146.607
147.789
149.432
151.585
154.247
157.382
160.936
164.857
169.103
173.639
178.434
183.45
188.643
193.955
199.322
204.675
209.95
215.092
220.062
224.834
229.398
233.754
237.91
241.88
245.68
249.327
252.839
256.233
259.524
262.727
265.853
268.915
271.921
274.875
277.781
280.637
283.439
286.184
288.866
291.484
294.038
296.531
298.965
301.346
303.677
305.971
308.285
145.839
146.629
147.771
149.342
151.388
153.913
156.885
160.259
163.987
168.03
172.356
176.939
181.747
186.746
191.887
197.114
202.366
207.58
212.7
217.679
222.486
227.102
231.519
235.739
239.772
243.631
247.33
250.885
254.314
257.631
260.851
263.986
267.049
270.05
272.996
275.894
278.746
281.552
284.308
287.009
289.652
292.233
294.752
297.209
299.608
301.953
304.247
306.493
308.697
310.863
313.001
315.163
151.469
153.912
156.773
160.011
163.585
167.459
171.605
176
180.619
185.431
190.399
195.474
200.602
205.724
210.784
215.736
220.541
225.174
229.624
233.884
237.961
241.863
245.602
249.193
252.651
255.99
259.224
262.367
265.431
268.426
271.362
274.246
277.085
279.88
282.632
285.338
287.993
290.593
293.134
295.614
298.034
300.396
302.703
304.96
307.168
309.333
311.458
313.547
315.602
317.628
319.632
321.663
163.635
167.373
171.368
175.601
180.051
184.693
189.494
194.413
199.403
204.411
209.385
214.276
219.046
223.665
228.115
232.39
236.487
240.412
244.176
247.79
251.266
254.62
257.863
261.01
264.072
267.06
269.983
272.85
275.669
278.446
281.181
283.876
286.529
289.134
291.688
294.186
296.626
299.006
301.329
303.597
305.815
307.985
310.109
312.194
314.242
316.256
318.238
320.191
322.119
324.024
325.913
327.83
180.035
184.522
189.167
193.935
198.783
203.664
208.53
213.335
218.04
222.614
227.037
231.296
235.388
239.315
243.084
246.704
250.187
253.544
256.788
259.932
262.987
265.963
268.871
271.719
274.515
277.266
279.977
282.65
285.286
287.882
290.435
292.939
295.391
297.786
300.125
302.407
304.636
306.812
308.941
311.026
313.07
315.076
317.047
318.987
320.897
322.782
324.641
326.478
328.295
330.094
331.882
333.697
198.749
203.496
208.24
212.939
217.555
222.057
226.424
230.641
234.702
238.607
242.359
245.967
249.439
252.787
256.021
259.152
262.192
265.15
268.038
270.863
273.633
276.355
279.035
281.679
284.287
286.861
289.398
291.894
294.346
296.748
299.097
301.391
303.63
305.816
307.95
310.038
312.081
314.082
316.046
317.975
319.872
321.739
323.579
325.395
327.188
328.96
330.713
332.448
334.167
335.871
337.568
339.289
217.614
222.021
226.307
230.456
234.461
238.319
242.033
245.607
249.051
252.373
255.582
258.69
261.705
264.638
267.498
270.294
273.033
275.722
278.368
280.976
283.549
286.09
288.599
291.075
293.513
295.909
298.258
300.558
302.804
304.998
307.139
309.23
311.273
313.273
315.231
317.152
319.038
320.891
322.715
324.511
326.282
328.03
329.757
331.465
333.155
334.829
336.487
338.13
339.76
341.378
342.99
344.625
238.477
242.13
245.651
249.047
252.326
255.496
258.566
261.545
264.443
267.267
270.026
272.728
275.379
277.985
280.553
283.085
285.587
288.059
290.502
292.913
295.29
297.628
299.923
302.169
304.365
306.51
308.605
310.649
312.648
314.603
316.517
318.393
320.234
322.043
323.823
325.574
327.301
329.004
330.686
332.349
333.993
335.621
337.234
338.832
340.417
341.988
343.548
345.096
346.633
348.165
349.719
252.666
255.781
258.799
261.73
264.581
267.36
270.074
272.731
275.337
277.898
280.42
282.907
285.363
287.791
290.192
292.567
294.912
297.226
299.503
301.74
303.931
306.074
308.168
310.213
312.21
314.161
316.07
317.937
319.768
321.564
323.328
325.062
326.768
328.45
330.108
331.744
333.362
334.961
336.543
338.11
339.662
341.201
342.728
344.242
345.745
347.236
348.717
350.188
351.649
353.106
354.582
265.066
267.789
270.449
273.053
275.607
278.116
280.587
283.023
285.428
287.806
290.159
292.489
294.793
297.071
299.319
301.534
303.709
305.843
307.93
309.971
311.964
313.911
315.813
317.673
319.493
321.276
323.026
324.743
326.431
328.092
329.727
331.339
332.93
334.502
336.055
337.591
339.112
340.619
342.113
343.593
345.062
346.52
347.967
349.403
350.829
352.246
353.652
355.049
356.438
357.822
359.224
278.651
281.064
283.443
285.792
288.115
290.414
292.691
294.946
297.18
299.388
301.569
303.718
305.831
307.904
309.933
311.918
313.857
315.751
317.602
319.411
321.183
322.917
324.618
326.288
327.929
329.543
331.132
332.698
334.242
335.767
337.274
338.765
340.24
341.701
343.148
344.583
346.006
347.419
348.82
350.212
351.594
352.966
354.329
355.683
357.028
358.363
359.69
361.008
362.322
363.652
288.725
290.965
293.184
295.384
297.564
299.725
301.862
303.974
306.056
308.104
310.114
312.083
314.009
315.891
317.731
319.528
321.286
323.006
324.69
326.342
327.963
329.556
331.122
332.663
334.182
335.679
337.158
338.618
340.062
341.491
342.905
344.306
345.695
347.073
348.44
349.796
351.143
352.48
353.808
355.127
356.437
357.739
359.032
360.316
361.592
362.859
364.118
365.368
366.613
367.872
298.235
300.34
302.427
304.492
306.533
308.546
310.527
312.471
314.377
316.242
318.066
319.848
321.59
323.294
324.961
326.594
328.195
329.766
331.309
332.826
334.319
335.79
337.24
338.671
340.084
341.481
342.863
344.231
345.586
346.928
348.26
349.581
350.892
352.193
353.485
354.768
356.043
357.309
358.568
359.818
361.06
362.294
363.52
364.738
365.947
367.148
368.339
369.523
370.702
371.892
307.275
309.244
311.186
313.098
314.975
316.816
318.618
320.38
322.104
323.788
325.435
327.048
328.627
330.176
331.695
333.188
334.656
336.099
337.521
338.923
340.306
341.671
343.021
344.355
345.676
346.984
348.281
349.566
350.84
352.105
353.361
354.608
355.846
357.076
358.299
359.513
360.72
361.92
363.111
364.296
365.472
366.641
367.802
368.955
370.099
371.235
372.362
373.481
374.594
375.717
315.815
317.624
319.397
321.134
322.833
324.495
326.12
327.709
329.265
330.79
332.284
333.751
335.192
336.608
338.001
339.374
340.726
342.061
343.378
344.679
345.966
347.24
348.501
349.75
350.989
352.217
353.436
354.646
355.847
357.04
358.226
359.403
360.574
361.737
362.893
364.042
365.184
366.319
367.447
368.568
369.681
370.787
371.884
372.974
374.055
375.127
376.191
377.246
378.295
379.352
323.788
325.422
327.021
328.584
330.114
331.612
333.079
334.518
335.931
337.319
338.683
340.025
341.346
342.649
343.934
345.202
346.455
347.694
348.92
350.134
351.336
352.528
353.709
354.882
356.046
357.201
358.349
359.489
360.622
361.748
362.867
363.98
365.086
366.185
367.278
368.364
369.444
370.517
371.583
372.642
373.693
374.737
375.773
376.801
377.82
378.83
379.831
380.824
381.809
382.801
331.179
332.647
334.085
335.495
336.877
338.234
339.568
340.878
342.168
343.438
344.69
345.924
347.143
348.347
349.538
350.715
351.881
353.036
354.18
355.315
356.441
357.559
358.668
359.77
360.865
361.953
363.034
364.109
365.177
366.24
367.296
368.347
369.391
370.429
371.461
372.487
373.506
374.519
375.525
376.524
377.515
378.498
379.474
380.441
381.4
382.349
383.289
384.219
385.143
386.071
339.358
340.659
341.937
343.193
344.429
345.646
346.846
348.03
349.199
350.353
351.494
352.623
353.741
354.848
355.945
357.033
358.112
359.183
360.246
361.302
362.351
363.394
364.43
365.461
366.485
367.504
368.517
369.524
370.526
371.523
372.513
373.498
374.477
375.451
376.418
377.378
378.332
379.279
380.219
381.152
382.076
382.992
383.9
384.799
385.688
386.567
387.437
388.3
389.165
345.624
346.806
347.97
349.118
350.25
351.368
352.472
353.563
354.643
355.712
356.771
357.82
358.86
359.892
360.916
361.933
362.944
363.947
364.944
365.936
366.921
367.901
368.876
369.845
370.809
371.769
372.723
373.671
374.615
375.554
376.487
377.414
378.336
379.252
380.162
381.065
381.962
382.851
383.734
384.608
385.475
386.333
387.182
388.022
388.852
389.673
390.483
391.285
392.088
351.502
352.581
353.648
354.701
355.742
356.772
357.792
358.802
359.803
360.796
361.781
362.758
363.728
364.692
365.65
366.601
367.547
368.488
369.424
370.354
371.28
372.2
373.116
374.028
374.935
375.837
376.734
377.626
378.514
379.396
380.273
381.145
382.011
382.871
383.725
384.573
385.413
386.246
387.072
387.89
388.7
389.501
390.293
391.075
391.847
392.609
393.36
394.103
394.846
358.029
359.009
359.979
360.94
361.893
362.838
363.775
364.705
365.629
366.546
367.458
368.364
369.264
370.16
371.051
371.937
372.818
373.695
374.568
375.437
376.301
377.161
378.017
378.869
379.716
380.558
381.396
382.229
383.057
383.88
384.697
385.508
386.314
387.113
387.906
388.691
389.469
390.24
391.002
391.756
392.501
393.236
393.961
394.676
395.38
396.074
396.758
397.441
363.184
364.088
364.984
365.873
366.756
367.633
368.503
369.369
370.229
371.084
371.935
372.78
373.622
374.46
375.293
376.122
376.948
377.77
378.588
379.402
380.212
381.018
381.82
382.618
383.412
384.201
384.986
385.766
386.541
387.31
388.074
388.833
389.585
390.33
391.069
391.801
392.525
393.241
393.948
394.647
395.336
396.016
396.686
397.344
397.992
398.629
399.256
399.88
368.909
369.738
370.562
371.381
372.195
373.005
373.81
374.611
375.408
376.202
376.991
377.777
378.559
379.338
380.114
380.886
381.654
382.419
383.181
383.939
384.693
385.443
386.189
386.931
387.669
388.402
389.13
389.853
390.571
391.283
391.989
392.689
393.382
394.068
394.746
395.417
396.08
396.733
397.378
398.013
398.638
399.253
399.856
400.449
401.029
401.6
402.166
373.493
374.261
375.025
375.785
376.541
377.293
378.042
378.788
379.53
380.269
381.005
381.738
382.468
383.195
383.919
384.639
385.357
386.071
386.782
387.489
388.192
388.892
389.588
390.28
390.967
391.649
392.327
392.999
393.666
394.327
394.982
395.63
396.272
396.906
397.533
398.151
398.761
399.362
399.954
400.535
401.107
401.667
402.217
402.754
403.28
403.795
404.304
378.567
379.275
379.979
380.681
381.38
382.075
382.769
383.459
384.147
384.832
385.514
386.193
386.87
387.544
388.215
388.883
389.548
390.209
390.867
391.522
392.172
392.819
393.461
394.099
394.732
395.361
395.983
396.6
397.211
397.816
398.414
399.005
399.588
400.164
400.731
401.289
401.838
402.378
402.907
403.426
403.933
404.429
404.913
405.385
405.845
406.299
382.668
383.323
383.976
384.626
385.274
385.919
386.562
387.203
387.841
388.477
389.111
389.742
390.37
390.996
391.619
392.239
392.856
393.469
394.08
394.686
395.289
395.888
396.482
397.072
397.656
398.236
398.81
399.378
399.94
400.496
401.044
401.586
402.119
402.644
403.161
403.669
404.167
404.655
405.133
405.6
406.055
406.499
406.93
407.348
407.755
408.155
386.576
387.181
387.784
388.385
388.984
389.581
390.177
390.77
391.36
391.949
392.536
393.12
393.701
394.28
394.857
395.43
396
396.567
397.131
397.691
398.247
398.798
399.346
399.888
400.426
400.958
401.484
402.005
402.519
403.026
403.526
404.018
404.503
404.979
405.446
405.904
406.352
406.79
407.217
407.633
408.037
408.429
408.809
409.175
409.53
409.876
390.298
390.856
391.411
391.966
392.518
393.069
393.618
394.165
394.71
395.253
395.794
396.332
396.869
397.402
397.933
398.461
398.986
399.508
400.026
400.54
401.05
401.556
402.057
402.553
403.044
403.53
404.01
404.483
404.95
405.41
405.862
406.307
406.743
407.171
407.59
407.999
408.398
408.786
409.164
409.53
409.884
410.226
410.554
410.87
411.173
411.467
393.842
394.354
394.865
395.374
395.882
396.388
396.892
397.395
397.895
398.394
398.891
399.385
399.877
400.367
400.853
401.337
401.818
402.295
402.768
403.238
403.703
404.164
404.62
405.071
405.517
405.957
406.391
406.818
407.239
407.652
408.058
408.456
408.845
409.225
409.596
409.957
410.308
410.649
410.978
411.295
411.6
411.892
412.171
412.436
412.689
412.931
397.216
397.684
398.151
398.617
399.081
399.544
400.005
400.465
400.922
401.378
401.832
402.283
402.732
403.178
403.622
404.062
404.5
404.933
405.363
405.789
406.211
406.628
407.04
407.446
407.848
408.243
408.632
409.014
409.39
409.757
410.117
410.469
410.812
411.146
411.47
411.785
412.088
412.381
412.662
412.932
413.188
413.432
413.663
413.879
414.082
414.274
400.425
400.851
401.275
401.699
402.121
402.542
402.962
403.379
403.795
404.209
404.621
405.03
405.437
405.842
406.243
406.641
407.036
407.428
407.815
408.198
408.577
408.951
409.319
409.683
410.04
410.392
410.737
411.075
411.406
411.729
412.044
412.351
412.649
412.937
413.216
413.484
413.742
413.988
414.223
414.445
414.655
414.851
415.033
415.202
415.357
415.5
403.859
404.243
404.626
405.008
405.388
405.767
406.144
406.519
406.892
407.263
407.632
407.998
408.361
408.721
409.078
409.432
409.782
410.127
410.469
410.805
411.137
411.464
411.785
412.1
412.408
412.71
413.005
413.292
413.572
413.843
414.106
414.359
414.603
414.837
415.06
415.272
415.473
415.662
415.839
416.002
416.152
416.288
416.409
416.517
416.612
406.715
407.06
407.403
407.745
408.086
408.425
408.762
409.098
409.431
409.762
410.091
410.417
410.741
411.061
411.377
411.691
412
412.305
412.605
412.901
413.191
413.476
413.756
414.029
414.296
414.555
414.808
415.053
415.289
415.518
415.737
415.947
416.147
416.337
416.516
416.684
416.841
416.985
417.117
417.235
417.34
417.43
417.505
417.567
417.615
409.423
409.729
410.034
410.338
410.64
410.941
411.239
411.536
411.831
412.123
412.413
412.7
412.985
413.265
413.543
413.816
414.086
414.351
414.611
414.867
415.117
415.362
415.6
415.833
416.058
416.277
416.488
416.691
416.886
417.072
417.249
417.417
417.574
417.721
417.857
417.982
418.095
418.196
418.283
418.357
418.418
418.463
418.494
418.51
418.511
412.256
412.524
412.79
413.055
413.318
413.579
413.838
414.095
414.35
414.602
414.851
415.097
415.339
415.578
415.813
416.044
416.27
416.491
416.708
416.918
417.123
417.322
417.514
417.7
417.878
418.048
418.211
418.365
418.51
418.646
418.772
418.887
418.993
419.087
419.169
419.24
419.298
419.342
419.373
419.39
419.391
419.378
419.351
419.308
414.646
414.877
415.107
415.335
415.561
415.786
416.008
416.228
416.446
416.661
416.873
417.081
417.286
417.488
417.685
417.878
418.066
418.249
418.427
418.599
418.765
418.925
419.078
419.224
419.363
419.494
419.617
419.73
419.835
419.931
420.016
420.091
420.156
420.209
420.249
420.278
420.295
420.296
420.285
420.261
420.22
420.164
420.092
420.006
416.901
417.097
417.291
417.484
417.675
417.863
418.05
418.234
418.416
418.594
418.77
418.942
419.111
419.275
419.435
419.591
419.742
419.888
420.028
420.163
420.291
420.413
420.528
420.636
420.736
420.828
420.912
420.987
421.052
421.108
421.154
421.189
421.213
421.227
421.226
421.214
421.191
421.152
421.1
421.033
420.951
420.853
420.739
420.61
419.026
419.188
419.348
419.506
419.662
419.816
419.967
420.116
420.263
420.406
420.546
420.683
420.816
420.944
421.069
421.188
421.303
421.412
421.516
421.614
421.705
421.79
421.868
421.938
422
422.055
422.101
422.137
422.164
422.182
422.189
422.184
422.17
422.144
422.105
422.054
421.989
421.911
421.818
421.711
421.588
421.449
421.294
421.123
421.154
421.28
421.404
421.526
421.647
421.764
421.879
421.991
422.1
422.206
422.308
422.406
422.499
422.588
422.673
422.752
422.826
422.894
422.955
423.011
423.059
423.101
423.134
423.159
423.177
423.186
423.185
423.174
423.155
423.125
423.082
423.03
422.965
422.888
422.798
422.694
422.577
422.445
422.298
422.136
421.957
421.762
421.55
422.999
423.092
423.184
423.273
423.36
423.444
423.526
423.605
423.68
423.752
423.82
423.884
423.943
423.998
424.048
424.093
424.132
424.165
424.191
424.211
424.225
424.231
424.228
424.217
424.199
424.172
424.135
424.088
424.031
423.964
423.885
423.795
423.693
423.578
423.451
423.309
423.154
422.984
422.798
422.597
422.379
422.144
421.892
424.726
424.788
424.847
424.904
424.959
425.011
425.06
425.106
425.149
425.189
425.223
425.254
425.28
425.301
425.318
425.329
425.334
425.333
425.325
425.311
425.29
425.261
425.224
425.178
425.125
425.062
424.99
424.907
424.815
424.711
424.597
424.47
424.332
424.18
424.016
423.837
423.645
423.437
423.214
422.975
422.719
422.446
422.155
426.371
426.399
426.425
426.448
426.469
426.486
426.501
426.512
426.519
426.522
426.52
426.513
426.502
426.486
426.464
426.436
426.402
426.361
426.313
426.258
426.196
426.125
426.045
425.957
425.86
425.753
425.636
425.508
425.37
425.22
425.058
424.884
424.697
424.496
424.282
424.053
423.809
423.549
423.273
422.98
422.669
422.34
427.845
427.843
427.838
427.831
427.821
427.807
427.791
427.771
427.747
427.718
427.685
427.647
427.604
427.555
427.502
427.442
427.375
427.301
427.221
427.133
427.038
426.933
426.821
426.699
426.569
426.428
426.277
426.115
425.943
425.758
425.562
425.353
425.131
424.896
424.646
424.382
424.102
423.807
423.494
423.165
422.817
422.45
429.213
429.182
429.147
429.11
429.07
429.027
428.98
428.93
428.876
428.816
428.753
428.684
428.61