/*--------------------------------*- C++ -*----------------------------------*\
| =========                 |                                                 |
| \\      /  F ield         | OpenFOAM: The Open Source CFD Toolbox           |
|  \\    /   O peration     | Version:  v1706                                 |
|   \\  /    A nd           | Web:      www.OpenFOAM.com                      |
|    \\/     M anipulation  |                                                 |
\*---------------------------------------------------------------------------*/
FoamFile
{
    version     2.0;
    format      ascii;
    class       volVectorField;
    location    "1e-05";
    object      U;
}
// * * * * * * * * * * * * * * * * * * * * * * * * * * * * * * * * * * * * * //

dimensions      [0 1 -1 0 0 0 0];


internalField   nonuniform List<vector> 
30038
(
(2764.5 -3.70593e-11 9.21183e-15)
(2764.5 -3.81693e-11 1.21147e-15)
(2764.5 -3.80617e-11 9.27472e-15)
(2764.5 -4.07936e-11 1.23856e-15)
(2764.5 -4.29946e-11 5.1434e-15)
(2764.5 -4.26962e-11 4.49083e-15)
(2764.5 -4.03067e-11 7.81664e-15)
(2764.5 -4.40157e-11 1.10163e-14)
(2764.5 -4.30218e-11 3.53685e-15)
(2764.5 -3.94064e-11 9.10718e-16)
(2764.5 -3.74595e-11 1.28745e-14)
(2764.5 -4.02822e-11 7.51265e-15)
(2764.5 -4.03207e-11 4.83579e-15)
(2764.5 -3.89233e-11 3.38313e-15)
(2764.5 -4.32473e-11 3.93904e-15)
(2764.5 -4.38149e-11 9.37481e-15)
(2764.5 -4.94863e-11 6.61838e-15)
(2764.5 -5.15423e-11 3.3209e-15)
(2764.5 -4.87502e-11 1.4902e-15)
(2764.5 -5.11575e-11 9.34381e-15)
(2764.5 -5.29628e-11 6.98956e-15)
(2764.5 -5.37398e-11 9.7489e-15)
(2764.5 -5.54383e-11 -2.21212e-15)
(2764.5 -5.81817e-11 8.7265e-15)
(2764.5 -5.89906e-11 8.97284e-15)
(2764.5 -5.87161e-11 1.60165e-15)
(2764.5 -5.76084e-11 1.28567e-15)
(2764.5 -5.72737e-11 4.76768e-15)
(2764.5 -6.28123e-11 9.25953e-15)
(2764.5 -6.32697e-11 9.22666e-15)
(2764.5 -6.04452e-11 4.22585e-15)
(2764.5 -6.39822e-11 1.15039e-14)
(2764.5 -6.60945e-11 8.192e-15)
(2764.5 -7.07798e-11 5.14508e-15)
(2764.5 -7.52197e-11 1.02718e-14)
(2764.5 -7.91682e-11 9.10964e-15)
(2764.5 -7.5569e-11 9.98248e-16)
(2764.5 -7.85242e-11 4.30753e-15)
(2764.5 -1.16105e-10 2.27135e-14)
(2764.5 -1.12805e-10 1.82628e-14)
(2764.5 -1.14814e-10 2.01117e-14)
(2764.5 -1.09589e-10 1.46119e-14)
(2764.5 -1.12695e-10 2.71055e-14)
(2764.5 -1.17999e-10 2.16804e-14)
(2764.5 -1.18421e-10 2.14255e-14)
(2764.5 -1.22675e-10 2.34973e-14)
(2764.5 -1.25712e-10 1.80163e-14)
(2764.5 -1.33996e-10 1.99815e-14)
(2764.5 -1.29472e-10 2.64814e-14)
(2764.5 -1.27748e-10 1.35859e-14)
(2764.5 -1.34089e-10 1.9341e-14)
(2764.5 -1.30558e-10 1.86418e-14)
(2764.5 -1.32911e-10 1.55175e-14)
(2764.5 -1.33346e-10 1.99946e-14)
(2764.5 -1.29985e-10 1.96047e-14)
(2764.5 -1.37504e-10 2.09648e-14)
(2764.5 -1.38996e-10 1.63243e-14)
(2764.5 -1.40781e-10 1.88978e-14)
(2764.5 -1.43149e-10 1.50098e-14)
(2764.5 -1.44632e-10 1.90105e-14)
(2764.5 -1.43582e-10 2.05902e-14)
(2764.5 -1.46849e-10 2.15573e-14)
(2764.5 -1.48529e-10 1.74032e-14)
(2764.5 -1.54266e-10 1.69911e-14)
(2764.5 -1.61686e-10 1.83776e-14)
(2764.5 -1.62798e-10 1.7481e-14)
(2764.5 -1.60198e-10 1.83041e-14)
(2764.5 -1.7103e-10 2.27985e-14)
(2764.5 -1.75719e-10 1.08459e-14)
(2764.5 -1.77232e-10 2.48417e-14)
(2764.5 -1.82016e-10 3.05881e-14)
(2764.5 -1.79679e-10 2.09857e-14)
(2764.5 -1.84449e-10 2.49195e-14)
(2764.5 -1.89268e-10 1.8726e-14)
(2764.5 -2.03319e-10 1.90445e-14)
(2764.5 -2.10804e-10 2.05792e-14)
(2764.5 -1.85952e-10 3.43083e-14)
(2764.5 -1.8807e-10 3.35263e-14)
(2764.5 -1.94433e-10 3.33071e-14)
(2764.5 -1.93658e-10 3.06573e-14)
(2764.5 -1.92119e-10 3.39432e-14)
(2764.5 -1.94541e-10 3.13821e-14)
(2764.5 -1.93182e-10 3.42337e-14)
(2764.5 -1.94085e-10 2.93407e-14)
(2764.5 -1.98388e-10 3.04261e-14)
(2764.5 -2.07966e-10 3.07701e-14)
(2764.5 -2.14499e-10 2.75409e-14)
(2764.5 -2.15807e-10 3.00232e-14)
(2764.5 -2.17749e-10 3.11641e-14)
(2764.5 -2.17553e-10 3.30145e-14)
(2764.5 -2.17094e-10 2.96672e-14)
(2764.5 -2.19597e-10 3.50274e-14)
(2764.5 -2.23247e-10 3.41351e-14)
(2764.5 -2.2787e-10 3.56591e-14)
(2764.5 -2.31376e-10 3.20309e-14)
(2764.5 -2.3499e-10 3.12213e-14)
(2764.5 -2.3876e-10 2.85584e-14)
(2764.5 -2.42502e-10 3.28977e-14)
(2764.5 -2.46407e-10 3.02274e-14)
(2764.5 -2.51539e-10 2.7997e-14)
(2764.5 -2.51947e-10 3.18074e-14)
(2764.5 -2.54638e-10 3.31277e-14)
(2764.5 -2.59519e-10 3.09297e-14)
(2764.5 -2.6508e-10 2.66895e-14)
(2764.5 -2.66583e-10 2.74328e-14)
(2764.5 -2.69228e-10 3.20764e-14)
(2764.5 -2.74228e-10 3.05616e-14)
(2764.5 -2.76101e-10 3.48577e-14)
(2764.5 -2.8298e-10 3.19364e-14)
(2764.5 -2.84126e-10 3.25019e-14)
(2764.5 -2.91262e-10 3.38531e-14)
(2764.5 -2.91189e-10 3.74347e-14)
(2764.5 -3.06502e-10 3.02747e-14)
(2764.5 -3.17617e-10 3.16615e-14)
(2764.5 -2.51923e-10 4.60968e-14)
(2764.5 -2.50643e-10 4.4159e-14)
(2764.5 -2.60262e-10 4.36963e-14)
(2764.5 -2.65954e-10 4.23503e-14)
(2764.5 -2.66782e-10 5.01367e-14)
(2764.5 -2.69843e-10 4.16562e-14)
(2764.5 -2.74405e-10 4.00401e-14)
(2764.5 -2.75049e-10 4.05865e-14)
(2764.5 -2.76958e-10 4.62901e-14)
(2764.5 -2.80808e-10 3.89871e-14)
(2764.5 -2.88377e-10 4.4697e-14)
(2764.5 -2.95316e-10 4.45257e-14)
(2764.5 -2.9881e-10 4.85199e-14)
(2764.5 -3.00532e-10 3.99664e-14)
(2764.5 -3.02831e-10 3.98482e-14)
(2764.5 -3.06517e-10 4.42775e-14)
(2764.5 -3.07626e-10 3.89682e-14)
(2764.5 -3.09919e-10 4.43476e-14)
(2764.5 -3.14414e-10 4.51257e-14)
(2764.5 -3.20596e-10 4.39888e-14)
(2764.5 -3.25792e-10 4.35559e-14)
(2764.5 -3.29147e-10 4.12026e-14)
(2764.5 -3.32685e-10 4.398e-14)
(2764.5 -3.42526e-10 4.70721e-14)
(2764.5 -3.47712e-10 4.33223e-14)
(2764.5 -3.5162e-10 4.50063e-14)
(2764.5 -3.59939e-10 4.3507e-14)
(2764.5 -3.6306e-10 4.23573e-14)
(2764.5 -3.67758e-10 4.37718e-14)
(2764.5 -3.70595e-10 4.84586e-14)
(2764.5 -3.77971e-10 4.48454e-14)
(2764.5 -3.83054e-10 4.75206e-14)
(2764.5 -3.94306e-10 4.63228e-14)
(2764.5 -3.95743e-10 4.36066e-14)
(2764.5 -4.03054e-10 4.57376e-14)
(2764.5 -4.02984e-10 5.12526e-14)
(2764.5 -4.09676e-10 4.83846e-14)
(2764.5 -4.21535e-10 4.88578e-14)
(2764.5 -3.19177e-10 5.64371e-14)
(2764.5 -3.17723e-10 5.68054e-14)
(2764.5 -3.19371e-10 5.82177e-14)
(2764.5 -3.26923e-10 5.84883e-14)
(2764.5 -3.32126e-10 5.67377e-14)
(2764.5 -3.35586e-10 5.36827e-14)
(2764.5 -3.40361e-10 5.95055e-14)
(2764.5 -3.42232e-10 5.98677e-14)
(2764.5 -3.45239e-10 6.0695e-14)
(2764.5 -3.47878e-10 5.82804e-14)
(2764.5 -3.51703e-10 5.76327e-14)
(2764.5 -3.58919e-10 5.50268e-14)
(2764.5 -3.65554e-10 5.45601e-14)
(2764.5 -3.69627e-10 5.15896e-14)
(2764.5 -3.73418e-10 5.31901e-14)
(2764.5 -3.78162e-10 5.80938e-14)
(2764.5 -3.8297e-10 6.30471e-14)
(2764.5 -3.8721e-10 5.98874e-14)
(2764.5 -3.93025e-10 5.27038e-14)
(2764.5 -3.99955e-10 5.97928e-14)
(2764.5 -4.08021e-10 5.88474e-14)
(2764.5 -4.14661e-10 4.9824e-14)
(2764.5 -4.19507e-10 5.79867e-14)
(2764.5 -4.2828e-10 5.63661e-14)
(2764.5 -4.36278e-10 5.80402e-14)
(2764.5 -4.43377e-10 6.04605e-14)
(2764.5 -4.47458e-10 6.38085e-14)
(2764.5 -4.49771e-10 5.69047e-14)
(2764.5 -4.55993e-10 4.98668e-14)
(2764.5 -4.60977e-10 4.75904e-14)
(2764.5 -4.6809e-10 5.23211e-14)
(2764.5 -4.75164e-10 6.3693e-14)
(2764.5 -4.88463e-10 6.05124e-14)
(2764.5 -4.9898e-10 5.77821e-14)
(2764.5 -5.07709e-10 5.83811e-14)
(2764.5 -5.11434e-10 5.88674e-14)
(2764.5 -5.17276e-10 6.11235e-14)
(2764.5 -5.26154e-10 6.19988e-14)
(2764.5 -3.7488e-10 7.08229e-14)
(2764.5 -3.81967e-10 7.26934e-14)
(2764.5 -3.82655e-10 7.06436e-14)
(2764.5 -3.88566e-10 6.27606e-14)
(2764.5 -3.95496e-10 6.34302e-14)
(2764.5 -4.01527e-10 6.7246e-14)
(2764.5 -4.0616e-10 6.20451e-14)
(2764.5 -4.08949e-10 7.08297e-14)
(2764.5 -4.09676e-10 7.78567e-14)
(2764.5 -4.14193e-10 7.18512e-14)
(2764.5 -4.1763e-10 7.15143e-14)
(2764.5 -4.25179e-10 6.89683e-14)
(2764.5 -4.29006e-10 6.78961e-14)
(2764.5 -4.32924e-10 6.96325e-14)
(2764.5 -4.40657e-10 6.9374e-14)
(2764.5 -4.49181e-10 6.7673e-14)
(2764.5 -4.57092e-10 7.37364e-14)
(2764.5 -4.62455e-10 7.25711e-14)
(2764.5 -4.6696e-10 6.47972e-14)
(2764.5 -4.72215e-10 6.93496e-14)
(2764.5 -4.82668e-10 7.1865e-14)
(2764.5 -4.92443e-10 7.28628e-14)
(2764.5 -4.99099e-10 7.31676e-14)
(2764.5 -5.05595e-10 6.70397e-14)
(2764.5 -5.10887e-10 6.43814e-14)
(2764.5 -5.20102e-10 6.86362e-14)
(2764.5 -5.30194e-10 7.85921e-14)
(2764.5 -5.32448e-10 6.81321e-14)
(2764.5 -5.38951e-10 7.08263e-14)
(2764.5 -5.44538e-10 7.47844e-14)
(2764.5 -5.49712e-10 6.90007e-14)
(2764.5 -5.56181e-10 6.98383e-14)
(2764.5 -5.6735e-10 6.92332e-14)
(2764.5 -5.81459e-10 7.37226e-14)
(2764.5 -5.9576e-10 7.5832e-14)
(2764.5 -6.03875e-10 6.84371e-14)
(2764.5 -6.15155e-10 6.80569e-14)
(2764.5 -6.25944e-10 7.24801e-14)
(2764.5 -4.26931e-10 7.87768e-14)
(2764.5 -4.34395e-10 7.44681e-14)
(2764.5 -4.38944e-10 8.02904e-14)
(2764.5 -4.44381e-10 8.47221e-14)
(2764.5 -4.51119e-10 8.22612e-14)
(2764.5 -4.60815e-10 7.97354e-14)
(2764.5 -4.70931e-10 8.05232e-14)
(2764.5 -4.77933e-10 8.78202e-14)
(2764.5 -4.80294e-10 7.7119e-14)
(2764.5 -4.84661e-10 7.9986e-14)
(2764.5 -4.88509e-10 8.38852e-14)
(2764.5 -4.96461e-10 8.12328e-14)
(2764.5 -5.00731e-10 8.11146e-14)
(2764.5 -5.02809e-10 7.89403e-14)
(2764.5 -5.11537e-10 7.6192e-14)
(2764.5 -5.20208e-10 8.16682e-14)
(2764.5 -5.24764e-10 7.94145e-14)
(2764.5 -5.30287e-10 8.56595e-14)
(2764.5 -5.36404e-10 8.20524e-14)
(2764.5 -5.40223e-10 8.41167e-14)
(2764.5 -5.47041e-10 8.40721e-14)
(2764.5 -5.5525e-10 8.10118e-14)
(2764.5 -5.62414e-10 7.97906e-14)
(2764.5 -5.72935e-10 8.33677e-14)
(2764.5 -5.80109e-10 8.23509e-14)
(2764.5 -5.89006e-10 8.34248e-14)
(2764.5 -6.02634e-10 8.90119e-14)
(2764.5 -6.09294e-10 7.93037e-14)
(2764.5 -6.15029e-10 7.58598e-14)
(2764.5 -6.22713e-10 8.02441e-14)
(2764.5 -6.32213e-10 8.26716e-14)
(2764.5 -6.40065e-10 7.98716e-14)
(2764.5 -6.49572e-10 8.21451e-14)
(2764.5 -6.59619e-10 8.55226e-14)
(2764.5 -6.71063e-10 8.98399e-14)
(2764.5 -6.81321e-10 8.56478e-14)
(2764.5 -6.96316e-10 8.50963e-14)
(2764.5 -7.11378e-10 8.81704e-14)
(2764.5 -4.79246e-10 9.40871e-14)
(2764.5 -4.85386e-10 9.3309e-14)
(2764.5 -4.92966e-10 9.39807e-14)
(2764.5 -5.00384e-10 9.73361e-14)
(2764.5 -5.0631e-10 9.8582e-14)
(2764.5 -5.13595e-10 9.18429e-14)
(2764.5 -5.23478e-10 9.14208e-14)
(2764.5 -5.35731e-10 9.4454e-14)
(2764.5 -5.42262e-10 9.64077e-14)
(2764.5 -5.4565e-10 9.53619e-14)
(2764.5 -5.51124e-10 8.97196e-14)
(2764.5 -5.62105e-10 9.41349e-14)
(2764.5 -5.69881e-10 9.03037e-14)
(2764.5 -5.70382e-10 9.37896e-14)
(2764.5 -5.76508e-10 9.11299e-14)
(2764.5 -5.87828e-10 9.61212e-14)
(2764.5 -5.94841e-10 9.89354e-14)
(2764.5 -5.99876e-10 9.82888e-14)
(2764.5 -6.04047e-10 9.43971e-14)
(2764.5 -6.06989e-10 9.83759e-14)
(2764.5 -6.12887e-10 9.07943e-14)
(2764.5 -6.20624e-10 9.69804e-14)
(2764.5 -6.27037e-10 9.23637e-14)
(2764.5 -6.39076e-10 9.21943e-14)
(2764.5 -6.5115e-10 8.87695e-14)
(2764.5 -6.60197e-10 9.5327e-14)
(2764.5 -6.73203e-10 9.35278e-14)
(2764.5 -6.87575e-10 9.13735e-14)
(2764.5 -6.97582e-10 9.67416e-14)
(2764.5 -7.03797e-10 9.91653e-14)
(2764.5 -7.13521e-10 1.02986e-13)
(2764.5 -7.2434e-10 9.88221e-14)
(2764.5 -7.32379e-10 1.01212e-13)
(2764.5 -7.43298e-10 9.67068e-14)
(2764.5 -7.54612e-10 9.62436e-14)
(2764.5 -7.61811e-10 1.05619e-13)
(2764.5 -7.75251e-10 1.00622e-13)
(2764.5 -7.93537e-10 9.41434e-14)
(2764.5 -5.28844e-10 1.07333e-13)
(2764.5 -5.35406e-10 1.05356e-13)
(2764.5 -5.39846e-10 1.12126e-13)
(2764.5 -5.46736e-10 1.10203e-13)
(2764.5 -5.55929e-10 1.08547e-13)
(2764.5 -5.61436e-10 1.07326e-13)
(2764.5 -5.68106e-10 1.14055e-13)
(2764.5 -5.75916e-10 1.08876e-13)
(2764.5 -5.84009e-10 1.09416e-13)
(2764.5 -5.95304e-10 1.08427e-13)
(2764.5 -6.00157e-10 9.9442e-14)
(2764.5 -6.06061e-10 1.09451e-13)
(2764.5 -6.20475e-10 1.00453e-13)
(2764.5 -6.31496e-10 1.06244e-13)
(2764.5 -6.362e-10 1.08632e-13)
(2764.5 -6.42111e-10 1.08145e-13)
(2764.5 -6.51185e-10 1.11096e-13)
(2764.5 -6.59488e-10 1.05786e-13)
(2764.5 -6.65796e-10 1.05564e-13)
(2764.5 -6.70683e-10 1.05999e-13)
(2764.5 -6.76083e-10 1.06822e-13)
(2764.5 -6.84564e-10 1.06818e-13)
(2764.5 -6.95834e-10 1.0528e-13)
(2764.5 -7.02386e-10 1.02449e-13)
(2764.5 -7.10553e-10 1.05428e-13)
(2764.5 -7.22066e-10 1.06695e-13)
(2764.5 -7.32223e-10 1.09765e-13)
(2764.5 -7.42156e-10 1.06119e-13)
(2764.5 -7.55067e-10 1.07812e-13)
(2764.5 -7.69756e-10 1.07107e-13)
(2764.5 -7.80332e-10 1.10458e-13)
(2764.5 -7.87016e-10 1.10251e-13)
(2764.5 -7.99461e-10 1.12349e-13)
(2764.5 -8.10964e-10 1.08381e-13)
(2764.5 -8.19725e-10 1.1507e-13)
(2764.5 -8.32644e-10 1.1577e-13)
(2764.5 -8.43286e-10 1.12427e-13)
(2764.5 -8.56581e-10 1.09716e-13)
(2764.5 -8.7472e-10 1.09861e-13)
(2764.5 -5.88845e-10 1.21826e-13)
(2764.5 -5.91785e-10 1.15873e-13)
(2764.5 -5.95079e-10 1.15856e-13)
(2764.5 -5.98989e-10 1.23e-13)
(2764.5 -6.08147e-10 1.22633e-13)
(2764.5 -6.18987e-10 1.23379e-13)
(2764.5 -6.2455e-10 1.26677e-13)
(2764.5 -6.30388e-10 1.18419e-13)
(2764.5 -6.35748e-10 1.1774e-13)
(2764.5 -6.44131e-10 1.15265e-13)
(2764.5 -6.52483e-10 1.20366e-13)
(2764.5 -6.58026e-10 1.17274e-13)
(2764.5 -6.67127e-10 1.10918e-13)
(2764.5 -6.7875e-10 1.2139e-13)
(2764.5 -6.89143e-10 1.19395e-13)
(2764.5 -6.99127e-10 1.21164e-13)
(2764.5 -7.11911e-10 1.1353e-13)
(2764.5 -7.25319e-10 1.19964e-13)
(2764.5 -7.37626e-10 1.18909e-13)
(2764.5 -7.4431e-10 1.20913e-13)
(2764.5 -7.50373e-10 1.17557e-13)
(2764.5 -7.57141e-10 1.1599e-13)
(2764.5 -7.68021e-10 1.15441e-13)
(2764.5 -7.77186e-10 1.17664e-13)
(2764.5 -7.862e-10 1.21779e-13)
(2764.5 -7.9434e-10 1.19585e-13)
(2764.5 -8.02058e-10 1.22095e-13)
(2764.5 -8.11321e-10 1.17734e-13)
(2764.5 -8.23811e-10 1.15467e-13)
(2764.5 -8.37165e-10 1.22166e-13)
(2764.5 -8.49948e-10 1.23373e-13)
(2764.5 -8.58531e-10 1.2252e-13)
(2764.5 -8.65686e-10 1.23654e-13)
(2764.5 -8.78891e-10 1.2262e-13)
(2764.5 -8.92519e-10 1.25185e-13)
(2764.5 -9.05501e-10 1.23859e-13)
(2764.5 -9.19415e-10 1.18556e-13)
(2764.5 -9.35672e-10 1.23686e-13)
(2764.5 -9.56847e-10 1.25456e-13)
(2764.5 -6.50276e-10 1.33831e-13)
(2764.5 -6.50756e-10 1.37734e-13)
(2764.5 -6.54387e-10 1.32589e-13)
(2764.5 -6.55845e-10 1.34007e-13)
(2764.5 -6.62143e-10 1.28943e-13)
(2764.5 -6.70927e-10 1.29154e-13)
(2764.5 -6.82091e-10 1.34976e-13)
(2764.5 -6.91497e-10 1.37224e-13)
(2764.5 -6.98173e-10 1.29433e-13)
(2764.5 -7.04869e-10 1.31023e-13)
(2764.5 -7.12734e-10 1.30223e-13)
(2764.5 -7.20603e-10 1.31896e-13)
(2764.5 -7.29594e-10 1.30093e-13)
(2764.5 -7.35039e-10 1.23941e-13)
(2764.5 -7.46194e-10 1.32855e-13)
(2764.5 -7.59293e-10 1.37296e-13)
(2764.5 -7.71812e-10 1.39424e-13)
(2764.5 -7.84456e-10 1.36946e-13)
(2764.5 -7.97332e-10 1.30173e-13)
(2764.5 -8.06426e-10 1.30596e-13)
(2764.5 -8.13493e-10 1.33339e-13)
(2764.5 -8.23425e-10 1.35074e-13)
(2764.5 -8.3242e-10 1.3167e-13)
(2764.5 -8.41778e-10 1.3173e-13)
(2764.5 -8.52493e-10 1.31603e-13)
(2764.5 -8.62294e-10 1.35121e-13)
(2764.5 -8.70728e-10 1.29774e-13)
(2764.5 -8.80433e-10 1.27376e-13)
(2764.5 -8.91113e-10 1.33821e-13)
(2764.5 -9.02049e-10 1.37033e-13)
(2764.5 -9.12038e-10 1.37849e-13)
(2764.5 -9.23747e-10 1.33318e-13)
(2764.5 -9.3131e-10 1.33594e-13)
(2764.5 -9.42045e-10 1.33305e-13)
(2764.5 -9.52793e-10 1.34078e-13)
(2764.5 -9.70012e-10 1.34093e-13)
(2764.5 -9.81268e-10 1.3602e-13)
(2764.5 -1.00759e-09 1.38785e-13)
(2764.5 -1.02082e-09 1.35741e-13)
(2764.5 -7.18456e-10 1.50855e-13)
(2764.5 -7.13318e-10 1.47379e-13)
(2764.5 -7.08939e-10 1.40697e-13)
(2764.5 -7.11728e-10 1.45627e-13)
(2764.5 -7.15431e-10 1.45711e-13)
(2764.5 -7.19624e-10 1.48437e-13)
(2764.5 -7.25929e-10 1.46515e-13)
(2764.5 -7.37071e-10 1.47622e-13)
(2764.5 -7.48948e-10 1.45441e-13)
(2764.5 -7.58407e-10 1.48472e-13)
(2764.5 -7.68417e-10 1.46931e-13)
(2764.5 -7.75721e-10 1.46346e-13)
(2764.5 -7.82211e-10 1.4516e-13)
(2764.5 -7.93066e-10 1.38253e-13)
(2764.5 -8.00089e-10 1.44156e-13)
(2764.5 -8.06915e-10 1.47376e-13)
(2764.5 -8.18709e-10 1.43325e-13)
(2764.5 -8.28262e-10 1.44731e-13)
(2764.5 -8.40133e-10 1.45718e-13)
(2764.5 -8.51465e-10 1.46441e-13)
(2764.5 -8.60078e-10 1.40516e-13)
(2764.5 -8.68192e-10 1.4109e-13)
(2764.5 -8.78883e-10 1.42069e-13)
(2764.5 -8.90488e-10 1.39235e-13)
(2764.5 -9.02213e-10 1.40875e-13)
(2764.5 -9.14284e-10 1.4907e-13)
(2764.5 -9.25856e-10 1.45646e-13)
(2764.5 -9.3478e-10 1.38507e-13)
(2764.5 -9.44522e-10 1.45626e-13)
(2764.5 -9.52573e-10 1.44675e-13)
(2764.5 -9.5968e-10 1.48028e-13)
(2764.5 -9.68426e-10 1.44944e-13)
(2764.5 -9.80839e-10 1.44857e-13)
(2764.5 -9.92747e-10 1.46431e-13)
(2764.5 -1.00492e-09 1.49943e-13)
(2764.5 -1.01383e-09 1.51488e-13)
(2764.5 -1.03025e-09 1.48002e-13)
(2764.5 -1.03784e-09 1.53587e-13)
(2764.5 -1.06474e-09 1.44004e-13)
(2764.5 -1.07208e-09 1.54142e-13)
(2764.5 -7.73476e-10 1.62643e-13)
(2764.5 -7.7726e-10 1.62709e-13)
(2764.5 -7.72341e-10 1.65174e-13)
(2764.5 -7.69338e-10 1.5718e-13)
(2764.5 -7.71571e-10 1.58494e-13)
(2764.5 -7.74924e-10 1.58924e-13)
(2764.5 -7.77804e-10 1.60551e-13)
(2764.5 -7.87106e-10 1.60649e-13)
(2764.5 -8.02033e-10 1.58724e-13)
(2764.5 -8.14806e-10 1.63045e-13)
(2764.5 -8.27022e-10 1.55347e-13)
(2764.5 -8.3574e-10 1.55839e-13)
(2764.5 -8.3923e-10 1.55881e-13)
(2764.5 -8.46919e-10 1.54586e-13)
(2764.5 -8.54146e-10 1.55241e-13)
(2764.5 -8.62029e-10 1.56371e-13)
(2764.5 -8.73114e-10 1.55477e-13)
(2764.5 -8.81661e-10 1.49711e-13)
(2764.5 -8.91598e-10 1.53061e-13)
(2764.5 -9.03871e-10 1.51455e-13)
(2764.5 -9.14437e-10 1.53752e-13)
(2764.5 -9.24807e-10 1.55697e-13)
(2764.5 -9.36167e-10 1.59795e-13)
(2764.5 -9.45933e-10 1.58626e-13)
(2764.5 -9.58945e-10 1.54022e-13)
(2764.5 -9.7311e-10 1.55194e-13)
(2764.5 -9.86943e-10 1.54769e-13)
(2764.5 -9.98221e-10 1.5517e-13)
(2764.5 -1.00988e-09 1.54123e-13)
(2764.5 -1.0205e-09 1.56181e-13)
(2764.5 -1.02643e-09 1.57954e-13)
(2764.5 -1.03409e-09 1.58668e-13)
(2764.5 -1.04566e-09 1.58497e-13)
(2764.5 -1.05563e-09 1.59329e-13)
(2764.5 -1.0662e-09 1.63977e-13)
(2764.5 -1.07334e-09 1.56628e-13)
(2764.5 -1.08895e-09 1.56081e-13)
(2764.5 -1.09531e-09 1.61753e-13)
(2764.5 -1.11842e-09 1.59164e-13)
(2764.5 -1.12954e-09 1.56709e-13)
(2764.5 -8.22359e-10 1.76174e-13)
(2764.5 -8.32966e-10 1.71065e-13)
(2764.5 -8.39044e-10 1.71411e-13)
(2764.5 -8.3949e-10 1.71886e-13)
(2764.5 -8.37234e-10 1.73906e-13)
(2764.5 -8.37574e-10 1.78477e-13)
(2764.5 -8.38502e-10 1.72289e-13)
(2764.5 -8.41246e-10 1.65846e-13)
(2764.5 -8.51245e-10 1.71028e-13)
(2764.5 -8.65294e-10 1.75771e-13)
(2764.5 -8.79923e-10 1.68556e-13)
(2764.5 -8.90994e-10 1.74426e-13)
(2764.5 -8.94832e-10 1.7577e-13)
(2764.5 -9.00262e-10 1.70455e-13)
(2764.5 -9.07461e-10 1.71815e-13)
(2764.5 -9.13689e-10 1.65534e-13)
(2764.5 -9.20447e-10 1.62458e-13)
(2764.5 -9.2973e-10 1.63187e-13)
(2764.5 -9.40273e-10 1.65347e-13)
(2764.5 -9.53865e-10 1.64421e-13)
(2764.5 -9.68849e-10 1.75731e-13)
(2764.5 -9.82651e-10 1.72149e-13)
(2764.5 -9.9888e-10 1.69036e-13)
(2764.5 -1.01215e-09 1.6882e-13)
(2764.5 -1.02326e-09 1.69182e-13)
(2764.5 -1.03376e-09 1.67283e-13)
(2764.5 -1.04498e-09 1.68611e-13)
(2764.5 -1.05574e-09 1.62149e-13)
(2764.5 -1.0683e-09 1.74858e-13)
(2764.5 -1.08026e-09 1.74972e-13)
(2764.5 -1.08988e-09 1.68165e-13)
(2764.5 -1.09618e-09 1.66069e-13)
(2764.5 -1.10751e-09 1.63329e-13)
(2764.5 -1.11727e-09 1.67612e-13)
(2764.5 -1.12881e-09 1.72613e-13)
(2764.5 -1.137e-09 1.73246e-13)
(2764.5 -1.14831e-09 1.7001e-13)
(2764.5 -1.15447e-09 1.69474e-13)
(2764.5 -1.17647e-09 1.74345e-13)
(2764.5 -1.18763e-09 1.80851e-13)
(2764.5 -8.69267e-10 1.888e-13)
(2764.5 -8.80236e-10 1.89725e-13)
(2764.5 -8.92596e-10 1.913e-13)
(2764.5 -9.00413e-10 1.85083e-13)
(2764.5 -9.02789e-10 1.82682e-13)
(2764.5 -9.00614e-10 1.86816e-13)
(2764.5 -8.99434e-10 1.90847e-13)
(2764.5 -8.98798e-10 1.79707e-13)
(2764.5 -9.03053e-10 1.8119e-13)
(2764.5 -9.1336e-10 1.88057e-13)
(2764.5 -9.27468e-10 1.81258e-13)
(2764.5 -9.39848e-10 1.87689e-13)
(2764.5 -9.49474e-10 1.85503e-13)
(2764.5 -9.55614e-10 1.78622e-13)
(2764.5 -9.62965e-10 1.82117e-13)
(2764.5 -9.70929e-10 1.82507e-13)
(2764.5 -9.74405e-10 1.76359e-13)
(2764.5 -9.78441e-10 1.78257e-13)
(2764.5 -9.85314e-10 1.7963e-13)
(2764.5 -9.96869e-10 1.8362e-13)
(2764.5 -1.01297e-09 1.87206e-13)
(2764.5 -1.03156e-09 1.79536e-13)
(2764.5 -1.05036e-09 1.82744e-13)
(2764.5 -1.06644e-09 1.85581e-13)
(2764.5 -1.07994e-09 1.77965e-13)
(2764.5 -1.08959e-09 1.85431e-13)
(2764.5 -1.09907e-09 1.79641e-13)
(2764.5 -1.1107e-09 1.78915e-13)
(2764.5 -1.12464e-09 1.82284e-13)
(2764.5 -1.13722e-09 1.75588e-13)
(2764.5 -1.14946e-09 1.80266e-13)
(2764.5 -1.15799e-09 1.82451e-13)
(2764.5 -1.16776e-09 1.82655e-13)
(2764.5 -1.17635e-09 1.7691e-13)
(2764.5 -1.18585e-09 1.82502e-13)
(2764.5 -1.19317e-09 1.82595e-13)
(2764.5 -1.20481e-09 1.82686e-13)
(2764.5 -1.21008e-09 1.84497e-13)
(2764.5 -1.22889e-09 1.83793e-13)
(2764.5 -1.23946e-09 1.79892e-13)
(2764.5 -9.14155e-10 2.00015e-13)
(2764.5 -9.22376e-10 2.01586e-13)
(2764.5 -9.34971e-10 2.0004e-13)
(2764.5 -9.45636e-10 1.99841e-13)
(2764.5 -9.56487e-10 1.98751e-13)
(2764.5 -9.61571e-10 1.92553e-13)
(2764.5 -9.62121e-10 1.958e-13)
(2764.5 -9.63883e-10 1.95508e-13)
(2764.5 -9.6637e-10 1.96601e-13)
(2764.5 -9.71994e-10 1.96456e-13)
(2764.5 -9.81659e-10 1.93458e-13)
(2764.5 -9.9033e-10 1.9683e-13)
(2764.5 -1.00013e-09 1.92085e-13)
(2764.5 -1.00856e-09 1.90495e-13)
(2764.5 -1.01633e-09 1.94292e-13)
(2764.5 -1.02664e-09 1.94925e-13)
(2764.5 -1.0337e-09 1.9493e-13)
(2764.5 -1.0383e-09 1.95385e-13)
(2764.5 -1.04215e-09 1.90832e-13)
(2764.5 -1.04808e-09 1.92508e-13)
(2764.5 -1.05939e-09 1.93333e-13)
(2764.5 -1.07566e-09 1.92382e-13)
(2764.5 -1.09362e-09 1.91124e-13)
(2764.5 -1.11284e-09 1.92118e-13)
(2764.5 -1.12936e-09 1.90939e-13)
(2764.5 -1.14264e-09 1.89914e-13)
(2764.5 -1.15473e-09 1.90927e-13)
(2764.5 -1.16594e-09 1.93623e-13)
(2764.5 -1.17798e-09 1.87842e-13)
(2764.5 -1.18998e-09 1.94391e-13)
(2764.5 -1.20299e-09 1.92484e-13)
(2764.5 -1.21425e-09 1.99413e-13)
(2764.5 -1.22524e-09 1.95591e-13)
(2764.5 -1.23502e-09 1.91526e-13)
(2764.5 -1.24566e-09 1.94455e-13)
(2764.5 -1.24989e-09 1.98757e-13)
(2764.5 -1.25881e-09 1.98884e-13)
(2764.5 -1.26439e-09 1.97156e-13)
(2764.5 -1.28339e-09 1.95015e-13)
(2764.5 -1.29241e-09 1.98707e-13)
(2764.5 -9.6205e-10 2.14264e-13)
(2764.5 -9.67001e-10 2.1238e-13)
(2764.5 -9.75141e-10 2.13357e-13)
(2764.5 -9.87842e-10 2.10198e-13)
(2764.5 -1.00043e-09 2.07807e-13)
(2764.5 -1.01242e-09 2.13509e-13)
(2764.5 -1.01779e-09 2.16837e-13)
(2764.5 -1.01916e-09 2.09955e-13)
(2764.5 -1.02161e-09 2.08109e-13)
(2764.5 -1.02946e-09 2.10983e-13)
(2764.5 -1.03814e-09 2.09241e-13)
(2764.5 -1.04515e-09 2.10908e-13)
(2764.5 -1.05105e-09 2.06025e-13)
(2764.5 -1.05952e-09 2.04182e-13)
(2764.5 -1.06856e-09 2.09872e-13)
(2764.5 -1.07794e-09 2.04996e-13)
(2764.5 -1.08667e-09 2.02728e-13)
(2764.5 -1.09542e-09 2.09986e-13)
(2764.5 -1.10252e-09 2.09238e-13)
(2764.5 -1.11081e-09 2.03877e-13)
(2764.5 -1.12123e-09 2.05055e-13)
(2764.5 -1.13313e-09 1.97915e-13)
(2764.5 -1.14441e-09 2.03441e-13)
(2764.5 -1.15875e-09 2.07627e-13)
(2764.5 -1.17564e-09 2.09059e-13)
(2764.5 -1.19242e-09 2.09767e-13)
(2764.5 -1.2049e-09 2.0412e-13)
(2764.5 -1.2165e-09 2.044e-13)
(2764.5 -1.22681e-09 2.01705e-13)
(2764.5 -1.23758e-09 2.06841e-13)
(2764.5 -1.25027e-09 2.05288e-13)
(2764.5 -1.2638e-09 2.02677e-13)
(2764.5 -1.27876e-09 2.04782e-13)
(2764.5 -1.28977e-09 2.08037e-13)
(2764.5 -1.30207e-09 2.01681e-13)
(2764.5 -1.31008e-09 2.04133e-13)
(2764.5 -1.32043e-09 2.06313e-13)
(2764.5 -1.32374e-09 2.03727e-13)
(2764.5 -1.33824e-09 2.03829e-13)
(2764.5 -1.34327e-09 2.08251e-13)
(2764.5 -1.01804e-09 2.30224e-13)
(2764.5 -1.02443e-09 2.28364e-13)
(2764.5 -1.02735e-09 2.26488e-13)
(2764.5 -1.0322e-09 2.21955e-13)
(2764.5 -1.04213e-09 2.2546e-13)
(2764.5 -1.05368e-09 2.22006e-13)
(2764.5 -1.06374e-09 2.23538e-13)
(2764.5 -1.07191e-09 2.21611e-13)
(2764.5 -1.07209e-09 2.26371e-13)
(2764.5 -1.07392e-09 2.24615e-13)
(2764.5 -1.08243e-09 2.18124e-13)
(2764.5 -1.09219e-09 2.20855e-13)
(2764.5 -1.10117e-09 2.1898e-13)
(2764.5 -1.11091e-09 2.21474e-13)
(2764.5 -1.12268e-09 2.21376e-13)
(2764.5 -1.13558e-09 2.23351e-13)
(2764.5 -1.14705e-09 2.26647e-13)
(2764.5 -1.15491e-09 2.22208e-13)
(2764.5 -1.16022e-09 2.22823e-13)
(2764.5 -1.16648e-09 2.26737e-13)
(2764.5 -1.17554e-09 2.20283e-13)
(2764.5 -1.18686e-09 2.17084e-13)
(2764.5 -1.19864e-09 2.20419e-13)
(2764.5 -1.20881e-09 2.15694e-13)
(2764.5 -1.22126e-09 2.17659e-13)
(2764.5 -1.23769e-09 2.15485e-13)
(2764.5 -1.25256e-09 2.1461e-13)
(2764.5 -1.26632e-09 2.18369e-13)
(2764.5 -1.2785e-09 2.12706e-13)
(2764.5 -1.29051e-09 2.13813e-13)
(2764.5 -1.30277e-09 2.17352e-13)
(2764.5 -1.31347e-09 2.17644e-13)
(2764.5 -1.32687e-09 2.20388e-13)
(2764.5 -1.3411e-09 2.16472e-13)
(2764.5 -1.35623e-09 2.15437e-13)
(2764.5 -1.36893e-09 2.18698e-13)
(2764.5 -1.38073e-09 2.20034e-13)
(2764.5 -1.38489e-09 2.19105e-13)
(2764.5 -1.39759e-09 2.19186e-13)
(2764.5 -1.40126e-09 2.21682e-13)
(2764.5 -1.05891e-09 2.41026e-13)
(2764.5 -1.06546e-09 2.44018e-13)
(2764.5 -1.07455e-09 2.39795e-13)
(2764.5 -1.07991e-09 2.38227e-13)
(2764.5 -1.08119e-09 2.42021e-13)
(2764.5 -1.08524e-09 2.35815e-13)
(2764.5 -1.09458e-09 2.37343e-13)
(2764.5 -1.10298e-09 2.37115e-13)
(2764.5 -1.1135e-09 2.31049e-13)
(2764.5 -1.12058e-09 2.35229e-13)
(2764.5 -1.12779e-09 2.34804e-13)
(2764.5 -1.13694e-09 2.31951e-13)
(2764.5 -1.14823e-09 2.30745e-13)
(2764.5 -1.15785e-09 2.33497e-13)
(2764.5 -1.16747e-09 2.34272e-13)
(2764.5 -1.17614e-09 2.31545e-13)
(2764.5 -1.18686e-09 2.38554e-13)
(2764.5 -1.19894e-09 2.34316e-13)
(2764.5 -1.20845e-09 2.28913e-13)
(2764.5 -1.21297e-09 2.29617e-13)
(2764.5 -1.21695e-09 2.32475e-13)
(2764.5 -1.2232e-09 2.28474e-13)
(2764.5 -1.23325e-09 2.30661e-13)
(2764.5 -1.2451e-09 2.31302e-13)
(2764.5 -1.25549e-09 2.25161e-13)
(2764.5 -1.26829e-09 2.30729e-13)
(2764.5 -1.28504e-09 2.3189e-13)
(2764.5 -1.30332e-09 2.28941e-13)
(2764.5 -1.3194e-09 2.28699e-13)
(2764.5 -1.33134e-09 2.3091e-13)
(2764.5 -1.34233e-09 2.35405e-13)
(2764.5 -1.35434e-09 2.24175e-13)
(2764.5 -1.36375e-09 2.26937e-13)
(2764.5 -1.37331e-09 2.3639e-13)
(2764.5 -1.38772e-09 2.28496e-13)
(2764.5 -1.40767e-09 2.30028e-13)
(2764.5 -1.42326e-09 2.3325e-13)
(2764.5 -1.44051e-09 2.35644e-13)
(2764.5 -1.44387e-09 2.29792e-13)
(2764.5 -1.45797e-09 2.32143e-13)
(2764.5 -1.4588e-09 2.315e-13)
(2764.5 -1.10498e-09 2.57555e-13)
(2764.5 -1.1111e-09 2.60927e-13)
(2764.5 -1.11902e-09 2.51228e-13)
(2764.5 -1.1263e-09 2.51928e-13)
(2764.5 -1.12939e-09 2.55079e-13)
(2764.5 -1.13277e-09 2.5065e-13)
(2764.5 -1.14021e-09 2.49039e-13)
(2764.5 -1.14986e-09 2.45859e-13)
(2764.5 -1.1607e-09 2.48209e-13)
(2764.5 -1.16894e-09 2.51479e-13)
(2764.5 -1.17826e-09 2.47111e-13)
(2764.5 -1.18929e-09 2.44771e-13)
(2764.5 -1.20322e-09 2.46185e-13)
(2764.5 -1.21042e-09 2.46675e-13)
(2764.5 -1.21848e-09 2.44931e-13)
(2764.5 -1.22679e-09 2.44614e-13)
(2764.5 -1.23745e-09 2.47231e-13)
(2764.5 -1.24881e-09 2.45745e-13)
(2764.5 -1.25877e-09 2.44839e-13)
(2764.5 -1.26623e-09 2.45064e-13)
(2764.5 -1.27199e-09 2.42416e-13)
(2764.5 -1.27728e-09 2.48782e-13)
(2764.5 -1.28234e-09 2.44667e-13)
(2764.5 -1.29233e-09 2.30613e-13)
(2764.5 -1.30488e-09 2.36631e-13)
(2764.5 -1.31865e-09 2.4665e-13)
(2764.5 -1.33569e-09 2.39554e-13)
(2764.5 -1.35347e-09 2.39498e-13)
(2764.5 -1.37025e-09 2.38923e-13)
(2764.5 -1.38499e-09 2.40904e-13)
(2764.5 -1.39916e-09 2.38798e-13)
(2764.5 -1.40987e-09 2.38017e-13)
(2764.5 -1.42207e-09 2.46295e-13)
(2764.5 -1.43463e-09 2.44411e-13)
(2764.5 -1.44928e-09 2.49762e-13)
(2764.5 -1.46178e-09 2.49618e-13)
(2764.5 -1.48203e-09 2.43535e-13)
(2764.5 -1.49784e-09 2.42511e-13)
(2764.5 -1.51501e-09 2.49704e-13)
(2764.5 -1.50771e-09 2.48894e-13)
(2764.5 -1.50275e-09 2.45153e-13)
(2764.5 -1.14284e-09 2.74631e-13)
(2764.5 -1.14954e-09 2.7834e-13)
(2764.5 -1.15731e-09 2.65722e-13)
(2764.5 -1.16382e-09 2.65363e-13)
(2764.5 -1.17237e-09 2.671e-13)
(2764.5 -1.17706e-09 2.65013e-13)
(2764.5 -1.18165e-09 2.61127e-13)
(2764.5 -1.18631e-09 2.6377e-13)
(2764.5 -1.19498e-09 2.62005e-13)
(2764.5 -1.20717e-09 2.6443e-13)
(2764.5 -1.21716e-09 2.65811e-13)
(2764.5 -1.22621e-09 2.5786e-13)
(2764.5 -1.23517e-09 2.57038e-13)
(2764.5 -1.25124e-09 2.57198e-13)
(2764.5 -1.26155e-09 2.57666e-13)
(2764.5 -1.26764e-09 2.61457e-13)
(2764.5 -1.27522e-09 2.67129e-13)
(2764.5 -1.28333e-09 2.60939e-13)
(2764.5 -1.29237e-09 2.56322e-13)
(2764.5 -1.30127e-09 2.53866e-13)
(2764.5 -1.31045e-09 2.54489e-13)
(2764.5 -1.31994e-09 2.55876e-13)
(2764.5 -1.32819e-09 2.52812e-13)
(2764.5 -1.33377e-09 2.48043e-13)
(2764.5 -1.34144e-09 2.56816e-13)
(2764.5 -1.35441e-09 2.58393e-13)
(2764.5 -1.36774e-09 2.57321e-13)
(2764.5 -1.38303e-09 2.55103e-13)
(2764.5 -1.39924e-09 2.54938e-13)
(2764.5 -1.41469e-09 2.53262e-13)
(2764.5 -1.4316e-09 2.55777e-13)
(2764.5 -1.44969e-09 2.62716e-13)
(2764.5 -1.46649e-09 2.56692e-13)
(2764.5 -1.47832e-09 2.50036e-13)
(2764.5 -1.49209e-09 2.51066e-13)
(2764.5 -1.50518e-09 2.5292e-13)
(2764.5 -1.52597e-09 2.53463e-13)
(2764.5 -1.52923e-09 2.52568e-13)
(2764.5 -1.53673e-09 2.57815e-13)
(2764.5 -1.49625e-09 2.62872e-13)
(2764.5 -1.55624e-09 2.53397e-13)
(2764.5 -1.50847e-09 2.54371e-13)
(2764.5 -1.18062e-09 2.8862e-13)
(2764.5 -1.18728e-09 2.82296e-13)
(2764.5 -1.19342e-09 2.80788e-13)
(2764.5 -1.201e-09 2.81506e-13)
(2764.5 -1.20554e-09 2.836e-13)
(2764.5 -1.2139e-09 2.79492e-13)
(2764.5 -1.2204e-09 2.7902e-13)
(2764.5 -1.22686e-09 2.77687e-13)
(2764.5 -1.23319e-09 2.7649e-13)
(2764.5 -1.23991e-09 2.77232e-13)
(2764.5 -1.25017e-09 2.79253e-13)
(2764.5 -1.25867e-09 2.74349e-13)
(2764.5 -1.26878e-09 2.67414e-13)
(2764.5 -1.28033e-09 2.70337e-13)
(2764.5 -1.29425e-09 2.73042e-13)
(2764.5 -1.30593e-09 2.70937e-13)
(2764.5 -1.31184e-09 2.7345e-13)
(2764.5 -1.31912e-09 2.6904e-13)
(2764.5 -1.32821e-09 2.67326e-13)
(2764.5 -1.3379e-09 2.65238e-13)
(2764.5 -1.3463e-09 2.66481e-13)
(2764.5 -1.35331e-09 2.69111e-13)
(2764.5 -1.36476e-09 2.6734e-13)
(2764.5 -1.37594e-09 2.61357e-13)
(2764.5 -1.38291e-09 2.68385e-13)
(2764.5 -1.38944e-09 2.70334e-13)
(2764.5 -1.40106e-09 2.63967e-13)
(2764.5 -1.41497e-09 2.64822e-13)
(2764.5 -1.43073e-09 2.66095e-13)
(2764.5 -1.44696e-09 2.65457e-13)
(2764.5 -1.46165e-09 2.66226e-13)
(2764.5 -1.4793e-09 2.66515e-13)
(2764.5 -1.49937e-09 2.64375e-13)
(2764.5 -1.51951e-09 2.59951e-13)
(2764.5 -1.54049e-09 2.63969e-13)
(2764.5 -1.54216e-09 2.64949e-13)
(2764.5 -1.54134e-09 2.60847e-13)