/*--------------------------------*- C++ -*----------------------------------*\
| =========                 |                                                 |
| \\      /  F ield         | OpenFOAM: The Open Source CFD Toolbox           |
|  \\    /   O peration     | Version:  v1706                                 |
|   \\  /    A nd           | Web:      www.OpenFOAM.com                      |
|    \\/     M anipulation  |                                                 |
\*---------------------------------------------------------------------------*/
FoamFile
{
    version     2.0;
    format      ascii;
    class       volScalarField;
    location    "1e-05";
    object      wallHeatFlux;
}
// * * * * * * * * * * * * * * * * * * * * * * * * * * * * * * * * * * * * * //

dimensions      [1 0 -3 0 0 0 0];


internalField   uniform 0;

boundaryField
{
    cone
    {
        type            calculated;
        value           nonuniform List<scalar> 
153
(
403751
398325
392922
387541
382183
376850
371542
366259
361003
355774
350573
345400
340257
335142
330059
325006
319984
314995
310038
305114
300223
295366
290543
285753
280996
276273
271583
266926
262302
257712
253153
248627
244132
239669
235237
230838
226466
222122
217806
213518
209252
205008
200791
196614
192468
188332
184187
179898
175508
171320
167393
163710
160232
156938
153817
150860
148063
145420
142926
140577
138366
136286
134327
132477
130722
129048
127436
125865
124316
122767
121198
119592
117931
116203
114399
112520
110571
108567
106532
104495
102498
100588
98820.7
97250.5
95914.2
94837.9
94038.9
93530.3
93342.7
93512.6
94059.8
94997.6
96323.5
98024.1
100076
102445
105085
107939
110933
113986
117002
119881
122519
124811
126666
128009
128792
128958
128479
127370
125663
123426
120751
117755
114571
111345
108221
105339
102820
100772
99293.2
98450.5
98214
98521.2
99382.5
100760
102552
104616
106774
108806
110446
111394
111327
109955
107020
102390
96098.8
88375.5
79634.6
70406.4
61239.9
52602.9
44815.5
38037.3
32293
27517.9
23599.6
20410.2
17825.5
15735.1
14045.2
12679.2
11575.1
)
;
    }
    inlet
    {
        type            calculated;
        value           uniform 0;
    }
    rWedge
    {
        type            wedge;
    }
    lWedge
    {
        type            wedge;
    }
    outlet
    {
        type            calculated;
        value           nonuniform 0();
    }
    procBoundary2to0
    {
        type            processor;
        value           uniform 0;
    }
    procBoundary2to1
    {
        type            processor;
        value           uniform 0;
    }
    procBoundary2to3
    {
        type            processor;
        value           uniform 0;
    }
}


// ************************************************************************* //
