# Cp ()      
# Time       	patch        	min          	max          	average      
0            	cone	1.121586e-02	1.121586e-02	1.121586e-02
