/*--------------------------------*- C++ -*----------------------------------*\
| =========                 |                                                 |
| \\      /  F ield         | OpenFOAM: The Open Source CFD Toolbox           |
|  \\    /   O peration     | Version:  v1706                                 |
|   \\  /    A nd           | Web:      www.OpenFOAM.com                      |
|    \\/     M anipulation  |                                                 |
\*---------------------------------------------------------------------------*/
FoamFile
{
    version     2.0;
    format      ascii;
    class       volVectorField;
    location    "1.1e-05";
    object      U;
}
// * * * * * * * * * * * * * * * * * * * * * * * * * * * * * * * * * * * * * //

dimensions      [0 1 -1 0 0 0 0];


internalField   nonuniform List<vector> 
29987
(
(2764.5 -2.08818e-08 4.07654e-11)
(2764.5 -6.56214e-09 1.19988e-11)
(2764.5 -3.16043e-09 5.81626e-12)
(2764.5 -1.95439e-09 3.49856e-12)
(2764.5 -1.33515e-09 2.33149e-12)
(2764.5 -9.67898e-10 1.69459e-12)
(2764.5 -7.3029e-10 1.28727e-12)
(2764.5 -5.70714e-10 1.01185e-12)
(2764.5 -4.63585e-10 8.09178e-13)
(2764.5 -3.80773e-10 6.94788e-13)
(2764.5 -3.19369e-10 5.18982e-13)
(2764.5 -2.749e-10 4.59757e-13)
(2764.5 -2.35415e-10 4.23391e-13)
(2764.5 -2.05661e-10 3.50491e-13)
(2764.5 -1.82109e-10 3.09838e-13)
(2764.5 -1.66618e-10 2.60482e-13)
(2764.5 -1.46214e-10 2.26067e-13)
(2764.5 -1.33948e-10 1.92085e-13)
(2764.5 -1.19102e-10 1.84186e-13)
(2764.5 -1.12739e-10 1.72452e-13)
(2764.5 -1.00658e-10 1.66315e-13)
(2764.5 -9.58503e-11 1.41757e-13)
(2764.5 -8.62467e-11 1.34356e-13)
(2764.5 -8.26149e-11 1.12606e-13)
(2764.5 -7.64904e-11 1.16258e-13)
(2764.5 -7.33088e-11 1.10795e-13)
(2764.5 -6.5932e-11 8.95372e-14)
(2764.5 -6.51398e-11 8.01315e-14)
(2764.5 -5.88208e-11 8.96588e-14)
(2764.5 -5.83402e-11 8.0983e-14)
(2764.5 -5.54765e-11 8.48757e-14)
(2764.5 -5.60477e-11 7.40928e-14)
(2764.5 -4.86056e-11 6.67522e-14)
(2764.5 -5.03474e-11 6.06201e-14)
(2764.5 -4.50853e-11 6.32845e-14)
(2764.5 -4.82043e-11 5.56115e-14)
(2764.5 -4.30185e-11 5.44598e-14)
(2764.5 -3.93525e-11 4.35919e-14)
(2764.5 -3.97308e-11 4.25285e-14)
(2764.5 -4.04037e-11 4.72545e-14)
(2764.5 -3.80032e-11 3.54401e-14)
(2764.5 -3.50304e-11 3.75337e-14)
(2764.5 -3.76155e-11 4.495e-14)
(2764.5 -3.70701e-11 3.8217e-14)
(2764.5 -3.49089e-11 3.85319e-14)
(2764.5 -3.18904e-11 3.19995e-14)
(2764.5 -3.31387e-11 4.63526e-14)
(2764.5 -3.21973e-11 3.25787e-14)
(2764.5 -3.02197e-11 2.9507e-14)
(2764.5 -3.17271e-11 3.29439e-14)
(2764.5 -2.93613e-11 3.10199e-14)
(2764.5 -2.93611e-11 2.97823e-14)
(2764.5 -2.89649e-11 2.81861e-14)
(2764.5 -3.06801e-11 2.74415e-14)
(2764.5 -2.89404e-11 2.8728e-14)
(2764.5 -2.68671e-11 2.18653e-14)
(2764.5 -2.93503e-11 1.88861e-14)
(2764.5 -3.08883e-11 2.00318e-14)
(2764.5 -3.12781e-11 2.06845e-14)
(2764.5 -3.11382e-11 2.47512e-14)
(2764.5 -2.60657e-11 2.4446e-14)
(2764.5 -2.38879e-11 1.55798e-14)
(2764.5 -2.61378e-11 2.10188e-14)
(2764.5 -2.73216e-11 2.25553e-14)
(2764.5 -2.62669e-11 1.63431e-14)
(2764.5 -2.67696e-11 1.466e-14)
(2764.5 -2.57293e-11 1.51257e-14)
(2764.5 -2.68021e-11 2.0186e-14)
(2764.5 -2.55676e-11 1.773e-14)
(2764.5 -2.58729e-11 1.55925e-14)
(2764.5 -2.69232e-11 1.34708e-14)
(2764.5 -2.50402e-11 1.57299e-14)
(2764.5 -2.592e-11 1.40813e-14)
(2764.5 -2.37693e-11 1.4742e-14)
(2764.5 -2.2545e-11 1.77813e-14)
(2764.5 -2.45033e-11 1.55474e-14)
(2764.5 -2.5102e-11 1.42022e-14)
(2764.5 -2.63234e-11 1.65192e-14)
(2764.5 -2.61641e-11 1.04693e-14)
(2764.5 -2.40637e-11 7.22839e-15)
(2764.5 -2.5516e-11 1.17926e-14)
(2764.5 -2.64095e-11 1.19775e-14)
(2764.5 -2.60568e-11 8.43068e-15)
(2764.5 -2.45848e-11 1.09472e-14)
(2764.5 -2.45747e-11 1.14824e-14)
(2764.5 -2.47103e-11 9.84753e-15)
(2764.5 -2.55071e-11 8.94317e-15)
(2764.5 -2.59822e-11 9.15177e-15)
(2764.5 -2.4288e-11 1.22628e-14)
(2764.5 -2.46922e-11 8.55274e-15)
(2764.5 -2.46511e-11 6.51499e-15)
(2764.5 -2.44605e-11 6.72023e-15)
(2764.5 -2.37025e-11 1.05046e-14)
(2764.5 -2.37102e-11 1.28205e-14)
(2764.5 -2.48537e-11 1.20259e-14)
(2764.5 -2.3837e-11 1.11051e-14)
(2764.5 -2.195e-11 8.02399e-15)
(2764.5 -2.19475e-11 1.22741e-14)
(2764.5 -2.33038e-11 1.24778e-14)
(2764.5 -2.25458e-11 7.84631e-15)
(2764.5 -2.43822e-11 6.50042e-15)
(2764.5 -2.59782e-11 1.34481e-14)
(2764.5 -2.51386e-11 1.38576e-14)
(2764.5 -2.25471e-11 9.56201e-15)
(2764.5 -2.08283e-11 1.06428e-14)
(2764.5 -2.24628e-11 7.9327e-15)
(2764.5 -2.42332e-11 5.88598e-15)
(2764.5 -2.72732e-11 7.22937e-15)
(2764.5 -2.49586e-11 9.48366e-15)
(2764.5 -2.2667e-11 6.86076e-15)
(2764.5 -2.38674e-11 7.47989e-15)
(2764.5 -2.37707e-11 6.67043e-15)
(2764.5 -2.50537e-11 9.43303e-15)
(2764.5 -2.49297e-11 8.75414e-15)
(2764.5 -2.54663e-11 9.37497e-15)
(2764.5 -2.51144e-11 7.58936e-15)
(2764.5 -2.49054e-11 8.336e-15)
(2764.5 -2.5447e-11 1.10645e-14)
(2764.5 -2.50715e-11 1.17407e-14)
(2764.5 -2.74812e-11 7.06022e-15)
(2764.5 -3.2116e-11 5.90241e-15)
(2764.5 -3.23838e-11 1.0838e-14)
(2764.5 -3.07297e-11 6.13333e-15)
(2764.5 -3.18978e-11 8.23484e-15)
(2764.5 -3.13446e-11 1.03436e-14)
(2764.5 -3.1135e-11 7.15319e-15)
(2764.5 -3.10763e-11 8.79668e-15)
(2764.5 -3.12942e-11 8.24814e-15)
(2764.5 -3.43805e-11 9.39678e-15)
(2764.5 -3.45904e-11 8.25634e-15)
(2764.5 -3.43148e-11 1.0805e-14)
(2764.5 -3.34625e-11 1.48012e-14)
(2764.5 -3.63331e-11 5.55636e-15)
(2764.5 -3.46122e-11 3.8558e-15)
(2764.5 -3.35812e-11 5.19429e-15)
(2764.5 -2.59436e-11 4.89251e-15)
(2764.5 -2.38782e-11 7.50572e-15)
(2764.5 -2.42477e-11 7.74747e-15)
(2764.5 -2.50716e-11 7.028e-15)
(2764.5 -2.88104e-11 7.99938e-15)
(2764.5 -2.99259e-11 2.70637e-15)
(2764.5 -3.3676e-11 3.6018e-15)
(2764.5 -3.5983e-11 6.82194e-15)
(2764.5 -3.6453e-11 3.91497e-15)
(2764.5 -3.70073e-11 9.09444e-15)
(2764.5 -3.84334e-11 6.40492e-15)
(2764.5 -3.39071e-11 1.21423e-14)
(2764.5 -3.46069e-11 8.27743e-15)
(2764.5 -3.65482e-11 7.43932e-15)
(2764.5 -3.72701e-11 7.25229e-15)
(2764.5 -3.79769e-11 2.31994e-15)
(2764.5 -3.64794e-11 7.47008e-15)
(2764.5 -4.02894e-11 2.3233e-15)
(2764.5 -3.68414e-11 6.82345e-15)
(2764.5 -3.74037e-11 7.87599e-15)
(2764.5 -3.76418e-11 5.0818e-15)
(2764.5 -6.69601e-08 1.17846e-10)
(2764.5 -2.47851e-08 4.14855e-11)
(2764.5 -1.13548e-08 1.87745e-11)
(2764.5 -6.60995e-09 1.10594e-11)
(2764.5 -4.38797e-09 7.38005e-12)
(2764.5 -3.14572e-09 5.33599e-12)
(2764.5 -2.37514e-09 3.99581e-12)
(2764.5 -1.85318e-09 3.07973e-12)
(2764.5 -1.49407e-09 2.48902e-12)
(2764.5 -1.22977e-09 2.0371e-12)
(2764.5 -1.03182e-09 1.61238e-12)
(2764.5 -8.76727e-10 1.42414e-12)
(2764.5 -7.57707e-10 1.1908e-12)
(2764.5 -6.62823e-10 1.04914e-12)
(2764.5 -5.81699e-10 8.91736e-13)
(2764.5 -5.26685e-10 8.29695e-13)
(2764.5 -4.6882e-10 7.14368e-13)
(2764.5 -4.30027e-10 6.37479e-13)
(2764.5 -3.88609e-10 5.91075e-13)
(2764.5 -3.59196e-10 5.2827e-13)
(2764.5 -3.21806e-10 4.85835e-13)
(2764.5 -3.05289e-10 4.20934e-13)
(2764.5 -2.82724e-10 3.94803e-13)
(2764.5 -2.58393e-10 3.46103e-13)
(2764.5 -2.39345e-10 3.42708e-13)
(2764.5 -2.29244e-10 3.30072e-13)
(2764.5 -2.12616e-10 2.96121e-13)
(2764.5 -2.09143e-10 2.68751e-13)
(2764.5 -1.9213e-10 2.66181e-13)
(2764.5 -1.82863e-10 2.46342e-13)
(2764.5 -1.70464e-10 2.14978e-13)
(2764.5 -1.66566e-10 2.17167e-13)
(2764.5 -1.5601e-10 1.77695e-13)
(2764.5 -1.55567e-10 1.66908e-13)
(2764.5 -1.47811e-10 1.73387e-13)
(2764.5 -1.46097e-10 1.70655e-13)
(2764.5 -1.38614e-10 1.54538e-13)
(2764.5 -1.26715e-10 1.49666e-13)
(2764.5 -1.27951e-10 1.37739e-13)
(2764.5 -1.29998e-10 1.262e-13)
(2764.5 -1.21998e-10 1.10213e-13)
(2764.5 -1.1234e-10 1.17903e-13)
(2764.5 -1.12577e-10 1.29582e-13)
(2764.5 -1.07082e-10 1.15517e-13)
(2764.5 -1.09613e-10 8.87258e-14)
(2764.5 -1.04018e-10 1.06683e-13)
(2764.5 -1.04469e-10 1.07688e-13)
(2764.5 -1.03243e-10 8.68276e-14)
(2764.5 -9.47897e-11 8.86087e-14)
(2764.5 -1.00668e-10 9.66163e-14)
(2764.5 -9.4961e-11 9.65382e-14)
(2764.5 -9.33987e-11 8.19759e-14)
(2764.5 -9.00553e-11 7.99362e-14)
(2764.5 -9.12567e-11 6.63207e-14)
(2764.5 -8.96184e-11 7.20383e-14)
(2764.5 -8.091e-11 6.27363e-14)
(2764.5 -8.17222e-11 6.26067e-14)
(2764.5 -8.22575e-11 6.45918e-14)
(2764.5 -8.50828e-11 6.94097e-14)
(2764.5 -9.29253e-11 7.00693e-14)
(2764.5 -9.47487e-11 6.08218e-14)
(2764.5 -8.39115e-11 4.64353e-14)
(2764.5 -7.81033e-11 6.27662e-14)
(2764.5 -7.9256e-11 5.80397e-14)
(2764.5 -7.38779e-11 5.14514e-14)
(2764.5 -7.75692e-11 5.40109e-14)
(2764.5 -7.78918e-11 4.53712e-14)
(2764.5 -7.96182e-11 5.36221e-14)
(2764.5 -7.72152e-11 5.21577e-14)
(2764.5 -7.56568e-11 4.73247e-14)
(2764.5 -7.61326e-11 4.88958e-14)
(2764.5 -7.53881e-11 5.07302e-14)
(2764.5 -7.83755e-11 4.4572e-14)
(2764.5 -7.71787e-11 4.53085e-14)
(2764.5 -7.02696e-11 4.81342e-14)
(2764.5 -7.05493e-11 5.05626e-14)
(2764.5 -6.973e-11 4.47171e-14)
(2764.5 -6.86133e-11 4.56732e-14)
(2764.5 -7.30064e-11 2.93292e-14)
(2764.5 -7.14234e-11 2.81731e-14)
(2764.5 -6.8379e-11 3.44251e-14)
(2764.5 -7.01578e-11 3.37216e-14)
(2764.5 -7.55721e-11 2.96151e-14)
(2764.5 -7.22047e-11 3.63514e-14)
(2764.5 -7.27521e-11 4.35853e-14)
(2764.5 -6.90168e-11 4.06137e-14)
(2764.5 -6.86839e-11 3.29783e-14)
(2764.5 -7.08303e-11 3.84932e-14)
(2764.5 -7.31463e-11 3.54478e-14)
(2764.5 -7.17254e-11 2.86055e-14)
(2764.5 -7.46461e-11 3.36378e-14)
(2764.5 -7.34871e-11 2.80977e-14)
(2764.5 -7.03908e-11 3.43671e-14)
(2764.5 -6.87175e-11 3.46978e-14)
(2764.5 -7.09035e-11 3.99006e-14)
(2764.5 -7.24514e-11 3.35068e-14)
(2764.5 -7.21096e-11 2.76292e-14)
(2764.5 -7.00306e-11 3.10075e-14)
(2764.5 -7.16875e-11 2.71474e-14)
(2764.5 -6.90392e-11 2.5629e-14)
(2764.5 -6.96571e-11 2.63977e-14)
(2764.5 -7.26282e-11 2.69757e-14)
(2764.5 -7.50789e-11 3.03197e-14)
(2764.5 -7.76887e-11 1.90009e-14)
(2764.5 -7.17504e-11 2.0796e-14)
(2764.5 -7.13663e-11 1.85708e-14)
(2764.5 -7.09668e-11 2.19579e-14)
(2764.5 -7.59943e-11 2.18941e-14)
(2764.5 -7.90612e-11 1.83306e-14)
(2764.5 -7.38472e-11 1.98342e-14)
(2764.5 -7.29654e-11 2.40902e-14)
(2764.5 -7.10714e-11 2.30809e-14)
(2764.5 -7.24387e-11 2.34849e-14)
(2764.5 -7.45802e-11 2.38286e-14)
(2764.5 -7.56382e-11 2.70671e-14)
(2764.5 -7.75387e-11 2.64261e-14)
(2764.5 -7.65681e-11 2.77957e-14)
(2764.5 -7.49205e-11 2.79949e-14)
(2764.5 -7.21412e-11 2.41695e-14)
(2764.5 -6.93822e-11 1.7066e-14)
(2764.5 -7.27288e-11 1.91551e-14)
(2764.5 -7.80034e-11 2.08022e-14)
(2764.5 -7.9407e-11 2.10303e-14)
(2764.5 -8.20938e-11 2.30123e-14)
(2764.5 -8.31989e-11 2.37599e-14)
(2764.5 -8.45657e-11 2.20024e-14)
(2764.5 -8.38563e-11 2.27669e-14)
(2764.5 -8.22564e-11 2.15642e-14)
(2764.5 -8.39948e-11 2.15883e-14)
(2764.5 -8.66532e-11 2.50967e-14)
(2764.5 -8.88904e-11 2.44036e-14)
(2764.5 -8.76228e-11 1.93105e-14)
(2764.5 -8.70052e-11 1.6483e-14)
(2764.5 -9.32472e-11 1.96058e-14)
(2764.5 -9.77135e-11 1.95582e-14)
(2764.5 -9.65763e-11 1.9932e-14)
(2764.5 -9.63791e-11 2.27475e-14)
(2764.5 -8.74382e-11 2.25468e-14)
(2764.5 -8.7194e-11 1.53844e-14)
(2764.5 -8.68498e-11 1.80997e-14)
(2764.5 -8.58458e-11 1.8052e-14)
(2764.5 -8.60665e-11 2.1734e-14)
(2764.5 -8.60326e-11 1.87593e-14)
(2764.5 -8.89426e-11 1.98087e-14)
(2764.5 -9.02022e-11 1.79991e-14)
(2764.5 -9.83655e-11 2.19579e-14)
(2764.5 -9.89406e-11 2.1716e-14)
(2764.5 -1.01297e-10 2.50235e-14)
(2764.5 -1.01917e-10 2.31376e-14)
(2764.5 -1.03044e-10 1.91143e-14)
(2764.5 -1.08456e-10 1.65966e-14)
(2764.5 -1.10588e-10 1.55381e-14)
(2764.5 -1.10143e-10 1.43702e-14)
(2764.5 -1.16279e-10 1.45299e-14)
(2764.5 -1.1263e-10 2.47553e-14)
(2764.5 -1.11919e-10 1.70059e-14)
(2764.5 -1.06282e-07 1.81987e-10)
(2764.5 -4.53296e-08 7.33603e-11)
(2764.5 -2.12509e-08 3.34554e-11)
(2764.5 -1.20376e-08 1.91619e-11)
(2764.5 -7.83998e-09 1.24851e-11)
(2764.5 -5.56895e-09 8.82526e-12)
(2764.5 -4.18723e-09 6.68341e-12)
(2764.5 -3.26739e-09 5.14333e-12)
(2764.5 -2.61675e-09 4.1492e-12)
(2764.5 -2.15127e-09 3.35881e-12)
(2764.5 -1.80926e-09 2.79072e-12)
(2764.5 -1.53419e-09 2.40355e-12)
(2764.5 -1.32618e-09 2.02154e-12)
(2764.5 -1.15563e-09 1.74823e-12)
(2764.5 -1.01772e-09 1.54935e-12)
(2764.5 -9.15288e-10 1.36185e-12)
(2764.5 -8.18087e-10 1.17411e-12)
(2764.5 -7.45858e-10 1.07988e-12)
(2764.5 -6.76617e-10 9.58344e-13)
(2764.5 -6.21855e-10 8.94718e-13)
(2764.5 -5.65156e-10 8.01246e-13)
(2764.5 -5.26807e-10 6.92386e-13)
(2764.5 -4.89277e-10 6.75461e-13)
(2764.5 -4.50093e-10 6.01435e-13)
(2764.5 -4.14181e-10 5.98284e-13)
(2764.5 -3.94866e-10 5.48822e-13)
(2764.5 -3.69905e-10 5.23456e-13)
(2764.5 -3.59587e-10 4.66966e-13)
(2764.5 -3.35981e-10 4.22387e-13)
(2764.5 -3.16431e-10 4.06807e-13)
(2764.5 -2.98467e-10 3.64273e-13)
(2764.5 -2.85412e-10 3.66854e-13)
(2764.5 -2.69896e-10 3.13596e-13)
(2764.5 -2.66498e-10 3.1892e-13)
(2764.5 -2.56561e-10 3.12028e-13)
(2764.5 -2.44405e-10 2.74105e-13)
(2764.5 -2.38216e-10 2.5413e-13)
(2764.5 -2.2275e-10 2.5789e-13)
(2764.5 -2.16143e-10 2.4876e-13)
(2764.5 -2.11975e-10 2.22882e-13)
(2764.5 -2.07661e-10 2.12302e-13)
(2764.5 -2.03528e-10 2.08324e-13)
(2764.5 -1.95183e-10 2.1305e-13)
(2764.5 -1.85063e-10 1.98814e-13)
(2764.5 -1.80798e-10 1.6722e-13)
(2764.5 -1.75886e-10 1.75734e-13)
(2764.5 -1.72372e-10 1.68737e-13)
(2764.5 -1.72071e-10 1.68194e-13)
(2764.5 -1.64751e-10 1.61929e-13)
(2764.5 -1.68743e-10 1.72299e-13)
(2764.5 -1.63094e-10 1.54204e-13)
(2764.5 -1.57753e-10 1.43596e-13)
(2764.5 -1.54909e-10 1.35194e-13)
(2764.5 -1.53155e-10 1.29926e-13)
(2764.5 -1.49985e-10 1.23251e-13)
(2764.5 -1.39785e-10 1.20268e-13)
(2764.5 -1.41753e-10 1.12376e-13)
(2764.5 -1.40511e-10 1.06642e-13)
(2764.5 -1.39101e-10 1.17533e-13)
(2764.5 -1.41464e-10 1.12618e-13)
(2764.5 -1.48383e-10 1.05903e-13)
(2764.5 -1.45747e-10 1.07565e-13)
(2764.5 -1.40058e-10 1.03952e-13)
(2764.5 -1.38539e-10 8.27858e-14)
(2764.5 -1.2995e-10 9.27143e-14)
(2764.5 -1.28394e-10 8.98855e-14)
(2764.5 -1.26479e-10 7.99116e-14)
(2764.5 -1.2876e-10 9.10582e-14)
(2764.5 -1.27717e-10 8.18344e-14)
(2764.5 -1.31171e-10 7.83674e-14)
(2764.5 -1.29574e-10 7.65296e-14)
(2764.5 -1.26958e-10 7.66783e-14)
(2764.5 -1.31194e-10 7.25778e-14)
(2764.5 -1.31419e-10 7.5289e-14)
(2764.5 -1.22791e-10 8.05084e-14)
(2764.5 -1.17389e-10 8.08981e-14)
(2764.5 -1.19461e-10 6.68552e-14)
(2764.5 -1.19671e-10 6.83455e-14)
(2764.5 -1.20289e-10 6.74973e-14)
(2764.5 -1.1725e-10 6.38729e-14)
(2764.5 -1.14079e-10 6.2631e-14)
(2764.5 -1.14529e-10 5.82406e-14)
(2764.5 -1.21306e-10 5.33707e-14)
(2764.5 -1.20958e-10 5.39395e-14)
(2764.5 -1.24861e-10 5.66764e-14)
(2764.5 -1.22479e-10 5.42354e-14)
(2764.5 -1.17509e-10 5.94753e-14)
(2764.5 -1.14877e-10 6.70077e-14)
(2764.5 -1.18157e-10 5.95897e-14)
(2764.5 -1.16099e-10 5.81895e-14)
(2764.5 -1.20923e-10 5.26168e-14)
(2764.5 -1.2523e-10 4.91833e-14)
(2764.5 -1.2446e-10 5.76563e-14)
(2764.5 -1.19411e-10 6.37881e-14)
(2764.5 -1.17672e-10 6.54713e-14)
(2764.5 -1.18472e-10 4.86467e-14)
(2764.5 -1.21164e-10 4.24954e-14)
(2764.5 -1.18292e-10 4.60606e-14)
(2764.5 -1.17278e-10 4.76368e-14)
(2764.5 -1.1725e-10 4.88452e-14)
(2764.5 -1.16488e-10 4.17962e-14)
(2764.5 -1.19066e-10 4.58816e-14)
(2764.5 -1.24361e-10 4.87329e-14)
(2764.5 -1.27327e-10 4.12637e-14)
(2764.5 -1.22548e-10 4.77572e-14)
(2764.5 -1.1962e-10 4.30628e-14)
(2764.5 -1.18835e-10 3.91796e-14)
(2764.5 -1.19509e-10 3.52773e-14)
(2764.5 -1.25718e-10 3.61397e-14)
(2764.5 -1.28153e-10 4.21526e-14)
(2764.5 -1.25715e-10 3.64998e-14)
(2764.5 -1.24039e-10 3.57854e-14)
(2764.5 -1.20088e-10 3.63568e-14)
(2764.5 -1.18739e-10 3.92519e-14)
(2764.5 -1.21417e-10 3.89204e-14)
(2764.5 -1.22906e-10 4.48783e-14)
(2764.5 -1.27949e-10 4.67651e-14)
(2764.5 -1.28547e-10 4.61641e-14)
(2764.5 -1.25897e-10 3.85057e-14)
(2764.5 -1.2336e-10 3.6981e-14)
(2764.5 -1.21012e-10 3.76129e-14)
(2764.5 -1.22049e-10 3.72917e-14)
(2764.5 -1.24662e-10 3.60742e-14)
(2764.5 -1.30226e-10 3.20555e-14)
(2764.5 -1.31406e-10 3.2641e-14)
(2764.5 -1.33173e-10 3.44675e-14)
(2764.5 -1.33479e-10 3.43299e-14)
(2764.5 -1.3218e-10 3.55087e-14)
(2764.5 -1.32261e-10 3.945e-14)
(2764.5 -1.34275e-10 3.69195e-14)
(2764.5 -1.37919e-10 3.26109e-14)
(2764.5 -1.40008e-10 3.63859e-14)
(2764.5 -1.41338e-10 3.73301e-14)
(2764.5 -1.45217e-10 3.4295e-14)
(2764.5 -1.49899e-10 3.49913e-14)
(2764.5 -1.53937e-10 2.97855e-14)
(2764.5 -1.58802e-10 3.13717e-14)
(2764.5 -1.51942e-10 2.26411e-14)
(2764.5 -1.51098e-10 4.67245e-14)
(2764.5 -1.44804e-10 3.13975e-14)
(2764.5 -1.44257e-10 2.87926e-14)
(2764.5 -1.48163e-10 2.31724e-14)
(2764.5 -1.44617e-10 3.1299e-14)
(2764.5 -1.45221e-10 2.63166e-14)
(2764.5 -1.43789e-10 3.42724e-14)
(2764.5 -1.50268e-10 3.08425e-14)
(2764.5 -1.4855e-10 2.94399e-14)
(2764.5 -1.52754e-10 3.26183e-14)
(2764.5 -1.57091e-10 3.66377e-14)
(2764.5 -1.54674e-10 3.08861e-14)
(2764.5 -1.57218e-10 3.1574e-14)
(2764.5 -1.6532e-10 3.09131e-14)
(2764.5 -1.7186e-10 3.2474e-14)
(2764.5 -1.81655e-10 2.26426e-14)
(2764.5 -1.85163e-10 3.78346e-14)
(2764.5 -1.81498e-10 3.16922e-14)
(2764.5 -1.37736e-07 2.33277e-10)
(2764.5 -6.63896e-08 1.05113e-10)
(2764.5 -3.25589e-08 4.94606e-11)
(2764.5 -1.83148e-08 2.77057e-11)
(2764.5 -1.17485e-08 1.77781e-11)
(2764.5 -8.25575e-09 1.24819e-11)
(2764.5 -6.16885e-09 9.40623e-12)
(2764.5 -4.80867e-09 7.29157e-12)
(2764.5 -3.84745e-09 5.8327e-12)
(2764.5 -3.15575e-09 4.77999e-12)
(2764.5 -2.6449e-09 3.89302e-12)
(2764.5 -2.2426e-09 3.36293e-12)
(2764.5 -1.94107e-09 2.88197e-12)
(2764.5 -1.69218e-09 2.49745e-12)
(2764.5 -1.48715e-09 2.25499e-12)
(2764.5 -1.32648e-09 1.92399e-12)
(2764.5 -1.19339e-09 1.68492e-12)
(2764.5 -1.08563e-09 1.49424e-12)
(2764.5 -9.91518e-10 1.32265e-12)
(2764.5 -9.05131e-10 1.25761e-12)
(2764.5 -8.25532e-10 1.11358e-12)
(2764.5 -7.61005e-10 1.02813e-12)
(2764.5 -7.05565e-10 9.52309e-13)
(2764.5 -6.55271e-10 8.72262e-13)
(2764.5 -6.04741e-10 8.10165e-13)
(2764.5 -5.72437e-10 7.48088e-13)
(2764.5 -5.37771e-10 6.98901e-13)
(2764.5 -5.15814e-10 6.39613e-13)
(2764.5 -4.84752e-10 6.17171e-13)
(2764.5 -4.59344e-10 5.67511e-13)
(2764.5 -4.29918e-10 5.38283e-13)
(2764.5 -4.13119e-10 5.13665e-13)
(2764.5 -3.97237e-10 4.92063e-13)
(2764.5 -3.82886e-10 4.59573e-13)
(2764.5 -3.65886e-10 4.34507e-13)
(2764.5 -3.55221e-10 3.96311e-13)
(2764.5 -3.40696e-10 3.7967e-13)
(2764.5 -3.23212e-10 3.4201e-13)
(2764.5 -3.15651e-10 3.50522e-13)
(2764.5 -3.05103e-10 3.14461e-13)
(2764.5 -2.95527e-10 3.0832e-13)
(2764.5 -2.94083e-10 2.86402e-13)
(2764.5 -2.81416e-10 2.85789e-13)
(2764.5 -2.69494e-10 2.67337e-13)
(2764.5 -2.64627e-10 2.69285e-13)
(2764.5 -2.53667e-10 2.42368e-13)
(2764.5 -2.44446e-10 2.47829e-13)
(2764.5 -2.41069e-10 2.36612e-13)
(2764.5 -2.3527e-10 2.36456e-13)
(2764.5 -2.34354e-10 2.27607e-13)
(2764.5 -2.32207e-10 2.0739e-13)
(2764.5 -2.23847e-10 2.04585e-13)
(2764.5 -2.20269e-10 1.90374e-13)
(2764.5 -2.19541e-10 1.85425e-13)
(2764.5 -2.14073e-10 1.67725e-13)
(2764.5 -2.06318e-10 1.73683e-13)
(2764.5 -2.01675e-10 1.6638e-13)
(2764.5 -2.00562e-10 1.60176e-13)
(2764.5 -1.96558e-10 1.68908e-13)
(2764.5 -1.96915e-10 1.65531e-13)
(2764.5 -2.02926e-10 1.53207e-13)
(2764.5 -2.03094e-10 1.40151e-13)
(2764.5 -1.99368e-10 1.34653e-13)
(2764.5 -1.95993e-10 1.29302e-13)
(2764.5 -1.92056e-10 1.46849e-13)
(2764.5 -1.85642e-10 1.34575e-13)
(2764.5 -1.82869e-10 1.24323e-13)
(2764.5 -1.81646e-10 1.281e-13)
(2764.5 -1.77662e-10 1.10398e-13)
(2764.5 -1.77634e-10 1.05837e-13)
(2764.5 -1.76108e-10 1.04595e-13)
(2764.5 -1.77758e-10 1.13537e-13)
(2764.5 -1.81458e-10 1.12145e-13)
(2764.5 -1.88218e-10 1.13273e-13)
(2764.5 -1.81177e-10 1.07862e-13)
(2764.5 -1.71889e-10 1.038e-13)
(2764.5 -1.6848e-10 1.06866e-13)
(2764.5 -1.69555e-10 1.09979e-13)
(2764.5 -1.72721e-10 1.02335e-13)
(2764.5 -1.673e-10 9.24531e-14)
(2764.5 -1.65205e-10 8.39287e-14)
(2764.5 -1.63299e-10 9.28895e-14)
(2764.5 -1.64192e-10 8.5609e-14)
(2764.5 -1.62533e-10 8.62865e-14)
(2764.5 -1.64212e-10 8.3635e-14)
(2764.5 -1.69569e-10 8.79325e-14)
(2764.5 -1.71564e-10 8.64629e-14)
(2764.5 -1.68258e-10 8.23547e-14)
(2764.5 -1.69834e-10 7.60111e-14)
(2764.5 -1.64506e-10 8.02761e-14)
(2764.5 -1.63058e-10 7.79377e-14)
(2764.5 -1.66512e-10 7.76449e-14)
(2764.5 -1.71751e-10 8.09734e-14)
(2764.5 -1.71232e-10 8.75858e-14)
(2764.5 -1.67145e-10 7.65935e-14)
(2764.5 -1.63297e-10 7.38183e-14)
(2764.5 -1.66099e-10 7.62797e-14)
(2764.5 -1.6345e-10 6.82562e-14)
(2764.5 -1.6198e-10 6.71661e-14)
(2764.5 -1.62064e-10 6.6243e-14)
(2764.5 -1.61175e-10 5.9793e-14)
(2764.5 -1.61163e-10 6.39544e-14)
(2764.5 -1.68507e-10 6.64341e-14)
(2764.5 -1.77174e-10 6.66489e-14)
(2764.5 -1.74762e-10 6.62331e-14)
(2764.5 -1.69422e-10 6.41703e-14)
(2764.5 -1.68102e-10 6.0786e-14)
(2764.5 -1.68659e-10 5.96626e-14)
(2764.5 -1.71975e-10 5.58415e-14)
(2764.5 -1.76466e-10 4.9542e-14)
(2764.5 -1.76859e-10 5.05021e-14)
(2764.5 -1.78076e-10 5.15919e-14)
(2764.5 -1.74338e-10 5.64137e-14)
(2764.5 -1.69026e-10 5.72686e-14)
(2764.5 -1.69617e-10 6.12179e-14)
(2764.5 -1.68316e-10 5.97551e-14)
(2764.5 -1.70949e-10 5.89358e-14)
(2764.5 -1.73571e-10 5.57249e-14)
(2764.5 -1.75821e-10 5.11781e-14)
(2764.5 -1.77371e-10 5.36792e-14)
(2764.5 -1.75734e-10 5.37075e-14)
(2764.5 -1.76435e-10 5.19852e-14)
(2764.5 -1.75629e-10 4.74971e-14)
(2764.5 -1.78541e-10 4.95643e-14)
(2764.5 -1.82925e-10 5.39302e-14)
(2764.5 -1.86993e-10 5.22071e-14)
(2764.5 -1.87585e-10 5.58625e-14)
(2764.5 -1.87561e-10 5.63428e-14)
(2764.5 -1.87978e-10 4.93916e-14)
(2764.5 -1.88728e-10 4.78264e-14)
(2764.5 -1.90885e-10 4.85657e-14)
(2764.5 -1.94302e-10 4.98115e-14)
(2764.5 -1.95993e-10 4.785e-14)
(2764.5 -2.01401e-10 4.76234e-14)
(2764.5 -2.0549e-10 4.81251e-14)
(2764.5 -2.08871e-10 4.91326e-14)
(2764.5 -2.13817e-10 5.52997e-14)
(2764.5 -2.14686e-10 4.4169e-14)
(2764.5 -2.15528e-10 5.42307e-14)
(2764.5 -2.14497e-10 4.75238e-14)
(2764.5 -2.12797e-10 4.39854e-14)
(2764.5 -2.14007e-10 4.45488e-14)
(2764.5 -2.11836e-10 4.34381e-14)
(2764.5 -2.14581e-10 4.46066e-14)
(2764.5 -2.09606e-10 4.74872e-14)
(2764.5 -2.14836e-10 4.52202e-14)
(2764.5 -2.13109e-10 4.36424e-14)
(2764.5 -2.15808e-10 4.87659e-14)
(2764.5 -2.20076e-10 4.75604e-14)
(2764.5 -2.21203e-10 4.24268e-14)
(2764.5 -2.19777e-10 4.65348e-14)
(2764.5 -2.24276e-10 4.6366e-14)
(2764.5 -2.23403e-10 5.19839e-14)
(2764.5 -2.32922e-10 4.02363e-14)
(2764.5 -2.43789e-10 4.50124e-14)
(2764.5 -2.51472e-10 4.06896e-14)
(2764.5 -1.62707e-07 2.73933e-10)
(2764.5 -8.68439e-08 1.35868e-10)
(2764.5 -4.48791e-08 6.6332e-11)
(2764.5 -2.54237e-08 3.67843e-11)
(2764.5 -1.6158e-08 2.3505e-11)
(2764.5 -1.12356e-08 1.64467e-11)
(2764.5 -8.33111e-09 1.21781e-11)
(2764.5 -6.47168e-09 9.47257e-12)
(2764.5 -5.18115e-09 7.59842e-12)
(2764.5 -4.24505e-09 6.25427e-12)
(2764.5 -3.54388e-09 5.13659e-12)
(2764.5 -3.00712e-09 4.34905e-12)
(2764.5 -2.5989e-09 3.70319e-12)
(2764.5 -2.26317e-09 3.22501e-12)
(2764.5 -1.9901e-09 2.86486e-12)
(2764.5 -1.77288e-09 2.51018e-12)
(2764.5 -1.59302e-09 2.18548e-12)
(2764.5 -1.45029e-09 1.98108e-12)
(2764.5 -1.32245e-09 1.803e-12)
(2764.5 -1.20557e-09 1.62917e-12)
(2764.5 -1.10261e-09 1.48382e-12)
(2764.5 -1.01347e-09 1.35874e-12)
(2764.5 -9.40475e-10 1.21902e-12)
(2764.5 -8.68965e-10 1.1446e-12)
(2764.5 -8.08297e-10 1.03197e-12)
(2764.5 -7.61467e-10 9.98955e-13)
(2764.5 -7.17709e-10 9.14993e-13)
(2764.5 -6.82339e-10 8.68485e-13)
(2764.5 -6.41651e-10 8.28933e-13)
(2764.5 -6.05783e-10 7.64718e-13)
(2764.5 -5.73267e-10 6.95756e-13)
(2764.5 -5.47288e-10 6.69227e-13)
(2764.5 -5.24698e-10 6.14406e-13)
(2764.5 -5.07353e-10 5.68028e-13)
(2764.5 -4.82571e-10 5.52699e-13)
(2764.5 -4.65967e-10 5.32589e-13)
(2764.5 -4.49024e-10 4.94164e-13)
(2764.5 -4.34088e-10 4.68491e-13)
(2764.5 -4.16245e-10 4.34826e-13)
(2764.5 -4.04617e-10 4.09594e-13)
(2764.5 -3.90564e-10 4.11255e-13)
(2764.5 -3.82087e-10 3.95022e-13)
(2764.5 -3.70816e-10 3.77895e-13)
(2764.5 -3.56349e-10 3.68458e-13)
(2764.5 -3.51399e-10 3.51037e-13)
(2764.5 -3.35607e-10 3.32174e-13)
(2764.5 -3.22288e-10 3.13545e-13)
(2764.5 -3.15593e-10 3.04458e-13)
(2764.5 -3.10022e-10 2.90223e-13)
(2764.5 -3.05885e-10 2.66688e-13)
(2764.5 -3.00674e-10 2.73246e-13)
(2764.5 -2.97646e-10 2.60041e-13)
(2764.5 -2.87682e-10 2.52259e-13)
(2764.5 -2.84538e-10 2.43484e-13)
(2764.5 -2.79782e-10 2.40297e-13)
(2764.5 -2.71967e-10 2.34139e-13)
(2764.5 -2.66134e-10 2.13466e-13)
(2764.5 -2.64596e-10 2.04451e-13)
(2764.5 -2.58679e-10 2.13915e-13)
(2764.5 -2.53375e-10 1.96268e-13)
(2764.5 -2.56988e-10 1.8616e-13)
(2764.5 -2.62983e-10 1.77104e-13)
(2764.5 -2.61723e-10 1.77978e-13)
(2764.5 -2.56125e-10 1.90922e-13)
(2764.5 -2.50509e-10 1.75442e-13)
(2764.5 -2.43204e-10 1.77458e-13)
(2764.5 -2.42854e-10 1.71096e-13)
(2764.5 -2.43128e-10 1.56099e-13)
(2764.5 -2.36585e-10 1.62467e-13)
(2764.5 -2.30424e-10 1.57912e-13)
(2764.5 -2.24306e-10 1.48681e-13)
(2764.5 -2.26952e-10 1.50687e-13)
(2764.5 -2.24815e-10 1.45849e-13)
(2764.5 -2.33813e-10 1.42178e-13)
(2764.5 -2.3465e-10 1.44439e-13)
(2764.5 -2.30929e-10 1.40211e-13)
(2764.5 -2.24502e-10 1.41874e-13)
(2764.5 -2.24791e-10 1.33444e-13)
(2764.5 -2.25459e-10 1.21373e-13)
(2764.5 -2.18793e-10 1.22126e-13)
(2764.5 -2.18569e-10 1.28294e-13)
(2764.5 -2.15281e-10 1.18184e-13)
(2764.5 -2.17609e-10 1.12874e-13)
(2764.5 -2.15752e-10 1.15193e-13)
(2764.5 -2.10605e-10 1.13681e-13)
(2764.5 -2.13392e-10 1.08751e-13)
(2764.5 -2.14909e-10 1.02786e-13)
(2764.5 -2.15524e-10 1.089e-13)
(2764.5 -2.1846e-10 1.1391e-13)
(2764.5 -2.18058e-10 1.13027e-13)
(2764.5 -2.1391e-10 1.03748e-13)
(2764.5 -2.1577e-10 1.01279e-13)
(2764.5 -2.19726e-10 1.00421e-13)
(2764.5 -2.20624e-10 9.77651e-14)
(2764.5 -2.17727e-10 9.6565e-14)
(2764.5 -2.12867e-10 9.88587e-14)
(2764.5 -2.13602e-10 9.07297e-14)
(2764.5 -2.1445e-10 8.82748e-14)
(2764.5 -2.11845e-10 9.05998e-14)
(2764.5 -2.07819e-10 8.46964e-14)
(2764.5 -2.07334e-10 7.92761e-14)
(2764.5 -2.06554e-10 8.37187e-14)
(2764.5 -2.0867e-10 8.71557e-14)
(2764.5 -2.19295e-10 8.08906e-14)
(2764.5 -2.24038e-10 8.07897e-14)
(2764.5 -2.22663e-10 8.25918e-14)
(2764.5 -2.17647e-10 7.95581e-14)
(2764.5 -2.17271e-10 7.84972e-14)
(2764.5 -2.20864e-10 7.39019e-14)
(2764.5 -2.24484e-10 7.52727e-14)
(2764.5 -2.27982e-10 7.70312e-14)
(2764.5 -2.2773e-10 7.48186e-14)
(2764.5 -2.28113e-10 7.70983e-14)
(2764.5 -2.24686e-10 6.49487e-14)
(2764.5 -2.23495e-10 6.42313e-14)
(2764.5 -2.2084e-10 6.84593e-14)
(2764.5 -2.20682e-10 7.37494e-14)
(2764.5 -2.21079e-10 7.09963e-14)
(2764.5 -2.23066e-10 7.47373e-14)
(2764.5 -2.26232e-10 7.56847e-14)
(2764.5 -2.26701e-10 6.96685e-14)
(2764.5 -2.27523e-10 6.63067e-14)
(2764.5 -2.27444e-10 6.96731e-14)
(2764.5 -2.29284e-10 7.22301e-14)
(2764.5 -2.33193e-10 6.5803e-14)
(2764.5 -2.37001e-10 7.01727e-14)
(2764.5 -2.39473e-10 7.30119e-14)
(2764.5 -2.39037e-10 6.31289e-14)
(2764.5 -2.40133e-10 6.12188e-14)
(2764.5 -2.41361e-10 6.0356e-14)
(2764.5 -2.43754e-10 6.12715e-14)
(2764.5 -2.47508e-10 6.51415e-14)
(2764.5 -2.50586e-10 6.41268e-14)
(2764.5 -2.54525e-10 6.62343e-14)
(2764.5 -2.59604e-10 6.63183e-14)
(2764.5 -2.63722e-10 6.61052e-14)
(2764.5 -2.67111e-10 6.62608e-14)
(2764.5 -2.7266e-10 5.76289e-14)
(2764.5 -2.76554e-10 6.54626e-14)
(2764.5 -2.7799e-10 5.72023e-14)
(2764.5 -2.789e-10 6.07907e-14)
(2764.5 -2.81276e-10 5.73782e-14)
(2764.5 -2.76948e-10 6.03163e-14)
(2764.5 -2.79043e-10 6.24676e-14)
(2764.5 -2.78267e-10 6.08395e-14)
(2764.5 -2.74451e-10 6.12436e-14)
(2764.5 -2.79338e-10 5.77014e-14)
(2764.5 -2.76642e-10 5.26308e-14)
(2764.5 -2.76876e-10 5.56355e-14)
(2764.5 -2.80123e-10 5.82655e-14)
(2764.5 -2.78993e-10 5.41433e-14)
(2764.5 -2.82849e-10 6.11372e-14)
(2764.5 -2.84024e-10 5.79101e-14)
(2764.5 -2.86549e-10 5.39781e-14)
(2764.5 -2.93872e-10 6.18834e-14)
(2764.5 -3.04433e-10 5.91963e-14)
(2764.5 -1.82792e-07 3.0711e-10)
(2764.5 -1.06074e-07 1.64677e-10)
(2764.5 -5.78134e-08 8.35046e-11)
(2764.5 -3.3281e-08 4.65271e-11)
(2764.5 -2.10719e-08 2.94629e-11)
(2764.5 -1.45333e-08 2.04585e-11)
(2764.5 -1.07014e-08 1.52461e-11)
(2764.5 -8.27826e-09 1.17234e-11)
(2764.5 -6.6189e-09 9.3436e-12)
(2764.5 -5.41238e-09 7.64735e-12)
(2764.5 -4.51699e-09 6.35483e-12)
(2764.5 -3.82816e-09 5.35249e-12)
(2764.5 -3.2952e-09 4.59372e-12)
(2764.5 -2.86947e-09 4.01937e-12)
(2764.5 -2.53125e-09 3.48022e-12)
(2764.5 -2.24894e-09 3.06155e-12)
(2764.5 -2.0184e-09 2.73072e-12)
(2764.5 -1.83602e-09 2.42794e-12)
(2764.5 -1.67379e-09 2.20868e-12)
(2764.5 -1.52309e-09 1.97326e-12)
(2764.5 -1.39647e-09 1.81895e-12)
(2764.5 -1.28504e-09 1.66306e-12)
(2764.5 -1.18686e-09 1.51232e-12)
(2764.5 -1.09843e-09 1.36617e-12)
(2764.5 -1.0224e-09 1.29299e-12)
(2764.5 -9.61473e-10 1.22244e-12)
(2764.5 -9.06153e-10 1.12813e-12)
(2764.5 -8.58567e-10 1.06757e-12)
(2764.5 -8.07661e-10 9.81735e-13)
(2764.5 -7.61988e-10 8.94711e-13)
(2764.5 -7.26238e-10 8.57655e-13)
(2764.5 -6.88373e-10 8.01516e-13)
(2764.5 -6.58306e-10 7.52675e-13)
(2764.5 -6.34678e-10 7.22594e-13)
(2764.5 -6.06009e-10 6.79313e-13)
(2764.5 -5.85148e-10 6.16416e-13)
(2764.5 -5.67186e-10 6.23691e-13)
(2764.5 -5.45811e-10 5.8261e-13)
(2764.5 -5.2299e-10 5.5299e-13)
(2764.5 -5.05201e-10 5.3256e-13)
(2764.5 -4.90248e-10 4.95519e-13)
(2764.5 -4.74838e-10 4.74213e-13)
(2764.5 -4.63274e-10 4.55819e-13)
(2764.5 -4.50784e-10 4.46302e-13)
(2764.5 -4.37352e-10 4.22344e-13)
(2764.5 -4.22575e-10 4.20238e-13)
(2764.5 -4.0411e-10 3.82175e-13)
(2764.5 -3.9411e-10 3.70832e-13)
(2764.5 -3.86327e-10 3.63166e-13)
(2764.5 -3.82666e-10 3.38791e-13)
(2764.5 -3.74075e-10 3.29249e-13)
(2764.5 -3.69353e-10 3.16892e-13)
(2764.5 -3.58843e-10 3.03958e-13)
(2764.5 -3.53032e-10 3.01882e-13)
(2764.5 -3.50718e-10 2.86011e-13)
(2764.5 -3.38847e-10 2.74879e-13)
(2764.5 -3.29675e-10 2.62939e-13)
(2764.5 -3.26245e-10 2.63569e-13)
(2764.5 -3.21648e-10 2.51903e-13)
(2764.5 -3.16948e-10 2.39649e-13)
(2764.5 -3.13754e-10 2.3913e-13)
(2764.5 -3.23592e-10 2.27816e-13)
(2764.5 -3.26187e-10 2.23138e-13)
(2764.5 -3.17482e-10 2.17894e-13)
(2764.5 -3.07035e-10 2.13709e-13)
(2764.5 -3.00457e-10 2.18201e-13)
(2764.5 -3.03544e-10 2.02524e-13)
(2764.5 -3.04094e-10 1.86619e-13)
(2764.5 -3.02517e-10 1.97482e-13)
(2764.5 -2.92873e-10 1.89329e-13)
(2764.5 -2.82237e-10 1.79157e-13)
(2764.5 -2.80655e-10 1.79321e-13)
(2764.5 -2.7527e-10 1.80303e-13)
(2764.5 -2.79019e-10 1.65799e-13)
(2764.5 -2.81064e-10 1.71818e-13)
(2764.5 -2.81155e-10 1.68774e-13)
(2764.5 -2.80784e-10 1.63894e-13)
(2764.5 -2.80608e-10 1.56859e-13)
(2764.5 -2.76471e-10 1.67708e-13)
(2764.5 -2.72382e-10 1.6131e-13)
(2764.5 -2.68012e-10 1.55103e-13)
(2764.5 -2.63139e-10 1.42273e-13)