/*--------------------------------*- C++ -*----------------------------------*\
| =========                 |                                                 |
| \\      /  F ield         | OpenFOAM: The Open Source CFD Toolbox           |
|  \\    /   O peration     | Version:  v1706                                 |
|   \\  /    A nd           | Web:      www.OpenFOAM.com                      |
|    \\/     M anipulation  |                                                 |
\*---------------------------------------------------------------------------*/
FoamFile
{
    version     2.0;
    format      ascii;
    class       volScalarField;
    location    "1.1e-05";
    object      wallHeatFlux;
}
// * * * * * * * * * * * * * * * * * * * * * * * * * * * * * * * * * * * * * //

dimensions      [1 0 -3 0 0 0 0];


internalField   uniform 0;

boundaryField
{
    cone
    {
        type            calculated;
        value           nonuniform List<scalar> 
147
(
1.04047e+06
1.04016e+06
1.03981e+06
1.03942e+06
1.03898e+06
1.03847e+06
1.03789e+06
1.03725e+06
1.03653e+06
1.03574e+06
1.03488e+06
1.03395e+06
1.03295e+06
1.03189e+06
1.03075e+06
1.02954e+06
1.02827e+06
1.02693e+06
1.02552e+06
1.02404e+06
1.02249e+06
1.02088e+06
1.01919e+06
1.01744e+06
1.01561e+06
1.01372e+06
1.01176e+06
1.00972e+06
1.00762e+06
1.00545e+06
1.00321e+06
1.0009e+06
998528
996085
993574
990998
988355
985648
982874
980035
977131
974162
971129
968033
964874
961653
958370
955026
951621
948156
944632
941049
937408
933709
929954
926143
922276
918355
914379
910348
906265
902130
897943
893704
889416
885078
880692
876257
871776
867247
862673
858055
853392
848685
843936
839145
834313
829442
824531
819581
814593
809568
804507
799411
794281
789117
783919
778690
773430
768139
762819
757472
752096
746692
741263
735809
730331
724828
719304
713759
708194
702608
697004
691382
685743
680088
674417
668734
663037
657328
651608
645878
640139
634391
628635
622873
617105
611331
605553
599772
593989
588203
582418
576634
570852
565074
559298
553526
547758
541996
536241
530492
524752
519019
513296
507583
501880
496189
490510
484845
479193
473557
467942
462347
456768
451202
1.04158e+06
)
;
    }
    inlet
    {
        type            calculated;
        value           uniform 0;
    }
    rWedge
    {
        type            wedge;
    }
    lWedge
    {
        type            wedge;
    }
    outlet
    {
        type            calculated;
        value           nonuniform 0();
    }
    procBoundary3to2
    {
        type            processor;
        value           uniform 0;
    }
}


// ************************************************************************* //
