/*--------------------------------*- C++ -*----------------------------------*\
| =========                 |                                                 |
| \\      /  F ield         | OpenFOAM: The Open Source CFD Toolbox           |
|  \\    /   O peration     | Version:  v1706                                 |
|   \\  /    A nd           | Web:      www.OpenFOAM.com                      |
|    \\/     M anipulation  |                                                 |
\*---------------------------------------------------------------------------*/
FoamFile
{
    version     2.0;
    format      ascii;
    class       volScalarField;
    location    "1.2e-05";
    object      wallHeatFlux;
}
// * * * * * * * * * * * * * * * * * * * * * * * * * * * * * * * * * * * * * //

dimensions      [1 0 -3 0 0 0 0];


internalField   uniform 0;

boundaryField
{
    cone
    {
        type            calculated;
        value           nonuniform List<scalar> 
147
(
1.06948e+06
1.06917e+06
1.06883e+06
1.06845e+06
1.06802e+06
1.06752e+06
1.06696e+06
1.06633e+06
1.06562e+06
1.06485e+06
1.064e+06
1.06309e+06
1.06211e+06
1.06106e+06
1.05994e+06
1.05875e+06
1.0575e+06
1.05618e+06
1.05478e+06
1.05332e+06
1.05179e+06
1.0502e+06
1.04853e+06
1.0468e+06
1.04499e+06
1.04312e+06
1.04117e+06
1.03916e+06
1.03708e+06
1.03493e+06
1.03271e+06
1.03042e+06
1.02807e+06
1.02565e+06
1.02316e+06
1.0206e+06
1.01798e+06
1.0153e+06
1.01255e+06
1.00974e+06
1.00686e+06
1.00391e+06
1.00091e+06
997835
994703
991509
988253
984937
981561
978125
974630
971077
967466
963798
960073
956293
952458
948569
944625
940629
936579
932478
928325
924121
919868
915566
911215
906816
902370
897879
893342
888759
884133
879464
874753
870000
865206
860371
855498
850586
845636
840649
835627
830568
825475
820349
815190
809998
804776
799524
794241
788929
783590
778223
772830
767412
761970
756504
751015
745503
739971
734420
728849
723259
717652
712030
706392
700738
695070
689390
683698
677996
672281
666558
660828
655091
649345
643594
637839
632078
626314
620548
614782
609017
603253
597489
591728
585970
580215
574465
568719
562979
557246
551519
545801
540091
534391
528701
523022
517354
511701
506064
500451
494860
489282
483714
1.07062e+06
)
;
    }
    inlet
    {
        type            calculated;
        value           uniform 0;
    }
    rWedge
    {
        type            wedge;
    }
    lWedge
    {
        type            wedge;
    }
    outlet
    {
        type            calculated;
        value           nonuniform 0();
    }
    procBoundary3to2
    {
        type            processor;
        value           uniform 0;
    }
}


// ************************************************************************* //
