/*--------------------------------*- C++ -*----------------------------------*\
| =========                 |                                                 |
| \\      /  F ield         | OpenFOAM: The Open Source CFD Toolbox           |
|  \\    /   O peration     | Version:  v1706                                 |
|   \\  /    A nd           | Web:      www.OpenFOAM.com                      |
|    \\/     M anipulation  |                                                 |
\*---------------------------------------------------------------------------*/
FoamFile
{
    version     2.0;
    format      ascii;
    class       volScalarField;
    location    "1.2e-05";
    object      alpha;
}
// * * * * * * * * * * * * * * * * * * * * * * * * * * * * * * * * * * * * * //

dimensions      [1 -1 -1 0 0 0 0];


internalField   nonuniform List<scalar> 
30038
(
1.40478e-05
1.40478e-05
1.40478e-05
1.40478e-05
1.40478e-05
1.40478e-05
1.40478e-05
1.40478e-05
1.40478e-05
1.40478e-05
1.40478e-05
1.40478e-05
1.40478e-05
1.40478e-05
1.40478e-05
1.40478e-05
1.40478e-05
1.40478e-05
1.40478e-05
1.40478e-05
1.40478e-05
1.40478e-05
1.40478e-05
1.40478e-05
1.40478e-05
1.40478e-05
1.40478e-05
1.40478e-05
1.40478e-05
1.40478e-05
1.40478e-05
1.40478e-05
1.40478e-05
1.40478e-05
1.40478e-05
1.40478e-05
1.40478e-05
1.40478e-05
1.40478e-05
1.40478e-05
1.40478e-05
1.40478e-05
1.40478e-05
1.40478e-05
1.40478e-05
1.40478e-05
1.40478e-05
1.40478e-05
1.40478e-05
1.40478e-05
1.40478e-05
1.40478e-05
1.40478e-05
1.40478e-05
1.40478e-05
1.40478e-05
1.40478e-05
1.40478e-05
1.40478e-05
1.40478e-05
1.40478e-05
1.40478e-05
1.40478e-05
1.40478e-05
1.40478e-05
1.40478e-05
1.40478e-05
1.40478e-05
1.40478e-05
1.40478e-05
1.40478e-05
1.40478e-05
1.40478e-05
1.40478e-05
1.40478e-05
1.40478e-05
1.40478e-05
1.40478e-05
1.40478e-05
1.40478e-05
1.40478e-05
1.40478e-05
1.40478e-05
1.40478e-05
1.40478e-05
1.40478e-05
1.40478e-05
1.40478e-05
1.40478e-05
1.40478e-05
1.40478e-05
1.40478e-05
1.40478e-05
1.40478e-05
1.40478e-05
1.40478e-05
1.40478e-05
1.40478e-05
1.40478e-05
1.40478e-05
1.40478e-05
1.40478e-05
1.40478e-05
1.40478e-05
1.40478e-05
1.40478e-05
1.40478e-05
1.40478e-05
1.40478e-05
1.40478e-05
1.40478e-05
1.40478e-05
1.40478e-05
1.40478e-05
1.40478e-05
1.40478e-05
1.40478e-05
1.40478e-05
1.40478e-05
1.40478e-05
1.40478e-05
1.40478e-05
1.40478e-05
1.40478e-05
1.40478e-05
1.40478e-05
1.40478e-05
1.40478e-05
1.40478e-05
1.40478e-05
1.40478e-05
1.40478e-05
1.40478e-05
1.40478e-05
1.40478e-05
1.40478e-05
1.40478e-05
1.40478e-05
1.40478e-05
1.40478e-05
1.40478e-05
1.40478e-05
1.40478e-05
1.40478e-05
1.40478e-05
1.40478e-05
1.40478e-05
1.40478e-05
1.40478e-05
1.40478e-05
1.40478e-05
1.40478e-05
1.40478e-05
1.40478e-05
1.40478e-05
1.40478e-05
1.40478e-05
1.40478e-05
1.40478e-05
1.40478e-05
1.40478e-05
1.40478e-05
1.40478e-05
1.40478e-05
1.40478e-05
1.40478e-05
1.40478e-05
1.40478e-05
1.40478e-05
1.40478e-05
1.40478e-05
1.40478e-05
1.40478e-05
1.40478e-05
1.40478e-05
1.40478e-05
1.40478e-05
1.40478e-05
1.40478e-05
1.40478e-05
1.40478e-05
1.40478e-05
1.40478e-05
1.40478e-05
1.40478e-05
1.40478e-05
1.40478e-05
1.40478e-05
1.40478e-05
1.40478e-05
1.40478e-05
1.40478e-05
1.40478e-05
1.40478e-05
1.40478e-05
1.40478e-05
1.40478e-05
1.40478e-05
1.40478e-05
1.40478e-05
1.40478e-05
1.40478e-05
1.40478e-05
1.40478e-05
1.40478e-05
1.40478e-05
1.40478e-05
1.40478e-05
1.40478e-05
1.40478e-05
1.40478e-05
1.40478e-05
1.40478e-05
1.40478e-05
1.40478e-05
1.40478e-05
1.40478e-05
1.40478e-05
1.40478e-05
1.40478e-05
1.40478e-05
1.40478e-05
1.40478e-05
1.40478e-05
1.40478e-05
1.40478e-05
1.40478e-05
1.40478e-05
1.40478e-05
1.40478e-05
1.40478e-05
1.40478e-05
1.40478e-05
1.40478e-05
1.40478e-05
1.40478e-05
1.40478e-05
1.40478e-05
1.40478e-05
1.40478e-05
1.40478e-05
1.40478e-05
1.40478e-05
1.40478e-05
1.40478e-05
1.40478e-05
1.40478e-05
1.40478e-05
1.40478e-05
1.40478e-05
1.40478e-05
1.40478e-05
1.40478e-05
1.40478e-05
1.40478e-05
1.40478e-05
1.40478e-05
1.40478e-05
1.40478e-05
1.40478e-05
1.40478e-05
1.40478e-05
1.40478e-05
1.40478e-05
1.40478e-05
1.40478e-05
1.40478e-05
1.40478e-05
1.40478e-05
1.40478e-05
1.40478e-05
1.40478e-05
1.40478e-05
1.40478e-05
1.40478e-05
1.40478e-05
1.40478e-05
1.40478e-05
1.40478e-05
1.40478e-05
1.40478e-05
1.40478e-05
1.40478e-05
1.40478e-05
1.40478e-05
1.40478e-05
1.40478e-05
1.40478e-05
1.40478e-05
1.40478e-05
1.40478e-05
1.40478e-05
1.40478e-05
1.40478e-05
1.40478e-05
1.40478e-05
1.40478e-05
1.40478e-05
1.40478e-05
1.40478e-05
1.40478e-05
1.40478e-05
1.40478e-05
1.40478e-05
1.40478e-05
1.40478e-05
1.40478e-05
1.40478e-05
1.40478e-05
1.40478e-05
1.40478e-05
1.40478e-05
1.40478e-05
1.40478e-05
1.40478e-05
1.40478e-05
1.40478e-05
1.40478e-05
1.40478e-05
1.40478e-05
1.40478e-05
1.40478e-05
1.40478e-05
1.40478e-05
1.40478e-05
1.40478e-05
1.40478e-05
1.40478e-05
1.40478e-05
1.40478e-05
1.40478e-05
1.40478e-05
1.40478e-05
1.40478e-05
1.40478e-05
1.40478e-05
1.40478e-05
1.40478e-05
1.40478e-05
1.40478e-05
1.40478e-05
1.40478e-05
1.40478e-05
1.40478e-05
1.40478e-05
1.40478e-05
1.40478e-05
1.40478e-05
1.40478e-05
1.40478e-05
1.40478e-05
1.40478e-05
1.40478e-05
1.40478e-05
1.40478e-05
1.40478e-05
1.40478e-05
1.40478e-05
1.40478e-05
1.40478e-05
1.40478e-05
1.40478e-05
1.40478e-05
1.40478e-05
1.40478e-05
1.40478e-05
1.40478e-05
1.40478e-05
1.40478e-05
1.40478e-05
1.40478e-05
1.40478e-05
1.40478e-05
1.40478e-05
1.40478e-05
1.40478e-05
1.40478e-05
1.40478e-05
1.40478e-05
1.40478e-05
1.40478e-05
1.40478e-05
1.40478e-05
1.40478e-05
1.40478e-05
1.40478e-05
1.40478e-05
1.40478e-05
1.40478e-05
1.40478e-05
1.40478e-05
1.40478e-05
1.40478e-05
1.40478e-05
1.40478e-05
1.40478e-05
1.40478e-05
1.40478e-05
1.40478e-05
1.40478e-05
1.40478e-05
1.40478e-05
1.40478e-05
1.40478e-05
1.40478e-05
1.40478e-05
1.40478e-05
1.40478e-05
1.40478e-05
1.40478e-05
1.40478e-05
1.40478e-05
1.40478e-05
1.40478e-05
1.40478e-05
1.40478e-05
1.40478e-05
1.40478e-05
1.40478e-05
1.40478e-05
1.40478e-05
1.40478e-05
1.40478e-05
1.40478e-05
1.40478e-05
1.40478e-05
1.40478e-05
1.40478e-05
1.40478e-05
1.40478e-05
1.40478e-05
1.40478e-05
1.40478e-05
1.40478e-05
1.40478e-05
1.40478e-05
1.40478e-05
1.40478e-05
1.40478e-05
1.40478e-05
1.40478e-05
1.40478e-05
1.40478e-05
1.40478e-05
1.40478e-05
1.40478e-05
1.40478e-05
1.40478e-05
1.40478e-05
1.40478e-05
1.40478e-05
1.40478e-05
1.40478e-05
1.40478e-05
1.40478e-05
1.40478e-05
1.40478e-05
1.40478e-05
1.40478e-05
1.40478e-05
1.40478e-05
1.40478e-05
1.40478e-05
1.40478e-05
1.40478e-05
1.40478e-05
1.40478e-05
1.40478e-05
1.40478e-05
1.40478e-05
1.40478e-05
1.40478e-05
1.40478e-05
1.40478e-05
1.40478e-05
1.40478e-05
1.40478e-05
1.40478e-05
1.40478e-05
1.40478e-05
1.40478e-05
1.40478e-05
1.40478e-05
1.40478e-05
1.40478e-05
1.40478e-05
1.40478e-05
1.40478e-05
1.40478e-05
1.40478e-05
1.40478e-05
1.40478e-05
1.40478e-05
1.40478e-05
1.40478e-05
1.40478e-05
1.40478e-05
1.40478e-05
1.40478e-05
1.40478e-05
1.40478e-05
1.40478e-05
1.40478e-05
1.40478e-05
1.40478e-05
1.40478e-05
1.40478e-05
1.40478e-05
1.40478e-05
1.40478e-05
1.40478e-05
1.40478e-05
1.40478e-05
1.40478e-05
1.40478e-05
1.40478e-05
1.40478e-05
1.40478e-05
1.40478e-05
1.40478e-05
1.40478e-05
1.40478e-05
1.40478e-05
1.40478e-05
1.40478e-05
1.40478e-05
1.40478e-05
1.40478e-05
1.40478e-05
1.40478e-05
1.40478e-05
1.40478e-05
1.40478e-05
1.40478e-05
1.40478e-05
1.40478e-05
1.40478e-05
1.40478e-05
1.40478e-05
1.40478e-05
1.40478e-05
1.40478e-05
1.40478e-05
1.40478e-05
1.40478e-05
1.40478e-05
1.40478e-05
1.40478e-05
1.40478e-05
1.40478e-05
1.40478e-05
1.40478e-05
1.40478e-05
1.40478e-05
1.40478e-05
1.40478e-05
1.40478e-05
1.40478e-05
1.40478e-05
1.40478e-05
1.40478e-05
1.40478e-05
1.40478e-05
1.40478e-05
1.40478e-05
1.40478e-05
1.40478e-05
1.40478e-05
1.40478e-05
1.40478e-05
1.40478e-05
1.40478e-05
1.40478e-05
1.40478e-05
1.40478e-05
1.40478e-05
1.40478e-05
1.40478e-05
1.40478e-05
1.40478e-05
1.40478e-05
1.40478e-05
1.40478e-05
1.40478e-05
1.40478e-05
1.40478e-05
1.40478e-05
1.40478e-05
1.40478e-05
1.40478e-05
1.40478e-05
1.40478e-05
1.40478e-05
1.40478e-05
1.40478e-05
1.40478e-05
1.40478e-05
1.40478e-05
1.40478e-05
1.40478e-05
1.40478e-05
1.40478e-05
1.40478e-05
1.40478e-05
1.40478e-05
1.40478e-05
1.40478e-05
1.40478e-05
1.40478e-05
1.40478e-05
1.40478e-05
1.40478e-05
1.40478e-05
1.40478e-05
1.40478e-05
1.40478e-05
1.40478e-05
1.40478e-05
1.40478e-05
1.40478e-05
1.40478e-05
1.40478e-05
1.40478e-05
1.40478e-05
1.40478e-05
1.40478e-05
1.40478e-05
1.40478e-05
1.40478e-05
1.40478e-05
1.40478e-05
1.40478e-05
1.40478e-05
1.40478e-05
1.40478e-05
1.40478e-05
1.40478e-05
1.40478e-05
1.40478e-05
1.40478e-05
1.40478e-05
1.40478e-05
1.40478e-05
1.40478e-05
1.40478e-05
1.40478e-05
1.40478e-05
1.40478e-05
1.40478e-05
1.40478e-05
1.40478e-05
1.40478e-05
1.40478e-05
1.40478e-05
1.40478e-05
1.40478e-05
1.40478e-05
1.40478e-05
1.40478e-05
1.40478e-05
1.40478e-05
1.40478e-05
1.40478e-05
1.40478e-05
1.40478e-05
1.40478e-05
1.40478e-05
1.40478e-05
1.40478e-05
1.40478e-05
1.40478e-05
1.40478e-05
1.40478e-05
1.40478e-05
1.40478e-05
1.40478e-05
1.40478e-05
1.40478e-05
1.40478e-05
1.40478e-05
1.40478e-05
1.40478e-05
1.40478e-05
1.40478e-05
1.40478e-05
1.40478e-05
1.40478e-05
1.40478e-05
1.40478e-05
1.40478e-05
1.40478e-05
1.40478e-05
1.40478e-05
1.40478e-05
1.40478e-05
1.40478e-05
1.40478e-05
1.40478e-05
1.40478e-05
1.40478e-05
1.40478e-05
1.40478e-05
1.40478e-05
1.40478e-05
1.40478e-05
1.40478e-05
1.40478e-05
1.40478e-05
1.40478e-05
1.40478e-05
1.40478e-05
1.40478e-05
1.40478e-05
1.40478e-05
1.40478e-05
1.40478e-05
1.40478e-05
1.40478e-05
1.40478e-05
1.40478e-05
1.40478e-05
1.40478e-05
1.40478e-05
1.40478e-05
1.40478e-05
1.40478e-05
1.40478e-05
1.40478e-05
1.40478e-05
1.40478e-05
1.40478e-05
1.40478e-05
1.40478e-05
1.40478e-05
1.40478e-05
1.40478e-05
1.40478e-05
1.40478e-05
1.40478e-05
1.40478e-05
1.40478e-05
1.40478e-05
1.40478e-05
1.40478e-05
1.40478e-05
1.40478e-05
1.40478e-05
1.40478e-05
1.40478e-05
1.40478e-05
1.40478e-05
1.40478e-05
1.40478e-05
1.40478e-05
1.40478e-05
1.40478e-05
1.40478e-05
1.40478e-05
1.40478e-05
1.40478e-05
1.40478e-05
1.40478e-05
1.40478e-05
1.40478e-05
1.40478e-05
1.40478e-05
1.40478e-05
1.40478e-05
1.40478e-05
1.40478e-05
1.40478e-05
1.40478e-05
1.40478e-05
1.40478e-05
1.40478e-05
1.40478e-05
1.40478e-05
1.40478e-05
1.40478e-05
1.40478e-05
1.40478e-05
1.40478e-05
1.40478e-05
1.40478e-05
1.40478e-05
1.40478e-05
1.40478e-05
1.40478e-05
1.40478e-05
1.40478e-05
1.40478e-05
1.40478e-05
1.40478e-05
1.40478e-05
1.40478e-05
1.40478e-05
1.40478e-05
1.40478e-05
1.40478e-05
1.40478e-05
1.40478e-05
1.40478e-05
1.40478e-05
1.40478e-05
1.40478e-05
1.40478e-05
1.40478e-05
1.40478e-05
1.40478e-05
1.40478e-05
1.40478e-05
1.40478e-05
1.40478e-05
1.40478e-05
1.40478e-05
1.40478e-05
1.40478e-05
1.40478e-05
1.40478e-05
1.40478e-05
1.40478e-05
1.40478e-05
1.40478e-05
1.40478e-05
1.40478e-05
1.40478e-05
1.40478e-05
1.40478e-05
1.40478e-05
1.40478e-05
1.40478e-05
1.40478e-05
1.40478e-05
1.40478e-05
1.40478e-05
1.40478e-05
1.40478e-05
1.40478e-05
1.40478e-05
1.40478e-05
1.40478e-05
1.40478e-05
1.40478e-05
1.40478e-05
1.40478e-05
1.40478e-05
1.40478e-05
1.40478e-05
1.40478e-05
1.40478e-05
1.40478e-05
1.40478e-05
1.40478e-05
1.40478e-05
1.40478e-05
1.40478e-05
1.40478e-05
1.40478e-05
1.40478e-05
1.40478e-05
1.40478e-05
1.40478e-05
1.40478e-05
1.40478e-05
1.40478e-05
1.40478e-05
1.40478e-05
1.40478e-05
1.40478e-05
1.40478e-05
1.40478e-05
1.40478e-05
1.40478e-05
1.40478e-05
1.40478e-05
1.40478e-05
1.40478e-05
1.40478e-05
1.40478e-05
1.40478e-05
1.40478e-05
1.40478e-05
1.40478e-05
1.40478e-05
1.40478e-05
1.40478e-05
1.40478e-05
1.40478e-05
1.40478e-05
1.40478e-05
1.40478e-05
1.40478e-05
1.40478e-05
1.40478e-05
1.40478e-05
1.40478e-05
1.40478e-05
1.40478e-05
1.40478e-05
1.40478e-05
1.40478e-05
1.40478e-05
1.40478e-05
1.40478e-05
1.40478e-05
1.40478e-05
1.40478e-05
1.40478e-05
1.40478e-05
1.40478e-05
1.40478e-05
1.40478e-05
1.40478e-05
1.40478e-05
1.40478e-05
1.40478e-05
1.40478e-05
1.40478e-05
1.40478e-05
1.40478e-05
1.40478e-05
1.40478e-05
1.40478e-05
1.40478e-05
1.40478e-05
1.40478e-05
1.40478e-05
1.40478e-05
1.40478e-05
1.40478e-05
1.40478e-05
1.40478e-05
1.40478e-05
1.40478e-05
1.40478e-05
1.40478e-05
1.40478e-05
1.40478e-05
1.40478e-05
1.40478e-05
1.40478e-05
1.40478e-05
1.40478e-05
1.40478e-05
1.40478e-05
1.40478e-05
1.40478e-05
1.40478e-05
1.40478e-05
1.40478e-05
1.40478e-05
1.40478e-05
1.40478e-05
1.40478e-05
1.40478e-05
1.40478e-05
1.40478e-05
1.40478e-05
1.40478e-05
1.40478e-05
1.40478e-05
1.40478e-05
1.40478e-05
1.40478e-05
1.40478e-05
1.40478e-05
1.40478e-05
1.40478e-05
1.40478e-05
1.40478e-05
1.40478e-05
1.40478e-05
1.40478e-05
1.40478e-05
1.40478e-05
1.40478e-05
1.40478e-05
1.40478e-05
1.40478e-05
1.40478e-05
1.40478e-05
1.40478e-05
1.40478e-05
1.40478e-05
1.40478e-05
1.40478e-05
1.40478e-05
1.40478e-05
1.40478e-05
1.40478e-05
1.40478e-05
1.40478e-05
1.40478e-05
1.40478e-05
1.40478e-05
1.40478e-05
1.40478e-05
1.40478e-05
1.40478e-05
1.40478e-05
1.40478e-05
1.40478e-05
1.40478e-05
1.40478e-05
1.40478e-05
1.40478e-05
1.40478e-05
1.40478e-05
1.40478e-05
1.40478e-05
1.40478e-05
1.40478e-05
1.40478e-05
1.40478e-05
1.40478e-05
1.40478e-05
1.40478e-05
1.40478e-05
1.40478e-05
1.40478e-05
1.40478e-05
1.40478e-05
1.40478e-05
1.40478e-05
1.40478e-05
1.40478e-05
1.40478e-05
1.40478e-05
1.40478e-05
1.40478e-05
1.40478e-05
1.40478e-05
1.40478e-05
1.40478e-05
1.40478e-05
1.40478e-05
1.40478e-05
1.40478e-05
1.40478e-05
1.40478e-05
1.40478e-05
1.40478e-05
1.40478e-05
1.40478e-05
1.40478e-05
1.40478e-05
1.40478e-05
1.40478e-05
1.40478e-05
1.40478e-05
1.40478e-05
1.40478e-05
1.40478e-05
1.40478e-05
1.40478e-05
1.40478e-05
1.40478e-05
1.40478e-05
1.40478e-05
1.40478e-05
1.40478e-05
1.40478e-05
1.40478e-05
1.40478e-05
1.40478e-05
1.40478e-05
1.40478e-05
1.40478e-05
1.40478e-05
1.40478e-05
1.40478e-05
1.40478e-05
1.40478e-05
1.40478e-05
1.40478e-05
1.40478e-05
1.40478e-05
1.40478e-05
1.40478e-05
1.40478e-05
1.40478e-05
1.40478e-05
1.40478e-05
1.40478e-05
1.40478e-05
1.40478e-05
1.40478e-05
1.40478e-05
1.40478e-05
1.40478e-05
1.40478e-05
1.40478e-05
1.40478e-05
1.40478e-05
1.40478e-05
1.40478e-05
1.40478e-05
1.40478e-05
1.40478e-05
1.40478e-05
1.40478e-05
1.40478e-05
1.40478e-05
1.40478e-05
1.40478e-05
1.40478e-05
1.40478e-05
1.40478e-05
1.40478e-05
1.40478e-05
1.40478e-05
1.40478e-05
1.40478e-05
1.40478e-05
1.40478e-05
1.40478e-05
1.40478e-05
1.40478e-05
1.40478e-05
1.40478e-05
1.40478e-05
1.40478e-05
1.40478e-05
1.40478e-05
1.40478e-05
1.40478e-05
1.40478e-05
1.40478e-05
1.40478e-05
1.40478e-05
1.40478e-05
1.40478e-05
1.40478e-05
1.40478e-05
1.40478e-05
1.40478e-05
1.40478e-05
1.40478e-05
1.40478e-05
1.40478e-05
1.40478e-05
1.40478e-05
1.40478e-05
1.40478e-05
1.40478e-05
1.40478e-05
1.40478e-05
1.40478e-05
1.40478e-05
1.40478e-05
1.40478e-05
1.40478e-05
1.40478e-05
1.40478e-05
1.40478e-05
1.40478e-05
1.40478e-05
1.40478e-05
1.40478e-05
1.40478e-05
1.40478e-05
1.40478e-05
1.40478e-05
1.40478e-05
1.40478e-05
1.40478e-05
1.40478e-05
1.40478e-05
1.40478e-05
1.40478e-05
1.40478e-05
1.40478e-05
1.40478e-05
1.40478e-05
1.40478e-05
1.40478e-05
1.40478e-05
1.40478e-05
1.40478e-05
1.40478e-05
1.40478e-05
1.40478e-05
1.40478e-05
1.40478e-05
1.40478e-05
1.40478e-05
1.40478e-05
1.40478e-05
1.40478e-05
1.40478e-05
1.40478e-05
1.40478e-05
1.40478e-05
1.40478e-05
1.40478e-05
1.40478e-05
1.40478e-05
1.40478e-05
1.40478e-05
1.40478e-05
1.40478e-05
1.40478e-05
1.40478e-05
1.40478e-05
1.40478e-05
1.40478e-05
1.40478e-05
1.40478e-05
1.40478e-05
1.40478e-05
1.40478e-05
1.40478e-05
1.40478e-05
1.40478e-05
1.40478e-05
1.40478e-05
1.40478e-05
1.40478e-05
1.40478e-05
1.40478e-05
1.40478e-05
1.40478e-05
1.40478e-05
1.40478e-05
1.40478e-05
1.40478e-05
1.40478e-05
1.40478e-05
1.40478e-05
1.40478e-05
1.40478e-05
1.40478e-05
1.40478e-05
1.40478e-05
1.40478e-05
1.40478e-05
1.40478e-05
1.40478e-05
1.40478e-05
1.40478e-05
1.40478e-05
1.40478e-05
1.40478e-05
1.40478e-05
1.40478e-05
1.40478e-05
1.40478e-05
1.40478e-05
1.40478e-05
1.40478e-05
1.40478e-05
1.40478e-05
1.40478e-05
1.40478e-05
1.40478e-05
1.40478e-05
1.40478e-05
1.40478e-05
1.40478e-05
1.40478e-05
1.40478e-05
1.40478e-05
1.40478e-05
1.40478e-05
1.40478e-05
1.40478e-05
1.40478e-05
1.40478e-05
1.40478e-05
1.40478e-05
1.40478e-05
1.40478e-05
1.40478e-05
1.40478e-05
1.40478e-05
1.40478e-05
1.40478e-05
1.40478e-05
1.40478e-05
1.40478e-05
1.40478e-05
1.40478e-05
1.40478e-05
1.40478e-05
1.40478e-05
1.40478e-05
1.40478e-05
1.40478e-05
1.40478e-05
1.40479e-05
1.40479e-05
1.40481e-05
1.40478e-05
1.40478e-05
1.40478e-05
1.40478e-05
1.40478e-05
1.40478e-05
1.40478e-05
1.40478e-05
1.40478e-05
1.40478e-05
1.40478e-05
1.40478e-05
1.40478e-05
1.40478e-05
1.40478e-05
1.40478e-05
1.40478e-05
1.40478e-05
1.40478e-05
1.40478e-05
1.40478e-05
1.40478e-05
1.40478e-05
1.40478e-05
1.40478e-05
1.40478e-05
1.40478e-05
1.40478e-05
1.40478e-05
1.40478e-05
1.40478e-05
1.40478e-05
1.40478e-05
1.40478e-05
1.40478e-05
1.40478e-05
1.40478e-05
1.40478e-05
1.40478e-05
1.40478e-05
1.40478e-05
1.40478e-05
1.40478e-05
1.40478e-05
1.40479e-05
1.40479e-05
1.4048e-05
1.40482e-05
1.40486e-05
1.40494e-05
1.40478e-05
1.40478e-05
1.40478e-05
1.40478e-05
1.40478e-05
1.40478e-05
1.40478e-05
1.40478e-05
1.40478e-05
1.40478e-05
1.40478e-05
1.40478e-05
1.40478e-05
1.40478e-05
1.40478e-05
1.40478e-05
1.40478e-05
1.40478e-05
1.40478e-05
1.40478e-05
1.40478e-05
1.40478e-05
1.40478e-05
1.40478e-05
1.40478e-05
1.40478e-05
1.40478e-05
1.40478e-05
1.40478e-05
1.40478e-05
1.40478e-05
1.40478e-05
1.40478e-05
1.40478e-05
1.40478e-05
1.40478e-05
1.40478e-05
1.40478e-05
1.40478e-05
1.40478e-05
1.40478e-05
1.40479e-05
1.40479e-05
1.4048e-05
1.40482e-05
1.40486e-05
1.40492e-05
1.40503e-05
1.40524e-05
1.40565e-05
1.40478e-05
1.40478e-05
1.40478e-05
1.40478e-05
1.40478e-05
1.40478e-05
1.40478e-05
1.40478e-05
1.40478e-05
1.40478e-05
1.40478e-05
1.40478e-05
1.40478e-05
1.40478e-05
1.40478e-05
1.40478e-05
1.40478e-05
1.40478e-05
1.40478e-05
1.40478e-05
1.40478e-05
1.40478e-05
1.40478e-05
1.40478e-05
1.40478e-05
1.40478e-05
1.40478e-05
1.40478e-05
1.40478e-05
1.40478e-05
1.40478e-05
1.40478e-05
1.40478e-05
1.40478e-05
1.40478e-05
1.40478e-05
1.40478e-05
1.40478e-05
1.40479e-05
1.40479e-05
1.4048e-05
1.40482e-05
1.40485e-05
1.40491e-05
1.40502e-05
1.40521e-05
1.40555e-05
1.40617e-05
1.40731e-05
1.40953e-05
1.40478e-05
1.40478e-05
1.40478e-05
1.40478e-05
1.40478e-05
1.40478e-05
1.40478e-05
1.40478e-05
1.40478e-05
1.40478e-05
1.40478e-05
1.40478e-05
1.40478e-05
1.40478e-05
1.40478e-05
1.40478e-05
1.40478e-05
1.40478e-05
1.40478e-05
1.40478e-05
1.40478e-05
1.40478e-05
1.40478e-05
1.40478e-05
1.40478e-05
1.40478e-05
1.40478e-05
1.40478e-05
1.40478e-05
1.40478e-05
1.40478e-05
1.40478e-05
1.40478e-05
1.40478e-05
1.40478e-05
1.40479e-05
1.40479e-05
1.4048e-05
1.40482e-05
1.40486e-05
1.40491e-05
1.40501e-05
1.40519e-05
1.40552e-05
1.40609e-05
1.40711e-05
1.40895e-05
1.41226e-05
1.4183e-05
1.42979e-05
1.40478e-05
1.40478e-05
1.40478e-05
1.40478e-05
1.40478e-05
1.40478e-05
1.40478e-05
1.40478e-05
1.40478e-05
1.40478e-05
1.40478e-05
1.40478e-05
1.40478e-05
1.40478e-05
1.40478e-05
1.40478e-05
1.40478e-05
1.40478e-05
1.40478e-05
1.40478e-05
1.40478e-05
1.40478e-05
1.40478e-05
1.40478e-05
1.40478e-05
1.40478e-05
1.40478e-05
1.40478e-05
1.40478e-05
1.40478e-05
1.40478e-05
1.40478e-05
1.40479e-05
1.40479e-05
1.40481e-05
1.40482e-05
1.40486e-05
1.40492e-05
1.40502e-05
1.40519e-05
1.4055e-05
1.40605e-05
1.40702e-05
1.40872e-05
1.41175e-05
1.41713e-05
1.42669e-05
1.44363e-05
1.47366e-05
1.52747e-05
1.40478e-05
1.40478e-05
1.40478e-05
1.40478e-05
1.40478e-05
1.40478e-05
1.40478e-05
1.40478e-05
1.40478e-05
1.40478e-05
1.40478e-05
1.40478e-05
1.40478e-05
1.40478e-05
1.40478e-05
1.40478e-05
1.40478e-05
1.40478e-05
1.40478e-05
1.40478e-05
1.40478e-05
1.40478e-05
1.40478e-05
1.40478e-05
1.40478e-05
1.40478e-05
1.40478e-05
1.40478e-05
1.40478e-05
1.40479e-05
1.4048e-05
1.40481e-05
1.40483e-05
1.40486e-05
1.40492e-05
1.40503e-05
1.40521e-05
1.40551e-05
1.40605e-05
1.40699e-05
1.40862e-05
1.41148e-05
1.4165e-05
1.4253e-05
1.44066e-05
1.46732e-05
1.51293e-05
1.5892e-05
1.71248e-05
1.90373e-05
1.40478e-05
1.40478e-05
1.40478e-05
1.40478e-05
1.40478e-05
1.40478e-05
1.40478e-05
1.40478e-05
1.40478e-05
1.40478e-05
1.40478e-05
1.40478e-05
1.40478e-05
1.40478e-05
1.40478e-05
1.40478e-05
1.40478e-05
1.40478e-05
1.40478e-05
1.40478e-05
1.40478e-05
1.40478e-05
1.40478e-05
1.40478e-05
1.40478e-05
1.40479e-05
1.40479e-05
1.4048e-05
1.40481e-05
1.40483e-05
1.40487e-05
1.40494e-05
1.40504e-05
1.40523e-05
1.40554e-05
1.40609e-05
1.40702e-05
1.40863e-05
1.41141e-05
1.41622e-05
1.42455e-05
1.43892e-05
1.46357e-05
1.5053e-05
1.57439e-05
1.68491e-05
1.85336e-05
2.09518e-05
2.42039e-05
2.82979e-05
1.40478e-05
1.40478e-05
1.40478e-05
1.40478e-05
1.40478e-05
1.40478e-05
1.40478e-05
1.40478e-05
1.40478e-05
1.40478e-05
1.40478e-05
1.40478e-05
1.40478e-05
1.40478e-05
1.40478e-05
1.40478e-05
1.40478e-05
1.40478e-05
1.40478e-05
1.40478e-05
1.40478e-05
1.40478e-05
1.40479e-05
1.40479e-05
1.4048e-05
1.40482e-05
1.40484e-05
1.40488e-05
1.40495e-05
1.40507e-05
1.40527e-05
1.4056e-05
1.40616e-05
1.40711e-05
1.40874e-05
1.41151e-05
1.41625e-05
1.42435e-05
1.43816e-05
1.46156e-05
1.50076e-05
1.56508e-05
1.66732e-05
1.8227e-05
2.04576e-05
2.34594e-05
2.72415e-05
3.17245e-05
3.67714e-05
4.22098e-05
1.40478e-05
1.40478e-05
1.40478e-05
1.40478e-05
1.40478e-05
1.40478e-05
1.40478e-05
1.40478e-05
1.40478e-05
1.40478e-05
1.40478e-05
1.40478e-05
1.40478e-05
1.40478e-05
1.40478e-05
1.40478e-05
1.40478e-05
1.40478e-05
1.40479e-05
1.40479e-05
1.4048e-05
1.40481e-05
1.40482e-05
1.40485e-05
1.4049e-05
1.40498e-05
1.40511e-05
1.40532e-05
1.40568e-05
1.40628e-05
1.40728e-05
1.40897e-05
1.41181e-05
1.4166e-05
1.42469e-05
1.43831e-05
1.4611e-05
1.49884e-05
1.56015e-05
1.65681e-05
1.80296e-05
2.01243e-05
2.2948e-05
2.65201e-05
3.0775e-05
3.55825e-05
4.07828e-05
4.62181e-05
5.17551e-05
5.72688e-05
1.40478e-05
1.40478e-05
1.40478e-05
1.40478e-05
1.40478e-05
1.40478e-05
1.40478e-05
1.40478e-05
1.40478e-05
1.40478e-05
1.40478e-05
1.40478e-05
1.40478e-05
1.40478e-05
1.40478e-05
1.40479e-05
1.40479e-05
1.4048e-05
1.40481e-05
1.40483e-05
1.40487e-05
1.40492e-05
1.40501e-05
1.40516e-05
1.4054e-05
1.40579e-05
1.40645e-05
1.40753e-05
1.40933e-05
1.41231e-05
1.41729e-05
1.42558e-05
1.43937e-05
1.46214e-05
1.49939e-05
1.5592e-05
1.65255e-05
1.79262e-05
1.99242e-05
2.26135e-05
2.602e-05
3.00917e-05
3.4714e-05
3.97392e-05
4.50149e-05
5.04022e-05
5.57843e-05
6.10588e-05
6.61365e-05
7.09564e-05
1.40478e-05
1.40478e-05
1.40478e-05
1.40478e-05
1.40478e-05
1.40478e-05
1.40478e-05
1.40478e-05
1.40478e-05
1.40478e-05
1.40478e-05
1.40479e-05
1.40479e-05
1.4048e-05
1.40481e-05
1.40482e-05
1.40485e-05
1.40489e-05
1.40495e-05
1.40506e-05
1.40523e-05
1.40551e-05
1.40596e-05
1.40669e-05
1.40789e-05
1.40985e-05
1.41308e-05
1.41838e-05
1.4271e-05
1.44141e-05
1.46475e-05
1.50241e-05
1.56212e-05
1.65422e-05
1.79102e-05
1.98465e-05
2.24403e-05
2.57195e-05
2.96411e-05
3.41034e-05
3.89722e-05
4.41051e-05
4.93702e-05
5.46538e-05
5.98574e-05
6.48893e-05
6.96728e-05
7.41455e-05
7.82323e-05
8.18687e-05
1.40478e-05
1.40478e-05
1.40478e-05
1.40478e-05
1.40478e-05
1.40478e-05
1.40478e-05
1.40479e-05
1.40479e-05
1.40479e-05
1.4048e-05
1.40481e-05
1.40483e-05
1.40487e-05
1.40492e-05
1.405e-05
1.40512e-05
1.40533e-05
1.40565e-05
1.40618e-05
1.40702e-05
1.40838e-05
1.41059e-05
1.41416e-05
1.41996e-05
1.42937e-05
1.4446e-05
1.46911e-05
1.50811e-05
1.56908e-05
1.66187e-05
1.79798e-05
1.98865e-05
2.24206e-05
2.56083e-05
2.94115e-05
3.37384e-05
3.84661e-05
4.34634e-05
4.86069e-05
5.37884e-05
5.89164e-05
6.39059e-05
6.86795e-05
7.31727e-05
7.73232e-05
8.10518e-05
8.42747e-05
8.69266e-05
8.90333e-05
1.40478e-05
1.40478e-05
1.40478e-05
1.40478e-05
1.40478e-05
1.40479e-05
1.40479e-05
1.4048e-05
1.40481e-05
1.40483e-05
1.40485e-05
1.40489e-05
1.40496e-05
1.40506e-05
1.40522e-05
1.40547e-05
1.40586e-05
1.40649e-05
1.40748e-05
1.40907e-05
1.4116e-05
1.41566e-05
1.42216e-05
1.43258e-05
1.4492e-05
1.47555e-05
1.51689e-05
1.58052e-05
1.6759e-05
1.81381e-05
2.00449e-05
2.25523e-05
2.56817e-05
2.93966e-05
3.36121e-05
3.82155e-05
4.30863e-05
4.81097e-05
5.31845e-05
5.82246e-05
6.31534e-05
6.78968e-05
7.23913e-05
7.65806e-05
8.04016e-05
8.37746e-05
8.66273e-05
8.89235e-05
9.06877e-05
9.19823e-05
9.29236e-05
1.40478e-05
1.40479e-05
1.40479e-05
1.4048e-05
1.40481e-05
1.40482e-05
1.40485e-05
1.40488e-05
1.40493e-05
1.40502e-05
1.40515e-05
1.40535e-05
1.40566e-05
1.40615e-05
1.40691e-05
1.40812e-05
1.41001e-05
1.413e-05
1.41773e-05
1.4252e-05
1.43701e-05
1.45558e-05
1.4846e-05
1.52938e-05
1.5972e-05
1.69714e-05
1.83924e-05
2.03274e-05
2.28384e-05
2.59398e-05
2.9594e-05
3.37211e-05
3.82169e-05
4.29708e-05
4.78774e-05
5.28429e-05
5.77863e-05
6.26385e-05
6.73317e-05
7.18038e-05
7.60019e-05
7.98734e-05
8.33517e-05
8.6363e-05
8.88551e-05
9.08195e-05
9.23002e-05
9.33715e-05
9.41272e-05
9.46477e-05
9.50167e-05
1.4048e-05
1.40481e-05
1.40482e-05
1.40484e-05
1.40487e-05
1.40492e-05
1.40499e-05
1.40511e-05
1.40528e-05
1.40554e-05
1.40594e-05
1.40656e-05
1.40752e-05
1.40901e-05
1.41133e-05
1.41495e-05
1.42059e-05
1.42939e-05
1.44309e-05
1.46433e-05
1.49698e-05
1.54654e-05
1.62023e-05
1.7268e-05
1.87552e-05
2.07449e-05
2.32871e-05
2.63875e-05
3.00055e-05
3.40646e-05
3.84682e-05
4.31149e-05
4.79087e-05
5.27634e-05
5.76045e-05
6.23681e-05
6.69945e-05
7.14246e-05
7.56066e-05
7.94942e-05
8.30331e-05
8.61567e-05
8.88048e-05
9.09485e-05
9.26048e-05
9.38321e-05
9.47084e-05
9.53194e-05
9.57357e-05
9.60214e-05
9.62174e-05
9.63523e-05
1.40487e-05
1.40492e-05
1.40498e-05
1.40508e-05
1.40524e-05
1.40546e-05
1.40581e-05
1.40634e-05
1.40715e-05
1.40839e-05
1.41028e-05
1.41319e-05
1.41767e-05
1.42456e-05
1.43516e-05
1.45143e-05
1.47625e-05
1.51378e-05
1.56968e-05
1.65117e-05
1.76661e-05
1.92438e-05
2.13133e-05
2.39115e-05
2.7034e-05
3.06365e-05
3.46449e-05
3.89694e-05
4.35176e-05
4.82027e-05
5.29466e-05
5.76813e-05
6.23479e-05
6.68935e-05
7.12637e-05
7.54088e-05
7.92854e-05
8.28486e-05
8.60417e-05
8.8804e-05
9.10942e-05
9.29082e-05
9.42838e-05
9.52859e-05
9.59927e-05
9.64797e-05
9.68088e-05
9.70313e-05
9.71771e-05
9.72693e-05
9.73404e-05
9.74047e-05
1.40522e-05
1.40543e-05
1.40575e-05
1.40623e-05
1.40694e-05
1.40802e-05
1.40964e-05
1.41211e-05
1.41584e-05
1.42152e-05
1.43013e-05
1.4432e-05
1.46293e-05
1.49255e-05
1.5365e-05
1.60065e-05
1.69215e-05
1.81884e-05
1.98808e-05
2.20533e-05
2.47286e-05
2.78921e-05
3.14953e-05
3.54664e-05
3.97222e-05
4.41791e-05
4.87591e-05
5.33922e-05
5.80171e-05
6.25798e-05
6.70328e-05
7.13281e-05
7.54182e-05
7.92618e-05
8.28201e-05
8.60459e-05
8.88834e-05
9.12849e-05
9.3231e-05
9.47401e-05
9.58636e-05
9.66689e-05
9.72298e-05
9.761e-05
9.78646e-05
9.80327e-05
9.81361e-05
9.81973e-05
9.825e-05
9.82852e-05
9.82814e-05
9.82643e-05
1.40685e-05
1.40784e-05
1.40931e-05
1.4115e-05
1.41478e-05
1.41969e-05
1.42704e-05
1.43805e-05
1.45448e-05
1.4789e-05
1.51489e-05
1.56721e-05
1.6419e-05
1.74591e-05
1.88636e-05
2.06941e-05
2.29899e-05
2.57591e-05
2.89772e-05
3.25925e-05
3.65355e-05
4.07298e-05
4.51001e-05
4.95773e-05
5.40993e-05
5.8611e-05
6.3064e-05
6.74151e-05
7.16224e-05
7.56419e-05
7.94343e-05
8.2964e-05
8.61919e-05
8.90688e-05
9.15464e-05
9.35957e-05
9.52192e-05
9.64526e-05
9.73532e-05
9.79888e-05
9.84252e-05
9.87151e-05
9.89054e-05
9.90242e-05
9.90891e-05
9.9131e-05
9.91663e-05
9.91658e-05
9.91439e-05
9.91064e-05
9.90552e-05
9.90031e-05
1.41428e-05
1.41874e-05
1.42533e-05
1.43507e-05
1.44942e-05
1.4705e-05
1.50125e-05
1.54566e-05
1.6088e-05
1.69672e-05
1.81596e-05
1.9727e-05
2.17166e-05
2.41514e-05
2.70259e-05
3.03067e-05
3.39399e-05
3.78593e-05
4.19954e-05
4.62815e-05
5.06565e-05
5.50661e-05
5.94616e-05
6.37996e-05
6.80412e-05
7.21495e-05
7.60849e-05
7.98098e-05
8.32913e-05
8.64958e-05
8.93815e-05
9.19025e-05
9.40245e-05
9.57384e-05
9.70661e-05
9.80549e-05
9.87635e-05
9.92545e-05
9.95834e-05
9.9798e-05
9.9934e-05
0.000100007
0.000100041
0.000100067
0.000100075
0.000100054
0.000100013
9.99568e-05
9.98917e-05
9.98251e-05
9.97608e-05
9.97e-05
1.44689e-05
1.46595e-05
1.49343e-05
1.53273e-05
1.58819e-05
1.66508e-05
1.76926e-05
1.90657e-05
2.08193e-05
2.29845e-05
2.55685e-05
2.8553e-05
3.18981e-05
3.55493e-05
3.94449e-05
4.35226e-05
4.77238e-05
5.19957e-05
5.62909e-05
6.05668e-05
6.47848e-05
6.89101e-05
7.291e-05
7.67491e-05
8.03923e-05
8.38087e-05
8.69689e-05
8.98371e-05
9.23718e-05
9.45369e-05
9.63162e-05
9.77199e-05
9.87837e-05
9.95586e-05
0.000100103
0.000100472
0.000100712
0.000100862
0.000100948
0.000100983
0.000100997
0.000101002
0.000100985
0.000100942
0.000100884
0.000100812
0.000100736
0.000100658
0.000100583
0.000100508
0.000100435
0.000100366
1.57724e-05
1.64699e-05
1.74102e-05
1.86466e-05
2.02269e-05
2.21852e-05
2.45359e-05
2.72714e-05
3.03632e-05
3.37675e-05
3.74312e-05
4.12983e-05
4.53138e-05
4.94273e-05
5.35933e-05
5.7771e-05
6.19234e-05
6.60165e-05
7.0019e-05
7.3902e-05
7.76341e-05
8.11831e-05
8.45199e-05
8.76178e-05
9.04465e-05
9.2969e-05
9.51503e-05
9.69693e-05
9.84274e-05
9.95509e-05
0.000100383
0.000100976
0.000101382
0.000101649
0.000101814
0.000101911
0.000101951
0.000101956
0.000101951
0.000101935
0.000101892
0.00010183
0.000101756
0.000101671
0.000101583
0.000101496
0.000101411
0.000101325
0.000101242
0.000101159
0.000101077
0.000100997
2.16972e-05
2.38705e-05
2.64073e-05
2.92874e-05
3.2476e-05
3.59279e-05
3.95937e-05
4.34236e-05
4.73704e-05
5.13909e-05
5.54465e-05
5.95026e-05
6.3527e-05
6.74899e-05
7.13635e-05
7.5122e-05
7.87378e-05
8.21814e-05
8.54256e-05
8.84461e-05
9.12166e-05
9.37047e-05
9.58772e-05
9.77112e-05
9.92023e-05
0.000100369
0.000101246
0.000101879
0.000102319
0.000102611
0.000102791
0.000102896
0.000102945
0.000102944
0.00010293
0.000102907
0.000102866
0.0001028
0.000102721
0.00010263
0.000102533
0.000102435
0.000102339
0.000102243
0.000102147
0.000102053
0.00010196
0.000101867
0.000101775
0.000101684
0.000101594
3.16388e-05
3.49059e-05
3.83882e-05
4.20413e-05
4.58222e-05
4.9691e-05
5.36113e-05
5.7551e-05
6.14804e-05
6.53718e-05
6.91992e-05
7.29381e-05
7.65652e-05
8.00563e-05
8.33843e-05
8.65244e-05
8.94542e-05
9.21504e-05
9.45846e-05
9.67266e-05
9.85531e-05
0.000100056
0.000101247
0.000102155
0.00010282
0.000103287