/*--------------------------------*- C++ -*----------------------------------*\
| =========                 |                                                 |
| \\      /  F ield         | OpenFOAM: The Open Source CFD Toolbox           |
|  \\    /   O peration     | Version:  v1706                                 |
|   \\  /    A nd           | Web:      www.OpenFOAM.com                      |
|    \\/     M anipulation  |                                                 |
\*---------------------------------------------------------------------------*/
FoamFile
{
    version     2.0;
    format      ascii;
    class       volScalarField;
    location    "1.2e-05";
    object      kappatr;
}
// * * * * * * * * * * * * * * * * * * * * * * * * * * * * * * * * * * * * * //

dimensions      [1 1 -3 -1 0 0 0];


internalField   nonuniform List<scalar> 
30038
(
0.014593
0.014593
0.014593
0.014593
0.014593
0.014593
0.014593
0.014593
0.014593
0.014593
0.014593
0.014593
0.014593
0.014593
0.014593
0.014593
0.014593
0.014593
0.014593
0.014593
0.014593
0.014593
0.014593
0.014593
0.014593
0.014593
0.014593
0.014593
0.014593
0.014593
0.014593
0.014593
0.014593
0.014593
0.014593
0.014593
0.014593
0.014593
0.014593
0.014593
0.014593
0.014593
0.014593
0.014593
0.014593
0.014593
0.014593
0.014593
0.014593
0.014593
0.014593
0.014593
0.014593
0.014593
0.014593
0.014593
0.014593
0.014593
0.014593
0.014593
0.014593
0.014593
0.014593
0.014593
0.014593
0.014593
0.014593
0.014593
0.014593
0.014593
0.014593
0.014593
0.014593
0.014593
0.014593
0.014593
0.014593
0.014593
0.014593
0.014593
0.014593
0.014593
0.014593
0.014593
0.014593
0.014593
0.014593
0.014593
0.014593
0.014593
0.014593
0.014593
0.014593
0.014593
0.014593
0.014593
0.014593
0.014593
0.014593
0.014593
0.014593
0.014593
0.014593
0.014593
0.014593
0.014593
0.014593
0.014593
0.014593
0.014593
0.014593
0.014593
0.014593
0.014593
0.014593
0.014593
0.014593
0.014593
0.014593
0.014593
0.014593
0.014593
0.014593
0.014593
0.014593
0.014593
0.014593
0.014593
0.014593
0.014593
0.014593
0.014593
0.014593
0.014593
0.014593
0.014593
0.014593
0.014593
0.014593
0.014593
0.014593
0.014593
0.014593
0.014593
0.014593
0.014593
0.014593
0.014593
0.014593
0.014593
0.014593
0.014593
0.014593
0.014593
0.014593
0.014593
0.014593
0.014593
0.014593
0.014593
0.014593
0.014593
0.014593
0.014593
0.014593
0.014593
0.014593
0.014593
0.014593
0.014593
0.014593
0.014593
0.014593
0.014593
0.014593
0.014593
0.014593
0.014593
0.014593
0.014593
0.014593
0.014593
0.014593
0.014593
0.014593
0.014593
0.014593
0.014593
0.014593
0.014593
0.014593
0.014593
0.014593
0.014593
0.014593
0.014593
0.014593
0.014593
0.014593
0.014593
0.014593
0.014593
0.014593
0.014593
0.014593
0.014593
0.014593
0.014593
0.014593
0.014593
0.014593
0.014593
0.014593
0.014593
0.014593
0.014593
0.014593
0.014593
0.014593
0.014593
0.014593
0.014593
0.014593
0.014593
0.014593
0.014593
0.014593
0.014593
0.014593
0.014593
0.014593
0.014593
0.014593
0.014593
0.014593
0.014593
0.014593
0.014593
0.014593
0.014593
0.014593
0.014593
0.014593
0.014593
0.014593
0.014593
0.014593
0.014593
0.014593
0.014593
0.014593
0.014593
0.014593
0.014593
0.014593
0.014593
0.014593
0.014593
0.014593
0.014593
0.014593
0.014593
0.014593
0.014593
0.014593
0.014593
0.014593
0.014593
0.014593
0.014593
0.014593
0.014593
0.014593
0.014593
0.014593
0.014593
0.014593
0.014593
0.014593
0.014593
0.014593
0.014593
0.014593
0.014593
0.014593
0.014593
0.014593
0.014593
0.014593
0.014593
0.014593
0.014593
0.014593
0.014593
0.014593
0.014593
0.014593
0.014593
0.014593
0.014593
0.014593
0.014593
0.014593
0.014593
0.014593
0.014593
0.014593
0.014593
0.014593
0.014593
0.014593
0.014593
0.014593
0.014593
0.014593
0.014593
0.014593
0.014593
0.014593
0.014593
0.014593
0.014593
0.014593
0.014593
0.014593
0.014593
0.014593
0.014593
0.014593
0.014593
0.014593
0.014593
0.014593
0.014593
0.014593
0.014593
0.014593
0.014593
0.014593
0.014593
0.014593
0.014593
0.014593
0.014593
0.014593
0.014593
0.014593
0.014593
0.014593
0.014593
0.014593
0.014593
0.014593
0.014593
0.014593
0.014593
0.014593
0.014593
0.014593
0.014593
0.014593
0.014593
0.014593
0.014593
0.014593
0.014593
0.014593
0.014593
0.014593
0.014593
0.014593
0.014593
0.014593
0.014593
0.014593
0.014593
0.014593
0.014593
0.014593
0.014593
0.014593
0.014593
0.014593
0.014593
0.014593
0.014593
0.014593
0.014593
0.014593
0.014593
0.014593
0.014593
0.014593
0.014593
0.014593
0.014593
0.014593
0.014593
0.014593
0.014593
0.014593
0.014593
0.014593
0.014593
0.014593
0.014593
0.014593
0.014593
0.014593
0.014593
0.014593
0.014593
0.014593
0.014593
0.014593
0.014593
0.014593
0.014593
0.014593
0.014593
0.014593
0.014593
0.014593
0.014593
0.014593
0.014593
0.014593
0.014593
0.014593
0.014593
0.014593
0.014593
0.014593
0.014593
0.014593
0.014593
0.014593
0.014593
0.014593
0.014593
0.014593
0.014593
0.014593
0.014593
0.014593
0.014593
0.014593
0.014593
0.014593
0.014593
0.014593
0.014593
0.014593
0.014593
0.014593
0.014593
0.014593
0.014593
0.014593
0.014593
0.014593
0.014593
0.014593
0.014593
0.014593
0.014593
0.014593
0.014593
0.014593
0.014593
0.014593
0.014593
0.014593
0.014593
0.014593
0.014593
0.014593
0.014593
0.014593
0.014593
0.014593
0.014593
0.014593
0.014593
0.014593
0.014593
0.014593
0.014593
0.014593
0.014593
0.014593
0.014593
0.014593
0.014593
0.014593
0.014593
0.014593
0.014593
0.014593
0.014593
0.014593
0.014593
0.014593
0.014593
0.014593
0.014593
0.014593
0.014593
0.014593
0.014593
0.014593
0.014593
0.014593
0.014593
0.014593
0.014593
0.014593
0.014593
0.014593
0.014593
0.014593
0.014593
0.014593
0.014593
0.014593
0.014593
0.014593
0.014593
0.014593
0.014593
0.014593
0.014593
0.014593
0.014593
0.014593
0.014593
0.014593
0.014593
0.014593
0.014593
0.014593
0.014593
0.014593
0.014593
0.014593
0.014593
0.014593
0.014593
0.014593
0.014593
0.014593
0.014593
0.014593
0.014593
0.014593
0.014593
0.014593
0.014593
0.014593
0.014593
0.014593
0.014593
0.014593
0.014593
0.014593
0.014593
0.014593
0.014593
0.014593
0.014593
0.014593
0.014593
0.014593
0.014593
0.014593
0.014593
0.014593
0.014593
0.014593
0.014593
0.014593
0.014593
0.014593
0.014593
0.014593
0.014593
0.014593
0.014593
0.014593
0.014593
0.014593
0.014593
0.014593
0.014593
0.014593
0.014593
0.014593
0.014593
0.014593
0.014593
0.014593
0.014593
0.014593
0.014593
0.014593
0.014593
0.014593
0.014593
0.014593
0.014593
0.014593
0.014593
0.014593
0.014593
0.014593
0.014593
0.014593
0.014593
0.014593
0.014593
0.014593
0.014593
0.014593
0.014593
0.014593
0.014593
0.014593
0.014593
0.014593
0.014593
0.014593
0.014593
0.014593
0.014593
0.014593
0.014593
0.014593
0.014593
0.014593
0.014593
0.014593
0.014593
0.014593
0.014593
0.014593
0.014593
0.014593
0.014593
0.014593
0.014593
0.014593
0.014593
0.014593
0.014593
0.014593
0.014593
0.014593
0.014593
0.014593
0.014593
0.014593
0.014593
0.014593
0.014593
0.014593
0.014593
0.014593
0.014593
0.014593
0.014593
0.014593
0.014593
0.014593
0.014593
0.014593
0.014593
0.014593
0.014593
0.014593
0.014593
0.014593
0.014593
0.014593
0.014593
0.014593
0.014593
0.014593
0.014593
0.014593
0.014593
0.014593
0.014593
0.014593
0.014593
0.014593
0.014593
0.014593
0.014593
0.014593
0.014593
0.014593
0.014593
0.014593
0.014593
0.014593
0.014593
0.014593
0.014593
0.014593
0.014593
0.014593
0.014593
0.014593
0.014593
0.014593
0.014593
0.014593
0.014593
0.014593
0.014593
0.014593
0.014593
0.014593
0.014593
0.014593
0.014593
0.014593
0.014593
0.014593
0.014593
0.014593
0.014593
0.014593
0.014593
0.014593
0.014593
0.014593
0.014593
0.014593
0.014593
0.014593
0.014593
0.014593
0.014593
0.014593
0.014593
0.014593
0.014593
0.014593
0.014593
0.014593
0.014593
0.014593
0.014593
0.014593
0.014593
0.014593
0.014593
0.014593
0.014593
0.014593
0.014593
0.014593
0.014593
0.014593
0.014593
0.014593
0.014593
0.014593
0.014593
0.014593
0.014593
0.014593
0.014593
0.014593
0.014593
0.014593
0.014593
0.014593
0.014593
0.014593
0.014593
0.014593
0.014593
0.014593
0.014593
0.014593
0.014593
0.014593
0.014593
0.014593
0.014593
0.014593
0.014593
0.014593
0.014593
0.014593
0.014593
0.014593
0.014593
0.014593
0.014593
0.014593
0.014593
0.014593
0.014593
0.014593
0.014593
0.014593
0.014593
0.014593
0.014593
0.014593
0.014593
0.014593
0.014593
0.014593
0.014593
0.014593
0.014593
0.014593
0.014593
0.014593
0.014593
0.014593
0.014593
0.014593
0.014593
0.014593
0.014593
0.014593
0.014593
0.014593
0.014593
0.014593
0.014593
0.014593
0.014593
0.014593
0.014593
0.014593
0.014593
0.014593
0.014593
0.014593
0.014593
0.014593
0.014593
0.014593
0.014593
0.014593
0.014593
0.014593
0.014593
0.014593
0.014593
0.014593
0.014593
0.014593
0.014593
0.014593
0.014593
0.014593
0.014593
0.014593
0.014593
0.014593
0.014593
0.014593
0.014593
0.014593
0.014593
0.014593
0.014593
0.014593
0.014593
0.014593
0.014593
0.014593
0.014593
0.014593
0.014593
0.014593
0.014593
0.014593
0.014593
0.014593
0.014593
0.014593
0.014593
0.014593
0.014593
0.014593
0.014593
0.014593
0.014593
0.014593
0.014593
0.014593
0.014593
0.014593
0.014593
0.014593
0.014593
0.014593
0.014593
0.014593
0.014593
0.014593
0.014593
0.014593
0.014593
0.014593
0.014593
0.014593
0.014593
0.014593
0.014593
0.014593
0.014593
0.014593
0.014593
0.014593
0.014593
0.014593
0.014593
0.014593
0.014593
0.014593
0.014593
0.014593
0.014593
0.014593
0.014593
0.014593
0.014593
0.014593
0.014593
0.014593
0.014593
0.014593
0.014593
0.014593
0.014593
0.014593
0.014593
0.014593
0.014593
0.014593
0.014593
0.014593
0.014593
0.014593
0.014593
0.014593
0.014593
0.014593
0.014593
0.014593
0.014593
0.014593
0.014593
0.014593
0.014593
0.014593
0.014593
0.014593
0.014593
0.014593
0.014593
0.014593
0.014593
0.014593
0.014593
0.014593
0.014593
0.014593
0.014593
0.014593
0.014593
0.014593
0.014593
0.014593
0.014593
0.014593
0.014593
0.014593
0.014593
0.014593
0.014593
0.014593
0.014593
0.014593
0.014593
0.014593
0.014593
0.014593
0.014593
0.014593
0.014593
0.014593
0.014593
0.014593
0.014593
0.014593
0.014593
0.014593
0.014593
0.014593
0.014593
0.014593
0.014593
0.014593
0.014593
0.014593
0.014593
0.014593
0.014593
0.014593
0.014593
0.014593
0.014593
0.014593
0.014593
0.014593
0.014593
0.014593
0.014593
0.014593
0.014593
0.014593
0.014593
0.014593
0.014593
0.014593
0.014593
0.014593
0.014593
0.014593
0.014593
0.014593
0.014593
0.014593
0.014593
0.014593
0.014593
0.014593
0.014593
0.014593
0.014593
0.014593
0.014593
0.014593
0.014593
0.014593
0.014593
0.014593
0.014593
0.014593
0.014593
0.014593
0.014593
0.014593
0.014593
0.014593
0.014593
0.014593
0.014593
0.014593
0.014593
0.014593
0.014593
0.014593
0.014593
0.014593
0.014593
0.014593
0.014593
0.014593
0.014593
0.014593
0.014593
0.014593
0.014593
0.014593
0.014593
0.014593
0.014593
0.014593
0.014593
0.014593
0.014593
0.014593
0.014593
0.014593
0.014593
0.014593
0.014593
0.014593
0.014593
0.014593
0.014593
0.014593
0.014593
0.014593
0.014593
0.014593
0.014593
0.014593
0.014593
0.014593
0.014593
0.014593
0.014593
0.014593
0.014593
0.014593
0.014593
0.014593
0.014593
0.014593
0.014593
0.014593
0.014593
0.014593
0.014593
0.014593
0.014593
0.014593
0.014593
0.014593
0.014593
0.014593
0.014593
0.014593
0.014593
0.014593
0.014593
0.014593
0.014593
0.014593
0.014593
0.014593
0.014593
0.014593
0.014593
0.014593
0.014593
0.014593
0.014593
0.014593
0.014593
0.014593
0.014593
0.014593
0.014593
0.014593
0.014593
0.014593
0.014593
0.014593
0.014593
0.014593
0.014593
0.014593
0.014593
0.014593
0.014593
0.014593
0.014593
0.014593
0.014593
0.014593
0.014593
0.014593
0.014593
0.014593
0.014593
0.014593
0.014593
0.014593
0.014593
0.014593
0.014593
0.014593
0.014593
0.014593
0.014593
0.014593
0.014593
0.014593
0.014593
0.014593
0.014593
0.014593
0.014593
0.014593
0.014593
0.014593
0.014593
0.014593
0.014593
0.014593
0.014593
0.014593
0.014593
0.014593
0.014593
0.014593
0.014593
0.014593
0.014593
0.014593
0.014593
0.014593
0.014593
0.014593
0.014593
0.014593
0.014593
0.014593
0.014593
0.014593
0.014593
0.014593
0.014593
0.014593
0.014593
0.014593
0.014593
0.014593
0.014593
0.014593
0.014593
0.014593
0.014593
0.014593
0.014593
0.014593
0.014593
0.014593
0.0145931
0.014593
0.014593
0.014593
0.014593
0.014593
0.014593
0.014593
0.014593
0.014593
0.014593
0.014593
0.014593
0.014593
0.014593
0.014593
0.014593
0.014593
0.014593
0.014593
0.014593
0.014593
0.014593
0.014593
0.014593
0.014593
0.014593
0.014593
0.014593
0.014593
0.014593
0.014593
0.014593
0.014593
0.014593
0.014593
0.014593
0.014593
0.014593
0.014593
0.014593
0.014593
0.014593
0.014593
0.014593
0.014593
0.014593
0.014593
0.0145931
0.0145932
0.0145933
0.014593
0.014593
0.014593
0.014593
0.014593
0.014593
0.014593
0.014593
0.014593
0.014593
0.014593
0.014593
0.014593
0.014593
0.014593
0.014593
0.014593
0.014593
0.014593
0.014593
0.014593
0.014593
0.014593
0.014593
0.014593
0.014593
0.014593
0.014593
0.014593
0.014593
0.014593
0.014593
0.014593
0.014593
0.014593
0.014593
0.014593
0.014593
0.014593
0.014593
0.014593
0.014593
0.014593
0.014593
0.0145931
0.0145931
0.0145933
0.0145935
0.0145939
0.0145946
0.014593
0.014593
0.014593
0.014593
0.014593
0.014593
0.014593
0.014593
0.014593
0.014593
0.014593
0.014593
0.014593
0.014593
0.014593
0.014593
0.014593
0.014593
0.014593
0.014593
0.014593
0.014593
0.014593
0.014593
0.014593
0.014593
0.014593
0.014593
0.014593
0.014593
0.014593
0.014593
0.014593
0.014593
0.014593
0.014593
0.014593
0.014593
0.014593
0.014593
0.0145931
0.0145931
0.0145931
0.0145933
0.0145935
0.0145938
0.0145944
0.0145956
0.0145978
0.0146021
0.014593
0.014593
0.014593
0.014593
0.014593
0.014593
0.014593
0.014593
0.014593
0.014593
0.014593
0.014593
0.014593
0.014593
0.014593
0.014593
0.014593
0.014593
0.014593
0.014593
0.014593
0.014593
0.014593
0.014593
0.014593
0.014593
0.014593
0.014593
0.014593
0.014593
0.014593
0.014593
0.014593
0.014593
0.014593
0.014593
0.014593
0.0145931
0.0145931
0.0145931
0.0145933
0.0145934
0.0145938
0.0145944
0.0145955
0.0145975
0.014601
0.0146074
0.0146193
0.0146424
0.014593
0.014593
0.014593
0.014593
0.014593
0.014593
0.014593
0.014593
0.014593
0.014593
0.014593
0.014593
0.014593
0.014593
0.014593
0.014593
0.014593
0.014593
0.014593
0.014593
0.014593
0.014593
0.014593
0.014593
0.014593
0.014593
0.014593
0.014593
0.014593
0.014593
0.014593
0.014593
0.014593
0.014593
0.0145931
0.0145931
0.0145932
0.0145933
0.0145935
0.0145938
0.0145944
0.0145955
0.0145973
0.0146007
0.0146066
0.0146172
0.0146363
0.0146707
0.0147335
0.0148528
0.014593
0.014593
0.014593
0.014593
0.014593
0.014593
0.014593
0.014593
0.014593
0.014593
0.014593
0.014593
0.014593
0.014593
0.014593
0.014593
0.014593
0.014593
0.014593
0.014593
0.014593
0.014593
0.014593
0.014593
0.014593
0.014593
0.014593
0.014593
0.014593
0.014593
0.014593
0.0145931
0.0145931
0.0145932
0.0145933
0.0145935
0.0145938
0.0145944
0.0145955
0.0145973
0.0146005
0.0146062
0.0146162
0.014634
0.0146655
0.0147213
0.0148206
0.0149966
0.0153086
0.0158675
0.014593
0.014593
0.014593
0.014593
0.014593
0.014593
0.014593
0.014593
0.014593
0.014593
0.014593
0.014593
0.014593
0.014593
0.014593
0.014593
0.014593
0.014593
0.014593
0.014593
0.014593
0.014593
0.014593
0.014593
0.014593
0.014593
0.014593
0.014593
0.0145931
0.0145931
0.0145932
0.0145933
0.0145935
0.0145939
0.0145945
0.0145956
0.0145974
0.0146006
0.0146062
0.0146159
0.0146329
0.0146627
0.0147148
0.0148061
0.0149657
0.0152427
0.0157165
0.0165088
0.0177895
0.0197761
0.014593
0.014593
0.014593
0.014593
0.014593
0.014593
0.014593
0.014593
0.014593
0.014593
0.014593
0.014593
0.014593
0.014593
0.014593
0.014593
0.014593
0.014593
0.014593
0.014593
0.014593
0.014593
0.014593
0.014593
0.0145931
0.0145931
0.0145931
0.0145932
0.0145933
0.0145936
0.014594
0.0145946
0.0145958
0.0145977
0.014601
0.0146066
0.0146163
0.014633
0.0146619
0.0147118
0.0147983
0.0149477
0.0152037
0.0156372
0.016355
0.017503
0.0192529
0.021765
0.0251433
0.0293962
0.014593
0.014593
0.014593
0.014593
0.014593
0.014593
0.014593
0.014593
0.014593
0.014593
0.014593
0.014593
0.014593
0.014593
0.014593
0.014593
0.014593
0.014593
0.014593
0.014593
0.014593
0.0145931
0.0145931
0.0145932
0.0145932
0.0145934
0.0145937
0.0145941
0.0145948
0.014596
0.0145981
0.0146015
0.0146073
0.0146173
0.0146341
0.014663
0.0147122
0.0147963
0.0149398
0.0151829
0.01559
0.0162582
0.0173204
0.0189344
0.0212516
0.0243699
0.0282988
0.0329558
0.0381986
0.0438481
0.014593
0.014593
0.014593
0.014593
0.014593
0.014593
0.014593
0.014593
0.014593
0.014593
0.014593
0.014593
0.014593
0.014593
0.014593
0.014593
0.014593
0.014593
0.0145931
0.0145931
0.0145932
0.0145933
0.0145935
0.0145938
0.0145943
0.0145951
0.0145964
0.0145986
0.0146024
0.0146086
0.014619
0.0146365
0.014666
0.0147158
0.0147998
0.0149413
0.0151781
0.0155702
0.016207
0.0172111
0.0187293
0.0209053
0.0238387
0.0275494
0.0319694
0.0369636
0.0423657
0.048012
0.0537639
0.0594917
0.014593
0.014593
0.014593
0.014593
0.014593
0.014593
0.014593
0.014593
0.014593
0.014593
0.014593
0.014593
0.014593
0.014593
0.0145931
0.0145931
0.0145931
0.0145932
0.0145934
0.0145936
0.0145939
0.0145945
0.0145954
0.0145969
0.0145994
0.0146036
0.0146103
0.0146216
0.0146402
0.0146713
0.014723
0.0148091
0.0149523
0.0151889
0.0155758
0.0161971
0.0171669
0.0186219
0.0206975
0.0234911
0.0270299
0.0312596
0.0360613
0.0412816
0.0467621
0.0523586
0.0579496
0.0634289
0.0687038
0.0737108
0.014593
0.014593
0.014593
0.014593
0.014593
0.014593
0.014593
0.014593
0.014593
0.014593
0.0145931
0.0145931
0.0145931
0.0145932
0.0145933
0.0145935
0.0145937
0.0145941
0.0145948
0.0145959
0.0145977
0.0146006
0.0146052
0.0146128
0.0146253
0.0146457
0.0146792
0.0147343
0.0148249
0.0149735
0.015216
0.0156072
0.0162275
0.0171843
0.0186053
0.0206168
0.0233112
0.0267177
0.0307915
0.0354271
0.0404848
0.0458169
0.0512865
0.0567752
0.0621809
0.0674082
0.0723774
0.0770239
0.0812694
0.0850471
0.014593
0.014593
0.014593
0.014593
0.014593
0.014593
0.014593
0.0145931
0.0145931
0.0145932
0.0145932
0.0145934
0.0145936
0.0145939
0.0145944
0.0145953
0.0145966
0.0145987
0.0146021
0.0146075
0.0146163
0.0146304
0.0146533
0.0146904
0.0147507
0.0148485
0.0150067
0.0152613
0.0156664
0.0162998
0.0172637
0.0186777
0.0206584
0.0232908
0.0266023
0.0305531
0.0350479
0.0399591
0.0451504
0.0504936
0.0558762
0.0612033
0.0663866
0.0713456
0.0760133
0.080325
0.0841985
0.0875467
0.0903017
0.0924904
0.014593
0.014593
0.014593
0.014593
0.0145931
0.0145931
0.0145931
0.0145932
0.0145933
0.0145935
0.0145938
0.0145942
0.0145949
0.0145959
0.0145976
0.0146001
0.0146042
0.0146107
0.0146211
0.0146375
0.0146639
0.014706
0.0147736
0.0148818
0.0150544
0.0153282
0.0157576
0.0164186
0.0174095
0.018842
0.0208229
0.0234276
0.0266785
0.0305375
0.0349167
0.0396988
0.0447586
0.0499771
0.0552489
0.0604847
0.0656049
0.0705325
0.0752015
0.0795536
0.0835231
0.0870271
0.0899908
0.0923763
0.0942093
0.0955543
0.0965325
0.0145931
0.0145931
0.0145931
0.0145932
0.0145933
0.0145935
0.0145937
0.0145941
0.0145946
0.0145955
0.0145968
0.0145989
0.0146022
0.0146072
0.0146152
0.0146277
0.0146474
0.0146784
0.0147275
0.0148052
0.0149278
0.0151207
0.0154222
0.0158874
0.0165919
0.0176301
0.0191063
0.0211163
0.0237248
0.0269466
0.0307426
0.0350299
0.0397002
0.0446387
0.0497358
0.054894
0.0600294
0.0650699
0.0699454
0.0745913
0.0789525
0.0829744
0.0865879
0.0897163
0.0923053
0.0943462
0.0958846
0.0969978
0.0977831
0.0983241
0.0987077
0.0145932
0.0145933
0.0145934
0.0145937
0.014594
0.0145945
0.0145952
0.0145964
0.0145982
0.0146009
0.0146051
0.0146115
0.0146215
0.014637
0.0146611
0.0146986
0.0147572
0.0148486
0.0149909
0.0152116
0.0155508
0.0160656
0.0168311
0.0179382
0.0194831
0.0215501
0.024191
0.0274117
0.0311701
0.0353868
0.0399613
0.0447883
0.0497682
0.0548115
0.0598406
0.0647891
0.0695952
0.0741973
0.0785419
0.0825805
0.0862569
0.089502
0.0922531
0.0944802
0.0962011
0.0974763
0.0983869
0.0990219
0.0994546
0.0997518
0.0999557
0.100096
0.014594
0.0145944
0.0145951
0.0145962
0.0145977
0.0146001
0.0146037
0.0146093
0.0146176
0.0146305
0.0146502
0.0146804
0.0147269
0.0147985
0.0149086
0.0150776
0.0153355
0.0157254
0.016306
0.0171526
0.0183517
0.0199907
0.0221406
0.0248396
0.0280833
0.0318256
0.0359896
0.0404819
0.0452067
0.0500737
0.0550018
0.0599203
0.0647681
0.0694902
0.0740302
0.0783363
0.0823636
0.0860653
0.0893825
0.0922522
0.0946317
0.0965163
0.0979455
0.0989868
0.0997213
0.100228
0.10057
0.100801
0.100953
0.101049
0.101123
0.101191
0.0145976
0.0145998
0.0146031
0.014608
0.0146155
0.0146266
0.0146435
0.0146691
0.0147079
0.0147669
0.0148564
0.0149921
0.0151971
0.0155047
0.0159613
0.0166277
0.0175782
0.0188943
0.0206524
0.0229093
0.0256884
0.0289746
0.0327177
0.036843
0.041264
0.0458939
0.0506517
0.0554647
0.0602692
0.065009
0.069635
0.0740971
0.0783462
0.0823392
0.0860357
0.089387
0.0923348
0.0948298
0.0968517
0.0984196
0.099587
0.100424
0.101007
0.101402
0.101667
0.101842
0.10195
0.102014
0.102069
0.102106
0.102102
0.102085
0.0146145
0.0146248
0.01464
0.0146628
0.0146969
0.0147479
0.0148242
0.0149386
0.0151093
0.015363
0.0157368
0.0162804
0.0170563
0.0181367
0.0195958
0.0214973
0.0238822
0.0267588
0.0301019
0.0338575
0.0379536
0.0423107
0.0468507
0.0515017
0.0561993
0.0608862
0.0655121
0.0700322
0.0744029
0.0785786
0.0825183
0.0861853
0.0895387
0.0925275
0.0951015
0.0972306
0.0989174
0.100199
0.101135
0.101795
0.102249
0.102551
0.102749
0.102872
0.10294
0.102984
0.103021
0.103021
0.102999
0.10296
0.102908
0.102854
0.0146917
0.0147381
0.0148065
0.0149076
0.0150567
0.0152757
0.0155952
0.0160565
0.0167124
0.0176257
0.0188644
0.0204927
0.0225594
0.0250888
0.0280749
0.031483
0.0352572
0.0393288
0.0436255
0.0480779
0.0526228
0.0572037
0.0617698
0.0662763
0.0706826
0.0749506
0.0790388
0.0829085
0.0865253
0.0898544
0.0928524
0.0954715
0.0976761
0.0994568
0.100836
0.101864
0.1026
0.103111
0.103453
0.103676
0.103818
0.103894
0.10393
0.103957
0.103966
0.103944
0.103903
0.103844
0.103777
0.103708
0.103642
0.10358
0.0150305
0.0152284
0.015514
0.0159222
0.0164983
0.017297
0.0183793
0.0198057
0.0216273
0.0238766
0.0265609
0.0296613
0.0331362
0.0369291
0.0409759
0.0452119
0.0495763
0.054014
0.058476
0.062918
0.0672998
0.0715854
0.0757406
0.0797289
0.0835137
0.087063
0.090346
0.0933258
0.0959591
0.0982086
0.100057
0.101516
0.102621
0.103426
0.103992
0.104377
0.104626
0.104782
0.104871
0.104909
0.104924
0.104929
0.104912
0.104868
0.104807
0.104733
0.104655
0.104575
0.104497
0.104419
0.104345
0.104273
0.0163845
0.0171092
0.0180859
0.0193703
0.0210119
0.0230462
0.0254882
0.0283299
0.0315417
0.0350781
0.0388841
0.0429013
0.0470727
0.0513459
0.0556736
0.0600136
0.0643273
0.0685793
0.0727374
0.0767712
0.0806484
0.0843353
0.0878018
0.0910202
0.0939589
0.0965797
0.0988459
0.100736
0.102251
0.103418
0.104284
0.1049
0.105322
0.105599
0.105771
0.105873
0.105914
0.10592
0.105915
0.105899
0.105855
0.105791
0.105714
0.105627
0.105536
0.105446
0.105357
0.105269
0.105183
0.105097
0.105013
0.104931
0.0225393
0.024797
0.0274322
0.0304242
0.0337365
0.0373224
0.0411306
0.0451092
0.0492091
0.0533857
0.0575989
0.0618125
0.0659932
0.07011
0.0741342
0.0780387
0.081795
0.0853724
0.0887428
0.0918807
0.094759
0.097344
0.0996012
0.101507
0.103056
0.104268
0.10518
0.105838
0.106295
0.106599
0.106786
0.106895
0.106947
0.106947
0.106932
0.106909
0.106867
0.106798
0.106717
0.106623
0.106523
0.106422
0.106322
0.106223
0.106124
0.106027
0.105931
0.105835
0.10574
0.105645
0.105552
0.0328668
0.0362607
0.0398782
0.0436732
0.0476009
0.0516198
0.0556925
0.0597851
0.0638671
0.0679097
0.0718858
0.0757699
0.079538
0.0831648
0.0866222
0.0898844
0.0929281
0.0957293
0.0982583
0.100484
0.102381
0.103943
0.105181
0.106124
0.106815
0.1073
0.107626
0.107827
0.107945
0.108002
0.107999
0.107977
0.107945
0.107898
0.107827
0.10774
0.107644
0.107535
0.107423
0.107312
0.107202
0.107092
0.106984
0.106876
0.106769
0.106663
0.106557
0.106451
0.106345
0.106241
0.106137
0.0465123
0.0503743
0.0543008
0.0582607
0.0622259
0.0661704
0.0700694
0.0738992
0.0776374
0.0812624
0.0847515
0.0880797
0.0912229
0.09416
0.0968695
0.0993255
0.101499
0.103368
0.104921
0.106165
0.107126
0.107837
0.108342
0.108684
0.108898
0.109022
0.109081
0.10908
0.109052
0.109007
0.108951
0.108881
0.108789
0.108685
0.10857
0.108448
0.108326
0.108205
0.108085
0.107965
0.107847
0.107729
0.107612
0.107495
0.107379
0.107263
0.107146
0.10703
0.106914
0.106799
0.106683
0.0649131
0.0687137
0.0724632
0.076141
0.0797272
0.0832027
0.086547
0.0897374
0.0927522
0.0955718
0.0981771
0.100545
0.10265
0.104471
0.105995
0.107228
0.10819
0.108909
0.109425
0.109778
0.109999
0.110127
0.110186
0.110186
0.110152
0.110096
0.110031
0.109955
0.109857
0.109746
0.109628
0.109499
0.109366
0.109233
0.109102
0.108971
0.108841
0.108713
0.108585
0.108458
0.108331
0.108205
0.108079
0.107952
0.107826
0.1077
0.107573
0.107446
0.107319
0.107193
0.0786003
0.0820287
0.0853484
0.0885412
0.0915862
0.0944639
0.0971565
0.0996467
0.101914
0.103935
0.105691
0.10717
0.108375
0.109321
0.110036
0.110554
0.110908
0.111133
0.111262
0.11132
0.111317
0.111279
0.111215
0.111136
0.111051
0.110951
0.110832
0.110706
0.110569
0.110427
0.110284
0.110142
0.110001
0.10986
0.109721
0.109582
0.109445
0.109308
0.109171
0.109035
0.108898
0.108762
0.108626
0.10849
0.108353
0.108216
0.108079
0.107941
0.107803
0.107666
0.0907227
0.0936154
0.0963481
0.0989051
0.10127
0.103426
0.10535
0.107026
0.108444
0.109606
0.110524
0.111222
0.11173
0.112079
0.112302
0.112428
0.11248
0.112472
0.112432
0.112357
0.112266
0.112171
0.112065
0.111939
0.111804
0.111663
0.111512
0.111358
0.111205
0.111053
0.110902
0.110752
0.110603
0.110454
0.110307
0.11016
0.110014
0.109868
0.109722
0.109576
0.10943
0.109284
0.109137
0.108991
0.108843
0.108696
0.108548
0.108399
0.10825
0.108102
0.100807
0.103039
0.105072
0.106889
0.108473
0.109816
0.110921
0.111797
0.112466
0.112955
0.113291
0.113506
0.113624
0.113669
0.113656
0.113608
0.113524
0.113422
0.113315
0.1132
0.113068
0.112925
0.112775
0.112617
0.112453
0.11229
0.112128
0.111966
0.111805
0.111645
0.111486
0.111329
0.111172
0.111015
0.110859
0.110703
0.110548
0.110392
0.110237
0.110081
0.109925
0.109769
0.109612
0.109455
0.109298
0.109139
0.10898
0.108821
0.108661
0.108501
0.108542
0.110024
0.111281
0.112316
0.113139
0.113769
0.11423
0.114545
0.114745
0.114853
0.114886
0.114865
0.114808
0.114715
0.114602
0.114482
0.114356
0.11422
0.114066
0.113907
0.113742
0.113569
0.113396
0.113223
0.113051
0.112879
0.112709
0.11254
0.112372
0.112205
0.112038
0.111872
0.111707
0.111542
0.111377
0.111212
0.111047
0.110882
0.110717
0.110551
0.110385
0.110219
0.110052
0.109884
0.109716
0.109547
0.109377
0.109206
0.109035
0.108864
0.113787
0.114547
0.115128
0.115553
0.11584
0.11602
0.116112
0.11613
0.1161
0.116032
0.115929
0.115804
0.115672
0.115535
0.115388
0.115227
0.115059
0.114887
0.114706
0.114522
0.114339
0.114157
0.113974
0.113794
0.113614
0.113436
0.113259
0.113082
0.112907
0.112731
0.112557
0.112382
0.112208
0.112034
0.11186
0.111686
0.111511
0.111337
0.111161
0.110986
0.11081
0.110633
0.110455
0.110277
0.110098
0.109918
0.109737
0.109556
0.109374
0.109191
0.116919
0.117174
0.117329
0.117401
0.1174
0.117358
0.117278
0.117163
0.117027
0.116884
0.116734
0.116576
0.116408
0.11623
0.116048
0.11586
0.115666
0.115474
0.115282
0.115089
0.114898
0.114709
0.11452
0.114333
0.114146
0.113961
0.113776
0.113592
0.113408
0.113224
0.113041
0.112858
0.112675
0.112492
0.112308
0.112125
0.11194
0.111756
0.111571
0.111385
0.111199
0.111012
0.110824
0.110635
0.110445
0.110254
0.110062
0.109869
0.109676
0.109482
0.118698
0.118641
0.118546
0.118418
0.11827
0.118115
0.117952
0.117783
0.117608
0.11742
0.117227
0.117032
0.116829
0.116626
0.116425
0.116223
0.116021
0.115822
0.115624
0.115426
0.11523
0.115035
0.11484
0.114646
0.114453
0.11426
0.114068
0.113876
0.113684
0.113492
0.1133
0.113107
0.112915
0.112722
0.112529
0.112335
0.11214
0.111945
0.111749
0.111553
0.111355
0.111156
0.110957
0.110756
0.110554
0.110351
0.110148
0.109943
0.109738
0.119691
0.119532
0.119363
0.119189
0.119008
0.118822
0.118626
0.118424
0.11822
0.118009
0.117796
0.117585
0.117373
0.117162
0.116953
0.116745
0.116538
0.116332
0.116127
0.115923
0.11572
0.115517
0.115315
0.115113
0.114912
0.114711
0.114511
0.11431
0.114109
0.113908
0.113707
0.113506
0.113304
0.113101
0.112898
0.112695
0.11249
0.112285
0.112079
0.111871
0.111663
0.111454
0.111243
0.111032
0.110819
0.110605
0.110391
0.110175
0.109958
0.120441
0.12025
0.120052
0.119848
0.119636
0.119422
0.119204
0.118981
0.11876
0.11854
0.11832
0.1181
0.117883
0.117666
0.117451
0.117236
0.117023
0.11681
0.116599
0.116387
0.116177
0.115967
0.115757
0.115548
0.115338
0.115129
0.11492
0.114711
0.114501
0.114291
0.114081
0.11387
0.113659
0.113446
0.113234
0.11302
0.112805
0.11259
0.112373
0.112155
0.111937
0.111717
0.111495
0.111273
0.111049
0.110825
0.110599
0.110372
0.110144
0.120863
0.120639
0.120412
0.120181
0.11995
0.119722
0.119492
0.119263
0.119037
0.118811
0.118586
0.118362
0.118139
0.117918
0.117697
0.117477
0.117257
0.117039
0.11682
0.116602
0.116384
0.116167
0.115949
0.115731
0.115514
0.115296
0.115078
0.114859
0.11464
0.11442
0.1142
0.113979
0.113757
0.113534
0.113311
0.113086
0.11286
0.112633
0.112405
0.112175
0.111945
0.111713
0.111479
0.111245
0.111009
0.110772
0.110535
0.110295
0.121394
0.121154
0.120916
0.120678
0.12044
0.120204
0.11997
0.119735
0.119503
0.119271
0.119041
0.118811
0.118582
0.118354
0.118126
0.117899
0.117673
0.117447
0.117221
0.116995
0.116769
0.116543
0.116318
0.116091
0.115865
0.115639
0.115411
0.115184
0.114955
0.114726
0.114496
0.114266
0.114034
0.113801
0.113567
0.113332
0.113096
0.112859
0.11262
0.11238
0.112138
0.111896
0.111652
0.111406
0.11116
0.110912
0.110663
0.110413
0.12163
0.121385
0.121142
0.120899
0.120657
0.120417
0.120178
0.119939
0.119702
0.119465
0.119229
0.118994
0.118759
0.118524
0.11829
0.118056
0.117822
0.117589
0.117355
0.117121
0.116887
0.116653
0.116419
0.116183
0.115948
0.115712
0.115475
0.115237
0.114999
0.114759
0.114519
0.114277
0.114034
0.11379
0.113545
0.113298
0.11305
0.112801
0.11255
0.112298
0.112045
0.11179
0.111534
0.111276
0.111018
0.110758
0.110497
0.122074
0.121824
0.121576
0.121328
0.121081
0.120835
0.12059
0.120346
0.120102
0.119859
0.119616
0.119374
0.119132
0.118891
0.118649
0.118408
0.118166
0.117925
0.117683
0.117441