/*--------------------------------*- C++ -*----------------------------------*\
| =========                 |                                                 |
| \\      /  F ield         | OpenFOAM: The Open Source CFD Toolbox           |
|  \\    /   O peration     | Version:  v1706                                 |
|   \\  /    A nd           | Web:      www.OpenFOAM.com                      |
|    \\/     M anipulation  |                                                 |
\*---------------------------------------------------------------------------*/
FoamFile
{
    version     2.0;
    format      ascii;
    class       volScalarField;
    location    "1.2e-05";
    object      kappave;
}
// * * * * * * * * * * * * * * * * * * * * * * * * * * * * * * * * * * * * * //

dimensions      [1 1 -3 -1 0 0 0];


internalField   nonuniform List<scalar> 
30038
(
1.46038e-10
1.46038e-10
1.46038e-10
1.46038e-10
1.46038e-10
1.46038e-10
1.46038e-10
1.46038e-10
1.46038e-10
1.46038e-10
1.46038e-10
1.46038e-10
1.46038e-10
1.46038e-10
1.46038e-10
1.46038e-10
1.46038e-10
1.46038e-10
1.46038e-10
1.46038e-10
1.46038e-10
1.46038e-10
1.46038e-10
1.46038e-10
1.46038e-10
1.46038e-10
1.46038e-10
1.46038e-10
1.46038e-10
1.46038e-10
1.46038e-10
1.46038e-10
1.46038e-10
1.46038e-10
1.46038e-10
1.46038e-10
1.46038e-10
1.46038e-10
1.46038e-10
1.46038e-10
1.46038e-10
1.46038e-10
1.46038e-10
1.46038e-10
1.46038e-10
1.46038e-10
1.46038e-10
1.46038e-10
1.46038e-10
1.46038e-10
1.46038e-10
1.46038e-10
1.46038e-10
1.46038e-10
1.46038e-10
1.46038e-10
1.46038e-10
1.46038e-10
1.46038e-10
1.46038e-10
1.46038e-10
1.46038e-10
1.46038e-10
1.46038e-10
1.46038e-10
1.46038e-10
1.46038e-10
1.46038e-10
1.46038e-10
1.46038e-10
1.46038e-10
1.46038e-10
1.46038e-10
1.46038e-10
1.46038e-10
1.46038e-10
1.46038e-10
1.46038e-10
1.46038e-10
1.46038e-10
1.46038e-10
1.46038e-10
1.46038e-10
1.46038e-10
1.46038e-10
1.46038e-10
1.46038e-10
1.46038e-10
1.46038e-10
1.46038e-10
1.46038e-10
1.46038e-10
1.46038e-10
1.46038e-10
1.46038e-10
1.46038e-10
1.46038e-10
1.46038e-10
1.46038e-10
1.46038e-10
1.46038e-10
1.46038e-10
1.46038e-10
1.46038e-10
1.46038e-10
1.46038e-10
1.46038e-10
1.46038e-10
1.46038e-10
1.46038e-10
1.46038e-10
1.46038e-10
1.46038e-10
1.46038e-10
1.46038e-10
1.46038e-10
1.46038e-10
1.46038e-10
1.46038e-10
1.46038e-10
1.46038e-10
1.46038e-10
1.46038e-10
1.46038e-10
1.46038e-10
1.46038e-10
1.46038e-10
1.46038e-10
1.46038e-10
1.46038e-10
1.46038e-10
1.46038e-10
1.46038e-10
1.46038e-10
1.46038e-10
1.46038e-10
1.46038e-10
1.46038e-10
1.46038e-10
1.46038e-10
1.46038e-10
1.46038e-10
1.46038e-10
1.46038e-10
1.46038e-10
1.46038e-10
1.46038e-10
1.46038e-10
1.46038e-10
1.46038e-10
1.46038e-10
1.46038e-10
1.46038e-10
1.46038e-10
1.46038e-10
1.46038e-10
1.46038e-10
1.46038e-10
1.46038e-10
1.46038e-10
1.46038e-10
1.46038e-10
1.46038e-10
1.46038e-10
1.46038e-10
1.46038e-10
1.46038e-10
1.46038e-10
1.46038e-10
1.46038e-10
1.46038e-10
1.46038e-10
1.46038e-10
1.46038e-10
1.46038e-10
1.46038e-10
1.46038e-10
1.46038e-10
1.46038e-10
1.46038e-10
1.46038e-10
1.46038e-10
1.46038e-10
1.46038e-10
1.46038e-10
1.46038e-10
1.46038e-10
1.46038e-10
1.46038e-10
1.46038e-10
1.46038e-10
1.46038e-10
1.46038e-10
1.46038e-10
1.46038e-10
1.46038e-10
1.46038e-10
1.46038e-10
1.46038e-10
1.46038e-10
1.46038e-10
1.46038e-10
1.46038e-10
1.46038e-10
1.46038e-10
1.46038e-10
1.46038e-10
1.46038e-10
1.46038e-10
1.46038e-10
1.46038e-10
1.46038e-10
1.46038e-10
1.46038e-10
1.46038e-10
1.46038e-10
1.46038e-10
1.46038e-10
1.46038e-10
1.46038e-10
1.46038e-10
1.46038e-10
1.46038e-10
1.46038e-10
1.46038e-10
1.46038e-10
1.46038e-10
1.46038e-10
1.46038e-10
1.46038e-10
1.46038e-10
1.46038e-10
1.46038e-10
1.46038e-10
1.46038e-10
1.46038e-10
1.46038e-10
1.46038e-10
1.46038e-10
1.46038e-10
1.46038e-10
1.46038e-10
1.46038e-10
1.46038e-10
1.46038e-10
1.46038e-10
1.46038e-10
1.46038e-10
1.46038e-10
1.46038e-10
1.46038e-10
1.46038e-10
1.46038e-10
1.46038e-10
1.46038e-10
1.46038e-10
1.46038e-10
1.46038e-10
1.46038e-10
1.46038e-10
1.46038e-10
1.46038e-10
1.46038e-10
1.46038e-10
1.46038e-10
1.46038e-10
1.46038e-10
1.46038e-10
1.46038e-10
1.46038e-10
1.46038e-10
1.46038e-10
1.46038e-10
1.46038e-10
1.46038e-10
1.46038e-10
1.46038e-10
1.46038e-10
1.46038e-10
1.46038e-10
1.46038e-10
1.46038e-10
1.46038e-10
1.46038e-10
1.46038e-10
1.46038e-10
1.46038e-10
1.46038e-10
1.46038e-10
1.46038e-10
1.46038e-10
1.46038e-10
1.46038e-10
1.46038e-10
1.46038e-10
1.46038e-10
1.46038e-10
1.46038e-10
1.46038e-10
1.46038e-10
1.46038e-10
1.46038e-10
1.46038e-10
1.46038e-10
1.46038e-10
1.46038e-10
1.46038e-10
1.46038e-10
1.46038e-10
1.46038e-10
1.46038e-10
1.46038e-10
1.46038e-10
1.46038e-10
1.46038e-10
1.46038e-10
1.46038e-10
1.46038e-10
1.46038e-10
1.46038e-10
1.46038e-10
1.46038e-10
1.46038e-10
1.46038e-10
1.46038e-10
1.46038e-10
1.46038e-10
1.46038e-10
1.46038e-10
1.46038e-10
1.46038e-10
1.46038e-10
1.46038e-10
1.46038e-10
1.46038e-10
1.46038e-10
1.46038e-10
1.46038e-10
1.46038e-10
1.46038e-10
1.46038e-10
1.46038e-10
1.46038e-10
1.46038e-10
1.46038e-10
1.46038e-10
1.46038e-10
1.46038e-10
1.46038e-10
1.46038e-10
1.46038e-10
1.46038e-10
1.46038e-10
1.46038e-10
1.46038e-10
1.46038e-10
1.46038e-10
1.46038e-10
1.46038e-10
1.46038e-10
1.46038e-10
1.46038e-10
1.46038e-10
1.46038e-10
1.46038e-10
1.46038e-10
1.46038e-10
1.46038e-10
1.46038e-10
1.46038e-10
1.46038e-10
1.46038e-10
1.46038e-10
1.46038e-10
1.46038e-10
1.46038e-10
1.46038e-10
1.46038e-10
1.46038e-10
1.46038e-10
1.46038e-10
1.46038e-10
1.46038e-10
1.46038e-10
1.46038e-10
1.46038e-10
1.46038e-10
1.46038e-10
1.46038e-10
1.46038e-10
1.46038e-10
1.46038e-10
1.46038e-10
1.46038e-10
1.46038e-10
1.46038e-10
1.46038e-10
1.46038e-10
1.46038e-10
1.46038e-10
1.46038e-10
1.46038e-10
1.46038e-10
1.46038e-10
1.46038e-10
1.46038e-10
1.46038e-10
1.46038e-10
1.46038e-10
1.46038e-10
1.46038e-10
1.46038e-10
1.46038e-10
1.46038e-10
1.46038e-10
1.46038e-10
1.46038e-10
1.46038e-10
1.46038e-10
1.46038e-10
1.46038e-10
1.46038e-10
1.46038e-10
1.46038e-10
1.46038e-10
1.46038e-10
1.46038e-10
1.46038e-10
1.46038e-10
1.46038e-10
1.46038e-10
1.46038e-10
1.46038e-10
1.46038e-10
1.46038e-10
1.46038e-10
1.46038e-10
1.46038e-10
1.46038e-10
1.46038e-10
1.46038e-10
1.46038e-10
1.46038e-10
1.46038e-10
1.46038e-10
1.46038e-10
1.46038e-10
1.46038e-10
1.46038e-10
1.46038e-10
1.46038e-10
1.46038e-10
1.46038e-10
1.46038e-10
1.46038e-10
1.46038e-10
1.46038e-10
1.46038e-10
1.46038e-10
1.46038e-10
1.46038e-10
1.46038e-10
1.46038e-10
1.46038e-10
1.46038e-10
1.46038e-10
1.46038e-10
1.46038e-10
1.46038e-10
1.46038e-10
1.46038e-10
1.46038e-10
1.46038e-10
1.46038e-10
1.46038e-10
1.46038e-10
1.46038e-10
1.46038e-10
1.46038e-10
1.46038e-10
1.46038e-10
1.46038e-10
1.46038e-10
1.46038e-10
1.46038e-10
1.46038e-10
1.46038e-10
1.46038e-10
1.46038e-10
1.46038e-10
1.46038e-10
1.46038e-10
1.46038e-10
1.46038e-10
1.46038e-10
1.46038e-10
1.46038e-10
1.46038e-10
1.46038e-10
1.46038e-10
1.46038e-10
1.46038e-10
1.46038e-10
1.46038e-10
1.46038e-10
1.46038e-10
1.46038e-10
1.46038e-10
1.46038e-10
1.46038e-10
1.46038e-10
1.46038e-10
1.46038e-10
1.46038e-10
1.46038e-10
1.46038e-10
1.46038e-10
1.46038e-10
1.46038e-10
1.46038e-10
1.46038e-10
1.46038e-10
1.46038e-10
1.46038e-10
1.46038e-10
1.46038e-10
1.46038e-10
1.46038e-10
1.46038e-10
1.46038e-10
1.46038e-10
1.46038e-10
1.46038e-10
1.46038e-10
1.46038e-10
1.46038e-10
1.46038e-10
1.46038e-10
1.46038e-10
1.46038e-10
1.46038e-10
1.46038e-10
1.46038e-10
1.46038e-10
1.46038e-10
1.46038e-10
1.46038e-10
1.46038e-10
1.46038e-10
1.46038e-10
1.46038e-10
1.46038e-10
1.46038e-10
1.46038e-10
1.46038e-10
1.46038e-10
1.46038e-10
1.46038e-10
1.46038e-10
1.46038e-10
1.46038e-10
1.46038e-10
1.46038e-10
1.46038e-10
1.46038e-10
1.46038e-10
1.46038e-10
1.46038e-10
1.46038e-10
1.46038e-10
1.46038e-10
1.46038e-10
1.46038e-10
1.46038e-10
1.46038e-10
1.46038e-10
1.46038e-10
1.46038e-10
1.46038e-10
1.46038e-10
1.46038e-10
1.46038e-10
1.46038e-10
1.46038e-10
1.46038e-10
1.46038e-10
1.46038e-10
1.46038e-10
1.46038e-10
1.46038e-10
1.46038e-10
1.46038e-10
1.46038e-10
1.46038e-10
1.46038e-10
1.46038e-10
1.46038e-10
1.46038e-10
1.46038e-10
1.46038e-10
1.46038e-10
1.46038e-10
1.46038e-10
1.46038e-10
1.46038e-10
1.46038e-10
1.46038e-10
1.46038e-10
1.46038e-10
1.46038e-10
1.46038e-10
1.46038e-10
1.46038e-10
1.46038e-10
1.46038e-10
1.46038e-10
1.46038e-10
1.46038e-10
1.46038e-10
1.46038e-10
1.46038e-10
1.46038e-10
1.46038e-10
1.46038e-10
1.46038e-10
1.46038e-10
1.46038e-10
1.46038e-10
1.46038e-10
1.46038e-10
1.46038e-10
1.46038e-10
1.46038e-10
1.46038e-10
1.46038e-10
1.46038e-10
1.46038e-10
1.46038e-10
1.46038e-10
1.46038e-10
1.46038e-10
1.46038e-10
1.46038e-10
1.46038e-10
1.46038e-10
1.46038e-10
1.46038e-10
1.46038e-10
1.46038e-10
1.46038e-10
1.46038e-10
1.46038e-10
1.46038e-10
1.46038e-10
1.46038e-10
1.46038e-10
1.46038e-10
1.46038e-10
1.46038e-10
1.46038e-10
1.46038e-10
1.46038e-10
1.46038e-10
1.46038e-10
1.46038e-10
1.46038e-10
1.46038e-10
1.46038e-10
1.46038e-10
1.46038e-10
1.46038e-10
1.46038e-10
1.46038e-10
1.46038e-10
1.46038e-10
1.46038e-10
1.46038e-10
1.46038e-10
1.46038e-10
1.46038e-10
1.46038e-10
1.46038e-10
1.46038e-10
1.46038e-10
1.46038e-10
1.46038e-10
1.46038e-10
1.46038e-10
1.46038e-10
1.46038e-10
1.46038e-10
1.46038e-10
1.46038e-10
1.46038e-10
1.46038e-10
1.46038e-10
1.46038e-10
1.46038e-10
1.46038e-10
1.46038e-10
1.46038e-10
1.46038e-10
1.46038e-10
1.46038e-10
1.46038e-10
1.46038e-10
1.46038e-10
1.46038e-10
1.46038e-10
1.46038e-10
1.46038e-10
1.46038e-10
1.46038e-10
1.46038e-10
1.46038e-10
1.46038e-10
1.46038e-10
1.46038e-10
1.46038e-10
1.46038e-10
1.46038e-10
1.46038e-10
1.46038e-10
1.46038e-10
1.46038e-10
1.46038e-10
1.46038e-10
1.46038e-10
1.46038e-10
1.46038e-10
1.46038e-10
1.46038e-10
1.46038e-10
1.46038e-10
1.46038e-10
1.46038e-10
1.46038e-10
1.46038e-10
1.46038e-10
1.46038e-10
1.46038e-10
1.46038e-10
1.46038e-10
1.46038e-10
1.46038e-10
1.46038e-10
1.46038e-10
1.46038e-10
1.46038e-10
1.46038e-10
1.46038e-10
1.46038e-10
1.46038e-10
1.46038e-10
1.46038e-10
1.46038e-10
1.46038e-10
1.46038e-10
1.46038e-10
1.46038e-10
1.46038e-10
1.46038e-10
1.46038e-10
1.46038e-10
1.46038e-10
1.46038e-10
1.46038e-10
1.46038e-10
1.46038e-10
1.46038e-10
1.46038e-10
1.46038e-10
1.46038e-10
1.46038e-10
1.46038e-10
1.46038e-10
1.46038e-10
1.46038e-10
1.46038e-10
1.46038e-10
1.46038e-10
1.46038e-10
1.46038e-10
1.46038e-10
1.46038e-10
1.46038e-10
1.46038e-10
1.46038e-10
1.46038e-10
1.46038e-10
1.46038e-10
1.46038e-10
1.46038e-10
1.46038e-10
1.46038e-10
1.46038e-10
1.46038e-10
1.46038e-10
1.46038e-10
1.46038e-10
1.46038e-10
1.46038e-10
1.46038e-10
1.46038e-10
1.46038e-10
1.46038e-10
1.46038e-10
1.46038e-10
1.46038e-10
1.46038e-10
1.46038e-10
1.46038e-10
1.46038e-10
1.46038e-10
1.46038e-10
1.46038e-10
1.46038e-10
1.46038e-10
1.46038e-10
1.46038e-10
1.46038e-10
1.46038e-10
1.46038e-10
1.46038e-10
1.46038e-10
1.46038e-10
1.46038e-10
1.46038e-10
1.46038e-10
1.46038e-10
1.46038e-10
1.46038e-10
1.46038e-10
1.46038e-10
1.46038e-10
1.46038e-10
1.46038e-10
1.46038e-10
1.46038e-10
1.46038e-10
1.46038e-10
1.46038e-10
1.46038e-10
1.46038e-10
1.46038e-10
1.46038e-10
1.46038e-10
1.46038e-10
1.46038e-10
1.46038e-10
1.46038e-10
1.46038e-10
1.46038e-10
1.46038e-10
1.46038e-10
1.46038e-10
1.46038e-10
1.46038e-10
1.46038e-10
1.46038e-10
1.46038e-10
1.46038e-10
1.46038e-10
1.46038e-10
1.46038e-10
1.46038e-10
1.46038e-10
1.46038e-10
1.46038e-10
1.46038e-10
1.46038e-10
1.46038e-10
1.46038e-10
1.46038e-10
1.46038e-10
1.46038e-10
1.46038e-10
1.46038e-10
1.46038e-10
1.46038e-10
1.46038e-10
1.46038e-10
1.46038e-10
1.46038e-10
1.46038e-10
1.46038e-10
1.46038e-10
1.46038e-10
1.46038e-10
1.46038e-10
1.46038e-10
1.46038e-10
1.46038e-10
1.46038e-10
1.46038e-10
1.46038e-10
1.46038e-10
1.46038e-10
1.46038e-10
1.46038e-10
1.46038e-10
1.46038e-10
1.46038e-10
1.46038e-10
1.46038e-10
1.46038e-10
1.46038e-10
1.46038e-10
1.46038e-10
1.46038e-10
1.46038e-10
1.46038e-10
1.46038e-10
1.46038e-10
1.46038e-10
1.46038e-10
1.46038e-10
1.46038e-10
1.46038e-10
1.46038e-10
1.46038e-10
1.46038e-10
1.46038e-10
1.46038e-10
1.46038e-10
1.46038e-10
1.46038e-10
1.46038e-10
1.46038e-10
1.46038e-10
1.46038e-10
1.46038e-10
1.46038e-10
1.46038e-10
1.46038e-10
1.46038e-10
1.46038e-10
1.46038e-10
1.46038e-10
1.46038e-10
1.46038e-10
1.46038e-10
1.46038e-10
1.46038e-10
1.46038e-10
1.46038e-10
1.46038e-10
1.46038e-10
1.46038e-10
1.46038e-10
1.46038e-10
1.46038e-10
1.46038e-10
1.46038e-10
1.46038e-10
1.46038e-10
1.46038e-10
1.46038e-10
1.46038e-10
1.46038e-10
1.46038e-10
1.46038e-10
1.46038e-10
1.46038e-10
1.46038e-10
1.46038e-10
1.46038e-10
1.46038e-10
1.46038e-10
1.46038e-10
1.46038e-10
1.46038e-10
1.46038e-10
1.46038e-10
1.46038e-10
1.46038e-10
1.46038e-10
1.46038e-10
1.46038e-10
1.46038e-10
1.46038e-10
1.46038e-10
1.46038e-10
1.46038e-10
1.46038e-10
1.46038e-10
1.46038e-10
1.46038e-10
1.46038e-10
1.46038e-10
1.46038e-10
1.46038e-10
1.46038e-10
1.46038e-10
1.46038e-10
1.46038e-10
1.46038e-10
1.46038e-10
1.46038e-10
1.46038e-10
1.46038e-10
1.46038e-10
1.46038e-10
1.46038e-10
1.46038e-10
1.46038e-10
1.46038e-10
1.46038e-10
1.46038e-10
1.46038e-10
1.46038e-10
1.46038e-10
1.46038e-10
1.46038e-10
1.46038e-10
1.46038e-10
1.46038e-10
1.46038e-10
1.46038e-10
1.46038e-10
1.46038e-10
1.46038e-10
1.46038e-10
1.46038e-10
1.46038e-10
1.46038e-10
1.46038e-10
1.46038e-10
1.46038e-10
1.46038e-10
1.46038e-10
1.46038e-10
1.46038e-10
1.46038e-10
1.46038e-10
1.46038e-10
1.46038e-10
1.46038e-10
1.46038e-10
1.46038e-10
1.46038e-10
1.46038e-10
1.46038e-10
1.46038e-10
1.46038e-10
1.46038e-10
1.46038e-10
1.46038e-10
1.46038e-10
1.46038e-10
1.46038e-10
1.46038e-10
1.46038e-10
1.46038e-10
1.46038e-10
1.46038e-10
1.46038e-10
1.46038e-10
1.46038e-10
1.46038e-10
1.46038e-10
1.46038e-10
1.46038e-10
1.46038e-10
1.46038e-10
1.46038e-10
1.46038e-10
1.46038e-10
1.46038e-10
1.46038e-10
1.46038e-10
1.46038e-10
1.46038e-10
1.46038e-10
1.46038e-10
1.46038e-10
1.46038e-10
1.46038e-10
1.46038e-10
1.46038e-10
1.46038e-10
1.46038e-10
1.46038e-10
1.46038e-10
1.46038e-10
1.46038e-10
1.46038e-10
1.46038e-10
1.46038e-10
1.46038e-10
1.46038e-10
1.46038e-10
1.46038e-10
1.46038e-10
1.46038e-10
1.46038e-10
1.46038e-10
1.46038e-10
1.46038e-10
1.46038e-10
1.46038e-10
1.46038e-10
1.46038e-10
1.46038e-10
1.46038e-10
1.46038e-10
1.46038e-10
1.46038e-10
1.46038e-10
1.46038e-10
1.46038e-10
1.46038e-10
1.46038e-10
1.46038e-10
1.46038e-10
1.46038e-10
1.46038e-10
1.46038e-10
1.46038e-10
1.46038e-10
1.46038e-10
1.46038e-10
1.46038e-10
1.46038e-10
1.46038e-10
1.46038e-10
1.46038e-10
1.46038e-10
1.46038e-10
1.46038e-10
1.46038e-10
1.46038e-10
1.46038e-10
1.46038e-10
1.46038e-10
1.46038e-10
1.46038e-10
1.46038e-10
1.46038e-10
1.46038e-10
1.46038e-10
1.46038e-10
1.46038e-10
1.46038e-10
1.46038e-10
1.46038e-10
1.46038e-10
1.46038e-10
1.46038e-10
1.46038e-10
1.46038e-10
1.46038e-10
1.46038e-10
1.46038e-10
1.46038e-10
1.46038e-10
1.46038e-10
1.46038e-10
1.46038e-10
1.46038e-10
1.46038e-10
1.46038e-10
1.46038e-10
1.46038e-10
1.46038e-10
1.46038e-10
1.46038e-10
1.46038e-10
1.46038e-10
1.46038e-10
1.46038e-10
1.46038e-10
1.46038e-10
1.46038e-10
1.46038e-10
1.46038e-10
1.46038e-10
1.46038e-10
1.46038e-10
1.46038e-10
1.46038e-10
1.46038e-10
1.46038e-10
1.46038e-10
1.46038e-10
1.46038e-10
1.46038e-10
1.46038e-10
1.46038e-10
1.46038e-10
1.46038e-10
1.46039e-10
1.46038e-10
1.46038e-10
1.46038e-10
1.46038e-10
1.46038e-10
1.46038e-10
1.46038e-10
1.46038e-10
1.46038e-10
1.46038e-10
1.46038e-10
1.46038e-10
1.46038e-10
1.46038e-10
1.46038e-10
1.46038e-10
1.46038e-10
1.46038e-10
1.46038e-10
1.46038e-10
1.46038e-10
1.46038e-10
1.46038e-10
1.46038e-10
1.46038e-10
1.46038e-10
1.46038e-10
1.46038e-10
1.46038e-10
1.46038e-10
1.46038e-10
1.46038e-10
1.46038e-10
1.46038e-10
1.46038e-10
1.46038e-10
1.46038e-10
1.46038e-10
1.46038e-10
1.46038e-10
1.46038e-10
1.46038e-10
1.46038e-10
1.46038e-10
1.46038e-10
1.46038e-10
1.46038e-10
1.46039e-10
1.46041e-10
1.46046e-10
1.46038e-10
1.46038e-10
1.46038e-10
1.46038e-10
1.46038e-10
1.46038e-10
1.46038e-10
1.46038e-10
1.46038e-10
1.46038e-10
1.46038e-10
1.46038e-10
1.46038e-10
1.46038e-10
1.46038e-10
1.46038e-10
1.46038e-10
1.46038e-10
1.46038e-10
1.46038e-10
1.46038e-10
1.46038e-10
1.46038e-10
1.46038e-10
1.46038e-10
1.46038e-10
1.46038e-10
1.46038e-10
1.46038e-10
1.46038e-10
1.46038e-10
1.46038e-10
1.46038e-10
1.46038e-10
1.46038e-10
1.46038e-10
1.46038e-10
1.46038e-10
1.46038e-10
1.46038e-10
1.46038e-10
1.46038e-10
1.46038e-10
1.46038e-10
1.46039e-10
1.46041e-10
1.46045e-10
1.46053e-10
1.4607e-10
1.46114e-10
1.46038e-10
1.46038e-10
1.46038e-10
1.46038e-10
1.46038e-10
1.46038e-10
1.46038e-10
1.46038e-10
1.46038e-10
1.46038e-10
1.46038e-10
1.46038e-10
1.46038e-10
1.46038e-10
1.46038e-10
1.46038e-10
1.46038e-10
1.46038e-10
1.46038e-10
1.46038e-10
1.46038e-10
1.46038e-10
1.46038e-10
1.46038e-10
1.46038e-10
1.46038e-10
1.46038e-10
1.46038e-10
1.46038e-10
1.46038e-10
1.46038e-10
1.46038e-10
1.46038e-10
1.46038e-10
1.46038e-10
1.46038e-10
1.46038e-10
1.46038e-10
1.46038e-10
1.46038e-10
1.46039e-10
1.46039e-10
1.46041e-10
1.46045e-10
1.46053e-10
1.46069e-10
1.46104e-10
1.46177e-10
1.46337e-10
1.46746e-10
1.46038e-10
1.46038e-10
1.46038e-10
1.46038e-10
1.46038e-10
1.46038e-10
1.46038e-10
1.46038e-10
1.46038e-10
1.46038e-10
1.46038e-10
1.46038e-10
1.46038e-10
1.46038e-10
1.46038e-10
1.46038e-10
1.46038e-10
1.46038e-10
1.46038e-10
1.46038e-10
1.46038e-10
1.46038e-10
1.46038e-10
1.46038e-10
1.46038e-10
1.46038e-10
1.46038e-10
1.46038e-10
1.46038e-10
1.46038e-10
1.46038e-10
1.46038e-10
1.46038e-10
1.46038e-10
1.46038e-10
1.46038e-10
1.46038e-10
1.46039e-10
1.4604e-10
1.46042e-10
1.46046e-10
1.46054e-10
1.46071e-10
1.46106e-10
1.46179e-10
1.4633e-10
1.46647e-10
1.47317e-10
1.48779e-10
1.52446e-10
1.46038e-10
1.46038e-10
1.46038e-10
1.46038e-10
1.46038e-10
1.46038e-10
1.46038e-10
1.46038e-10
1.46038e-10
1.46038e-10
1.46038e-10
1.46038e-10
1.46038e-10
1.46038e-10
1.46038e-10
1.46038e-10
1.46038e-10
1.46038e-10
1.46038e-10
1.46038e-10
1.46038e-10
1.46038e-10
1.46038e-10
1.46038e-10
1.46038e-10
1.46038e-10
1.46038e-10
1.46038e-10
1.46038e-10
1.46038e-10
1.46038e-10
1.46038e-10
1.46038e-10
1.46038e-10
1.46039e-10
1.4604e-10
1.46042e-10
1.46047e-10
1.46056e-10
1.46074e-10
1.46111e-10
1.46186e-10
1.46341e-10
1.46659e-10
1.47317e-10
1.48687e-10
1.51549e-10
1.57574e-10
1.7055e-10
2.0204e-10
1.46038e-10
1.46038e-10
1.46038e-10
1.46038e-10
1.46038e-10
1.46038e-10
1.46038e-10
1.46038e-10
1.46038e-10
1.46038e-10
1.46038e-10
1.46038e-10
1.46038e-10
1.46038e-10
1.46038e-10
1.46038e-10
1.46038e-10
1.46038e-10
1.46038e-10
1.46038e-10
1.46038e-10
1.46038e-10
1.46038e-10
1.46038e-10
1.46038e-10
1.46038e-10
1.46038e-10
1.46038e-10
1.46038e-10
1.46038e-10
1.46038e-10
1.46039e-10
1.4604e-10
1.46043e-10
1.46048e-10
1.46058e-10
1.46079e-10
1.46119e-10
1.462e-10
1.46363e-10
1.46694e-10
1.47368e-10
1.48747e-10
1.51578e-10
1.57414e-10
1.69473e-10
1.94406e-10
2.45947e-10
3.53569e-10
5.99248e-10
1.46038e-10
1.46038e-10
1.46038e-10
1.46038e-10
1.46038e-10
1.46038e-10
1.46038e-10
1.46038e-10
1.46038e-10
1.46038e-10
1.46038e-10
1.46038e-10
1.46038e-10
1.46038e-10
1.46038e-10
1.46038e-10
1.46038e-10
1.46038e-10
1.46038e-10
1.46038e-10
1.46038e-10
1.46038e-10
1.46038e-10
1.46038e-10
1.46038e-10
1.46038e-10
1.46038e-10
1.46039e-10
1.4604e-10
1.46041e-10
1.46044e-10
1.4605e-10
1.46062e-10
1.46085e-10
1.46131e-10
1.46221e-10
1.464e-10
1.46756e-10
1.47471e-10
1.48908e-10
1.51811e-10
1.57697e-10
1.69657e-10
1.93962e-10
2.43221e-10
3.42522e-10
5.41526e-10
9.39344e-10
1.74295e-09
3.48354e-09
1.46038e-10
1.46038e-10
1.46038e-10
1.46038e-10
1.46038e-10
1.46038e-10
1.46038e-10
1.46038e-10
1.46038e-10
1.46038e-10
1.46038e-10
1.46038e-10
1.46038e-10
1.46038e-10
1.46038e-10
1.46038e-10
1.46038e-10
1.46038e-10
1.46038e-10
1.46038e-10
1.46038e-10
1.46038e-10
1.46038e-10
1.46038e-10
1.46039e-10
1.4604e-10
1.46042e-10
1.46046e-10
1.46054e-10
1.46068e-10
1.46095e-10
1.46149e-10
1.46252e-10
1.46455e-10
1.46852e-10
1.47635e-10
1.49186e-10
1.52267e-10
1.58414e-10
1.70698e-10
1.9525e-10
2.44197e-10
3.41268e-10
5.32587e-10
9.07927e-10
1.64344e-09
3.08893e-09
5.94841e-09
1.16706e-08
2.34999e-08
1.46038e-10
1.46038e-10
1.46038e-10
1.46038e-10
1.46038e-10
1.46038e-10
1.46038e-10
1.46038e-10
1.46038e-10
1.46038e-10
1.46038e-10
1.46038e-10
1.46038e-10
1.46038e-10
1.46038e-10
1.46038e-10
1.46038e-10
1.46038e-10
1.46038e-10
1.46038e-10
1.46039e-10
1.46039e-10
1.46041e-10
1.46044e-10
1.46049e-10
1.46058e-10
1.46076e-10
1.4611e-10
1.46174e-10
1.46298e-10
1.46535e-10
1.46993e-10
1.47881e-10
1.49612e-10
1.52997e-10
1.59638e-10
1.72692e-10
1.98354e-10
2.48666e-10
3.46815e-10
5.37174e-10
9.04772e-10
1.61374e-09
2.98391e-09
5.6435e-09
1.08251e-08
2.09004e-08
4.02225e-08
7.62812e-08
1.41357e-07
1.46038e-10
1.46038e-10
1.46038e-10
1.46038e-10
1.46038e-10
1.46038e-10
1.46038e-10
1.46038e-10
1.46038e-10
1.46038e-10
1.46038e-10
1.46038e-10
1.46038e-10
1.46038e-10
1.46038e-10
1.46038e-10
1.46038e-10
1.46039e-10
1.4604e-10
1.46042e-10
1.46046e-10
1.46053e-10
1.46065e-10
1.46088e-10
1.46131e-10
1.46212e-10
1.46363e-10
1.46651e-10
1.47197e-10
1.48239e-10
1.50238e-10
1.54083e-10
1.61506e-10
1.75855e-10
2.03591e-10
2.57056e-10
3.59618e-10
5.55307e-10
9.27237e-10
1.63344e-09
2.97715e-09
5.54463e-09
1.04689e-08
1.99e-08
3.77339e-08
7.0496e-08
1.28041e-07
2.23686e-07
3.74009e-07
5.98767e-07
1.46038e-10
1.46038e-10
1.46038e-10
1.46038e-10
1.46038e-10
1.46038e-10
1.46038e-10
1.46038e-10
1.46038e-10
1.46038e-10
1.46038e-10
1.46038e-10
1.46038e-10
1.46039e-10
1.4604e-10
1.46041e-10
1.46044e-10
1.46049e-10
1.46058e-10
1.46075e-10
1.46106e-10
1.46162e-10
1.46266e-10
1.4646e-10
1.46819e-10
1.47492e-10
1.48757e-10
1.51143e-10
1.55661e-10
1.64239e-10
1.80547e-10
2.11534e-10
2.70242e-10
3.80952e-10
5.88699e-10
9.77256e-10
1.70359e-09
3.06442e-09
5.62476e-09
1.04606e-08
1.95885e-08
3.66314e-08
6.76425e-08
1.21776e-07
2.11397e-07
3.51436e-07
5.583e-07
8.48924e-07
1.24113e-06
1.75398e-06
1.46038e-10
1.46038e-10
1.46038e-10
1.46038e-10
1.46038e-10
1.46038e-10
1.46038e-10
1.46038e-10
1.46038e-10
1.46039e-10
1.46039e-10
1.46041e-10
1.46043e-10
1.46047e-10
1.46055e-10
1.46068e-10
1.46091e-10
1.46133e-10
1.4621e-10
1.46349e-10
1.46603e-10
1.47068e-10
1.47926e-10
1.49512e-10
1.52457e-10
1.57943e-10
1.68189e-10
1.8734e-10
2.23105e-10
2.89683e-10
4.13065e-10
6.40721e-10
1.05969e-09
1.83073e-09
3.25336e-09
5.88941e-09
1.07928e-08
1.99113e-08
3.67052e-08
6.69188e-08
1.19235e-07
2.05436e-07
3.39863e-07
5.38332e-07
8.16986e-07
1.19134e-06
1.67596e-06
2.2844e-06
3.0308e-06
3.93236e-06
1.46038e-10
1.46038e-10
1.46038e-10
1.46038e-10
1.46038e-10
1.46039e-10
1.46039e-10
1.46041e-10
1.46043e-10
1.46046e-10
1.46052e-10
1.46063e-10
1.46083e-10
1.46116e-10
1.46176e-10
1.46284e-10
1.46475e-10
1.4682e-10
1.47442e-10
1.48571e-10
1.50626e-10
1.54382e-10
1.61265e-10
1.73907e-10
1.97135e-10
2.39752e-10
3.17677e-10
4.5956e-10
7.16943e-10
1.18301e-09
2.02752e-09
3.56222e-09
6.36328e-09
1.1495e-08
2.08941e-08
3.79534e-08
6.82446e-08
1.2014e-07
2.0499e-07
3.36664e-07
5.30569e-07
8.02526e-07
1.16787e-06
1.64082e-06
2.23421e-06
2.95874e-06
3.82348e-06
4.83612e-06
6.00553e-06
7.34706e-06
1.46038e-10
1.46039e-10
1.46039e-10
1.46041e-10
1.46042e-10
1.46046e-10
1.46051e-10
1.46061e-10
1.46078e-10
1.46107e-10
1.46157e-10
1.46245e-10
1.464e-10
1.46673e-10
1.47156e-10
1.48016e-10
1.4955e-10
1.52301e-10
1.57247e-10
1.66166e-10
1.8227e-10
2.11344e-10
2.63731e-10
3.57794e-10
5.26039e-10
8.26104e-10
1.36078e-09
2.3148e-09
4.02265e-09
7.09351e-09
1.26349e-08
2.26282e-08
4.04876e-08
7.17362e-08
1.24582e-07
2.10081e-07
3.41723e-07
5.34531e-07
8.0401e-07
1.16528e-06
1.63244e-06
2.21828e-06
2.93396e-06
3.78826e-06
4.78818e-06
5.93819e-06
7.23837e-06
8.68371e-06
1.02708e-05
1.2023e-05
1.46041e-10
1.46043e-10
1.46046e-10
1.46051e-10
1.46061e-10
1.46076e-10
1.46103e-10
1.46148e-10
1.46225e-10
1.46359e-10
1.4659e-10
1.46991e-10
1.47691e-10
1.48916e-10
1.51069e-10
1.54869e-10
1.61594e-10
1.73518e-10
1.9468e-10
2.32204e-10
2.9858e-10
4.15586e-10
6.21176e-10
9.81717e-10
1.61402e-09
2.72518e-09
4.68512e-09
8.15747e-09
1.43289e-08
2.52837e-08
4.4544e-08
7.7702e-08
1.32936e-07
2.21138e-07
3.55505e-07
5.50708e-07
8.21915e-07
1.18395e-06
1.65075e-06
2.235e-06
2.94799e-06
3.79883e-06
4.7948e-06
5.94092e-06
7.23905e-06
8.68527e-06
1.02706e-05
1.19834e-05
1.3815e-05
1.57654e-05
1.78819e-05
1.46062e-10
1.46077e-10
1.46103e-10
1.46146e-10
1.46219e-10
1.46342e-10
1.46551e-10
1.46906e-10
1.47514e-10
1.48559e-10
1.50361e-10
1.53481e-10
1.58897e-10
1.68326e-10
1.84764e-10
2.13421e-10
2.63306e-10
3.49903e-10
4.99764e-10
7.58481e-10
1.20473e-09
1.97522e-09
3.30916e-09
5.62795e-09
9.67611e-09
1.67616e-08
2.91358e-08
5.05184e-08
8.66838e-08
1.45906e-07
2.39024e-07
3.79028e-07
5.80264e-07
8.57544e-07
1.22535e-06
1.69736e-06
2.28606e-06
3.00262e-06
3.85653e-06
4.85509e-06
6.00385e-06
7.30583e-06
8.7595e-06
1.03575e-05
1.20886e-05
1.39408e-05
1.59054e-05
1.79759e-05
2.01507e-05
2.24353e-05
2.48933e-05
1.46152e-10
1.46224e-10
1.46345e-10
1.46546e-10
1.46882e-10
1.47447e-10
1.48398e-10
1.50008e-10
1.52742e-10
1.57401e-10
1.6536e-10
1.78985e-10
2.02323e-10
2.42267e-10
3.10494e-10
4.26711e-10
6.24185e-10
9.59269e-10
1.52799e-09
2.49507e-09
4.14509e-09
6.97235e-09
1.18363e-08
2.0218e-08
3.46096e-08
5.90241e-08
9.95287e-08
1.64604e-07
2.65136e-07
4.13965e-07
6.25138e-07
9.13089e-07
1.29192e-06
1.77495e-06
2.37439e-06
3.10123e-06
3.96504e-06
4.97324e-06
6.13159e-06
7.44361e-06
8.90963e-06
1.05244e-05
1.22778e-05
1.41574e-05
1.61519e-05
1.82536e-05
2.04567e-05
2.27594e-05
2.51592e-05
2.7658e-05
3.0264e-05
3.30477e-05
1.46915e-10
1.47473e-10
1.48397e-10
1.49931e-10
1.52487e-10
1.56762e-10
1.6393e-10
1.75976e-10
1.96239e-10
2.30316e-10
2.87544e-10
3.83429e-10
5.43717e-10
8.11253e-10
1.25771e-09
2.0037e-09
3.25362e-09
5.35596e-09
8.90734e-09
1.49272e-08
2.51353e-08
4.23511e-08
7.09842e-08
1.17501e-07
1.90686e-07
3.01539e-07
4.62798e-07
6.88215e-07
9.91818e-07
1.38728e-06
1.88748e-06
2.50433e-06
3.2485e-06
4.12941e-06
5.15467e-06
6.32996e-06
7.65921e-06
9.14374e-06
1.07803e-05
1.25602e-05
1.44714e-05
1.65012e-05
1.86399e-05
2.08802e-05
2.32176e-05
2.56503e-05
2.81763e-05
3.07965e-05
3.35097e-05
3.63169e-05
3.92358e-05
4.23454e-05
1.52658e-10
1.56839e-10
1.63721e-10
1.75072e-10
1.93818e-10
2.24782e-10
2.75874e-10
3.60023e-10
4.98339e-10
7.25359e-10
1.09783e-09
1.70953e-09
2.7164e-09
4.37945e-09
7.13778e-09
1.17315e-08
1.94006e-08
3.21868e-08
5.33391e-08
8.77724e-08
1.42451e-07
2.26534e-07
3.51179e-07
5.29032e-07
7.73535e-07
1.09827e-06
1.51644e-06
2.04045e-06
2.68176e-06
3.4507e-06
4.35641e-06
5.40657e-06
6.60674e-06
7.961e-06
9.47114e-06
1.11355e-05
1.29471e-05
1.48945e-05
1.69647e-05
1.91459e-05
2.14296e-05
2.38092e-05
2.62818e-05
2.88443e-05
3.14966e-05
3.42391e-05
3.70692e-05
3.999e-05
4.30113e-05
4.61272e-05
4.93372e-05
5.27326e-05
1.94529e-10
2.24474e-10
2.72997e-10
3.51511e-10
4.78339e-10
6.8296e-10
1.01298e-09
1.5457e-09
2.40736e-09
3.80542e-09
6.08276e-09
9.80804e-09
1.59229e-08
2.59697e-08
4.24162e-08
6.90577e-08
1.11423e-07
1.77055e-07
2.75528e-07
4.18162e-07
6.17485e-07
8.86597e-07
1.23859e-06
1.68613e-06
2.2411e-06
2.91445e-06
3.7161e-06
4.65484e-06
5.73818e-06
6.97164e-06
8.35924e-06
9.90299e-06
1.16022e-05
1.34515e-05
1.54405e-05
1.75563e-05
1.97858e-05
2.21188e-05
2.45473e-05
2.70663e-05
2.96734e-05
3.23655e-05
3.51433e-05
3.80059e-05
4.09513e-05
4.39893e-05
4.71219e-05
5.03346e-05
5.36319e-05
5.70168e-05
6.04989e-05
6.41706e-05
4.79546e-10
6.75309e-10
9.85614e-10
1.47792e-09
2.26051e-09
3.50822e-09
5.50494e-09
8.71359e-09
1.38896e-08
2.22578e-08
3.57709e-08
5.74492e-08
9.17593e-08
1.44942e-07
2.25164e-07
3.42413e-07
5.0813e-07
7.34671e-07
1.03473e-06
1.42087e-06
1.90514e-06
2.49885e-06
3.2124e-06
4.05524e-06
5.03573e-06
6.16108e-06
7.43676e-06
8.86654e-06
1.04526e-05
1.21946e-05
1.40886e-05
1.61254e-05
1.82923e-05
2.05757e-05
2.29639e-05
2.54478e-05
2.80207e-05
3.06784e-05
3.34178e-05
3.62381e-05
3.91404e-05
4.21203e-05
4.51811e-05
4.83339e-05
5.15707e-05
5.4885e-05
5.82786e-05
6.1752e-05
6.53082e-05
6.89539e-05
7.27034e-05
7.6646e-05
2.2458e-09
3.42673e-09
5.28389e-09
8.21645e-09
1.28655e-08
2.02567e-08
3.20107e-08
5.06274e-08
7.98227e-08
1.24854e-07
1.92738e-07
2.92265e-07
4.33779e-07
6.28754e-07
8.89283e-07
1.22758e-06
1.65561e-06
2.18477e-06
2.82574e-06
3.58833e-06
4.48145e-06
5.51299e-06
6.68973e-06
8.01707e-06
9.49842e-06
1.11359e-05
1.29295e-05
1.4876e-05
1.69674e-05
1.91916e-05
2.1535e-05
2.39846e-05
2.653e-05
2.91629e-05
3.18779e-05
3.46724e-05
3.75429e-05
4.04893e-05
4.35109e-05
4.6606e-05
4.9784e-05
5.3046e-05
5.6384e-05
5.97951e-05
6.32813e-05
6.68435e-05
7.04856e-05
7.4211e-05
7.80221e-05
8.19211e-05
8.59223e-05
9.01158e-05
1.26415e-08
1.95618e-08
3.03898e-08
4.72902e-08
7.3471e-08
1.13486e-07
1.73472e-07
2.61231e-07
3.86109e-07
5.58687e-07
7.90346e-07
1.0928e-06
1.4777e-06
1.95634e-06
2.53942e-06
3.23697e-06
4.05814e-06
5.01127e-06
6.10373e-06
7.34187e-06
8.73076e-06
1.02736e-05
1.19723e-05
1.38267e-05
1.58344e-05
1.7988e-05
2.02765e-05
2.26861e-05
2.5203e-05
2.78157e-05
3.05153e-05
3.32947e-05
3.61497e-05
3.9077e-05
4.20747e-05
4.51451e-05
4.82828e-05
5.14913e-05
5.47813e-05
5.81482e-05
6.15833e-05
6.50867e-05
6.86626e-05
7.23098e-05
7.60338e-05
7.98376e-05
8.37222e-05
8.76876e-05
9.17356e-05
9.58681e-05
0.0001001
0.00010452
1.08997e-07
1.64539e-07
2.45253e-07
3.59653e-07
5.175e-07
7.29441e-07
1.0066e-06
1.3602e-06
1.80123e-06
2.34025e-06
2.98725e-06
3.75152e-06
4.64158e-06
5.66512e-06
6.82897e-06
8.139e-06
9.59988e-06
1.12145e-05
1.29845e-05
1.49097e-05
1.69877e-05
1.92121e-05
2.15722e-05
2.40546e-05
2.66451e-05
2.93316e-05
3.21039e-05
3.49531e-05
3.78749e-05
4.08659e-05
4.39217e-05
4.70444e-05
5.02322e-05
5.34802e-05
5.68035e-05
6.02014e-05
6.36657e-05
6.71919e-05
7.07846e-05
7.44441e-05
7.81725e-05
8.19743e-05
8.58518e-05
8.98049e-05
9.38346e-05
9.79419e-05
0.000102126
0.000106389
0.000110731
0.000115167
0.000119788
5.01079e-07
7.01294e-07
9.62538e-07
1.29551e-06
1.71081e-06
2.2187e-06
2.82896e-06
3.55083e-06
4.39287e-06
5.36289e-06
6.46795e-06
7.7143e-06
9.10726e-06
1.06511e-05
1.23483e-05
1.42e-05
1.62061e-05
1.83641e-05
2.06681e-05
2.31078e-05
2.56702e-05
2.8341e-05
3.11072e-05
3.39576e-05
3.68829e-05
3.98778e-05
4.29375e-05