/*--------------------------------*- C++ -*----------------------------------*\
| =========                 |                                                 |
| \\      /  F ield         | OpenFOAM: The Open Source CFD Toolbox           |
|  \\    /   O peration     | Version:  v1706                                 |
|   \\  /    A nd           | Web:      www.OpenFOAM.com                      |
|    \\/     M anipulation  |                                                 |
\*---------------------------------------------------------------------------*/
FoamFile
{
    version     2.0;
    format      ascii;
    class       volScalarField;
    location    "1.2e-05";
    object      Mach;
}
// * * * * * * * * * * * * * * * * * * * * * * * * * * * * * * * * * * * * * //

dimensions      [0 0 0 0 0 0 0];


internalField   nonuniform List<scalar> 
30038
(
11.2859
11.2859
11.2859
11.2859
11.2859
11.2859
11.2859
11.2859
11.2859
11.2859
11.2859
11.2859
11.2859
11.2859
11.2859
11.2859
11.2859
11.2859
11.2859
11.2859
11.2859
11.2859
11.2859
11.2859
11.2859
11.2859
11.2859
11.2859
11.2859
11.2859
11.2859
11.2859
11.2859
11.2859
11.2859
11.2859
11.2859
11.2859
11.2859
11.2859
11.2859
11.2859
11.2859
11.2859
11.2859
11.2859
11.2859
11.2859
11.2859
11.2859
11.2859
11.2859
11.2859
11.2859
11.2859
11.2859
11.2859
11.2859
11.2859
11.2859
11.2859
11.2859
11.2859
11.2859
11.2859
11.2859
11.2859
11.2859
11.2859
11.2859
11.2859
11.2859
11.2859
11.2859
11.2859
11.2859
11.2859
11.2859
11.2859
11.2859
11.2859
11.2859
11.2859
11.2859
11.2859
11.2859
11.2859
11.2859
11.2859
11.2859
11.2859
11.2859
11.2859
11.2859
11.2859
11.2859
11.2859
11.2859
11.2859
11.2859
11.2859
11.2859
11.2859
11.2859
11.2859
11.2859
11.2859
11.2859
11.2859
11.2859
11.2859
11.2859
11.2859
11.2859
11.2859
11.2859
11.2859
11.2859
11.2859
11.2859
11.2859
11.2859
11.2859
11.2859
11.2859
11.2859
11.2859
11.2859
11.2859
11.2859
11.2859
11.2859
11.2859
11.2859
11.2859
11.2859
11.2859
11.2859
11.2859
11.2859
11.2859
11.2859
11.2859
11.2859
11.2859
11.2859
11.2859
11.2859
11.2859
11.2859
11.2859
11.2859
11.2859
11.2859
11.2859
11.2859
11.2859
11.2859
11.2859
11.2859
11.2859
11.2859
11.2859
11.2859
11.2859
11.2859
11.2859
11.2859
11.2859
11.2859
11.2859
11.2859
11.2859
11.2859
11.2859
11.2859
11.2859
11.2859
11.2859
11.2859
11.2859
11.2859
11.2859
11.2859
11.2859
11.2859
11.2859
11.2859
11.2859
11.2859
11.2859
11.2859
11.2859
11.2859
11.2859
11.2859
11.2859
11.2859
11.2859
11.2859
11.2859
11.2859
11.2859
11.2859
11.2859
11.2859
11.2859
11.2859
11.2859
11.2859
11.2859
11.2859
11.2859
11.2859
11.2859
11.2859
11.2859
11.2859
11.2859
11.2859
11.2859
11.2859
11.2859
11.2859
11.2859
11.2859
11.2859
11.2859
11.2859
11.2859
11.2859
11.2859
11.2859
11.2859
11.2859
11.2859
11.2859
11.2859
11.2859
11.2859
11.2859
11.2859
11.2859
11.2859
11.2859
11.2859
11.2859
11.2859
11.2859
11.2859
11.2859
11.2859
11.2859
11.2859
11.2859
11.2859
11.2859
11.2859
11.2859
11.2859
11.2859
11.2859
11.2859
11.2859
11.2859
11.2859
11.2859
11.2859
11.2859
11.2859
11.2859
11.2859
11.2859
11.2859
11.2859
11.2859
11.2859
11.2859
11.2859
11.2859
11.2859
11.2859
11.2859
11.2859
11.2859
11.2859
11.2859
11.2859
11.2859
11.2859
11.2859
11.2859
11.2859
11.2859
11.2859
11.2859
11.2859
11.2859
11.2859
11.2859
11.2859
11.2859
11.2859
11.2859
11.2859
11.2859
11.2859
11.2859
11.2859
11.2859
11.2859
11.2859
11.2859
11.2859
11.2859
11.2859
11.2859
11.2859
11.2859
11.2859
11.2859
11.2859
11.2859
11.2859
11.2859
11.2859
11.2859
11.2859
11.2859
11.2859
11.2859
11.2859
11.2859
11.2859
11.2859
11.2859
11.2859
11.2859
11.2859
11.2859
11.2859
11.2859
11.2859
11.2859
11.2859
11.2859
11.2859
11.2859
11.2859
11.2859
11.2859
11.2859
11.2859
11.2859
11.2859
11.2859
11.2859
11.2859
11.2859
11.2859
11.2859
11.2859
11.2859
11.2859
11.2859
11.2859
11.2859
11.2859
11.2859
11.2859
11.2859
11.2859
11.2859
11.2859
11.2859
11.2859
11.2859
11.2859
11.2859
11.2859
11.2859
11.2859
11.2859
11.2859
11.2859
11.2859
11.2859
11.2859
11.2859
11.2859
11.2859
11.2859
11.2859
11.2859
11.2859
11.2859
11.2859
11.2859
11.2859
11.2859
11.2859
11.2859
11.2859
11.2859
11.2859
11.2859
11.2859
11.2859
11.2859
11.2859
11.2859
11.2859
11.2859
11.2859
11.2859
11.2859
11.2859
11.2859
11.2859
11.2859
11.2859
11.2859
11.2859
11.2859
11.2859
11.2859
11.2859
11.2859
11.2859
11.2859
11.2859
11.2859
11.2859
11.2859
11.2859
11.2859
11.2859
11.2859
11.2859
11.2859
11.2859
11.2859
11.2859
11.2859
11.2859
11.2859
11.2859
11.2859
11.2859
11.2859
11.2859
11.2859
11.2859
11.2859
11.2859
11.2859
11.2859
11.2859
11.2859
11.2859
11.2859
11.2859
11.2859
11.2859
11.2859
11.2859
11.2859
11.2859
11.2859
11.2859
11.2859
11.2859
11.2859
11.2859
11.2859
11.2859
11.2859
11.2859
11.2859
11.2859
11.2859
11.2859
11.2859
11.2859
11.2859
11.2859
11.2859
11.2859
11.2859
11.2859
11.2859
11.2859
11.2859
11.2859
11.2859
11.2859
11.2859
11.2859
11.2859
11.2859
11.2859
11.2859
11.2859
11.2859
11.2859
11.2859
11.2859
11.2859
11.2859
11.2859
11.2859
11.2859
11.2859
11.2859
11.2859
11.2859
11.2859
11.2859
11.2859
11.2859
11.2859
11.2859
11.2859
11.2859
11.2859
11.2859
11.2859
11.2859
11.2859
11.2859
11.2859
11.2859
11.2859
11.2859
11.2859
11.2859
11.2859
11.2859
11.2859
11.2859
11.2859
11.2859
11.2859
11.2859
11.2859
11.2859
11.2859
11.2859
11.2859
11.2859
11.2859
11.2859
11.2859
11.2859
11.2859
11.2859
11.2859
11.2859
11.2859
11.2859
11.2859
11.2859
11.2859
11.2859
11.2859
11.2859
11.2859
11.2859
11.2859
11.2859
11.2859
11.2859
11.2859
11.2859
11.2859
11.2859
11.2859
11.2859
11.2859
11.2859
11.2859
11.2859
11.2859
11.2859
11.2859
11.2859
11.2859
11.2859
11.2859
11.2859
11.2859
11.2859
11.2859
11.2859
11.2859
11.2859
11.2859
11.2859
11.2859
11.2859
11.2859
11.2859
11.2859
11.2859
11.2859
11.2859
11.2859
11.2859
11.2859
11.2859
11.2859
11.2859
11.2859
11.2859
11.2859
11.2859
11.2859
11.2859
11.2859
11.2859
11.2859
11.2859
11.2859
11.2859
11.2859
11.2859
11.2859
11.2859
11.2859
11.2859
11.2859
11.2859
11.2859
11.2859
11.2859
11.2859
11.2859
11.2859
11.2859
11.2859
11.2859
11.2859
11.2859
11.2859
11.2859
11.2859
11.2859
11.2859
11.2859
11.2859
11.2859
11.2859
11.2859
11.2859
11.2859
11.2859
11.2859
11.2859
11.2859
11.2859
11.2859
11.2859
11.2859
11.2859
11.2859
11.2859
11.2859
11.2859
11.2859
11.2859
11.2859
11.2859
11.2859
11.2859
11.2859
11.2859
11.2859
11.2859
11.2859
11.2859
11.2859
11.2859
11.2859
11.2859
11.2859
11.2859
11.2859
11.2859
11.2859
11.2859
11.2859
11.2859
11.2859
11.2859
11.2859
11.2859
11.2859
11.2859
11.2859
11.2859
11.2859
11.2859
11.2859
11.2859
11.2859
11.2859
11.2859
11.2859
11.2859
11.2859
11.2859
11.2859
11.2859
11.2859
11.2859
11.2859
11.2859
11.2859
11.2859
11.2859
11.2859
11.2859
11.2859
11.2859
11.2859
11.2859
11.2859
11.2859
11.2859
11.2859
11.2859
11.2859
11.2859
11.2859
11.2859
11.2859
11.2859
11.2859
11.2859
11.2859
11.2859
11.2859
11.2859
11.2859
11.2859
11.2859
11.2859
11.2859
11.2859
11.2859
11.2859
11.2859
11.2859
11.2859
11.2859
11.2859
11.2859
11.2859
11.2859
11.2859
11.2859
11.2859
11.2859
11.2859
11.2859
11.2859
11.2859
11.2859
11.2859
11.2859
11.2859
11.2859
11.2859
11.2859
11.2859
11.2859
11.2859
11.2859
11.2859
11.2859
11.2859
11.2859
11.2859
11.2859
11.2859
11.2859
11.2859
11.2859
11.2859
11.2859
11.2859
11.2859
11.2859
11.2859
11.2859
11.2859
11.2859
11.2859
11.2859
11.2859
11.2859
11.2859
11.2859
11.2859
11.2859
11.2859
11.2859
11.2859
11.2859
11.2859
11.2859
11.2859
11.2859
11.2859
11.2859
11.2859
11.2859
11.2859
11.2859
11.2859
11.2859
11.2859
11.2859
11.2859
11.2859
11.2859
11.2859
11.2859
11.2859
11.2859
11.2859
11.2859
11.2859
11.2859
11.2859
11.2859
11.2859
11.2859
11.2859
11.2859
11.2859
11.2859
11.2859
11.2859
11.2859
11.2859
11.2859
11.2859
11.2859
11.2859
11.2859
11.2859
11.2859
11.2859
11.2859
11.2859
11.2859
11.2859
11.2859
11.2859
11.2859
11.2859
11.2859
11.2859
11.2859
11.2859
11.2859
11.2859
11.2859
11.2859
11.2859
11.2859
11.2859
11.2859
11.2859
11.2859
11.2859
11.2859
11.2859
11.2859
11.2859
11.2859
11.2859
11.2859
11.2859
11.2859
11.2859
11.2859
11.2859
11.2859
11.2859
11.2859
11.2859
11.2859
11.2859
11.2859
11.2859
11.2859
11.2859
11.2859
11.2859
11.2859
11.2859
11.2859
11.2859
11.2859
11.2859
11.2859
11.2859
11.2859
11.2859
11.2859
11.2859
11.2859
11.2859
11.2859
11.2859
11.2859
11.2859
11.2859
11.2859
11.2859
11.2859
11.2859
11.2859
11.2859
11.2859
11.2859
11.2859
11.2859
11.2859
11.2859
11.2859
11.2859
11.2859
11.2859
11.2859
11.2859
11.2859
11.2859
11.2859
11.2859
11.2859
11.2859
11.2859
11.2859
11.2859
11.2859
11.2859
11.2859
11.2859
11.2859
11.2859
11.2859
11.2859
11.2859
11.2859
11.2859
11.2859
11.2859
11.2859
11.2859
11.2859
11.2859
11.2859
11.2859
11.2859
11.2859
11.2859
11.2859
11.2859
11.2859
11.2859
11.2859
11.2859
11.2859
11.2859
11.2859
11.2859
11.2859
11.2859
11.2859
11.2859
11.2859
11.2859
11.2859
11.2859
11.2859
11.2859
11.2859
11.2859
11.2859
11.2859
11.2859
11.2859
11.2859
11.2859
11.2859
11.2859
11.2859
11.2859
11.2859
11.2859
11.2859
11.2859
11.2859
11.2859
11.2859
11.2859
11.2859
11.2859
11.2859
11.2859
11.2859
11.2859
11.2859
11.2859
11.2859
11.2859
11.2859
11.2859
11.2859
11.2859
11.2859
11.2859
11.2859
11.2859
11.2859
11.2859
11.2859
11.2859
11.2859
11.2859
11.2859
11.2859
11.2859
11.2859
11.2859
11.2859
11.2859
11.2859
11.2859
11.2859
11.2859
11.2859
11.2859
11.2859
11.2859
11.2859
11.2859
11.2859
11.2859
11.2859
11.2859
11.2859
11.2859
11.2859
11.2859
11.2859
11.2859
11.2859
11.2859
11.2859
11.2859
11.2859
11.2859
11.2859
11.2859
11.2859
11.2859
11.2859
11.2859
11.2859
11.2859
11.2859
11.2859
11.2859
11.2859
11.2859
11.2859
11.2859
11.2859
11.2859
11.2859
11.2859
11.2859
11.2859
11.2859
11.2859
11.2859
11.2859
11.2859
11.2859
11.2859
11.2859
11.2859
11.2859
11.2859
11.2859
11.2859
11.2859
11.2859
11.2859
11.2859
11.2859
11.2859
11.2859
11.2859
11.2859
11.2859
11.2859
11.2859
11.2859
11.2859
11.2859
11.2859
11.2859
11.2859
11.2859
11.2859
11.2859
11.2859
11.2859
11.2859
11.2859
11.2859
11.2859
11.2859
11.2859
11.2859
11.2859
11.2859
11.2859
11.2859
11.2859
11.2859
11.2859
11.2859
11.2859
11.2859
11.2859
11.2859
11.2859
11.2859
11.2859
11.2859
11.2859
11.2859
11.2859
11.2859
11.2859
11.2859
11.2859
11.2859
11.2859
11.2859
11.2859
11.2859
11.2859
11.2859
11.2859
11.2859
11.2859
11.2859
11.2859
11.2859
11.2859
11.2859
11.2859
11.2859
11.2859
11.2859
11.2859
11.2859
11.2859
11.2859
11.2859
11.2859
11.2859
11.2859
11.2859
11.2859
11.2859
11.2859
11.2859
11.2859
11.2859
11.2859
11.2859
11.2859
11.2859
11.2859
11.2859
11.2859
11.2859
11.2859
11.2859
11.2859
11.2859
11.2859
11.2859
11.2859
11.2859
11.2859
11.2859
11.2859
11.2859
11.2859
11.2859
11.2859
11.2859
11.2859
11.2859
11.2859
11.2859
11.2859
11.2859
11.2859
11.2859
11.2859
11.2859
11.2859
11.2859
11.2859
11.2859
11.2859
11.2859
11.2859
11.2859
11.2859
11.2859
11.2859
11.2859
11.2859
11.2859
11.2859
11.2859
11.2859
11.2859
11.2859
11.2858
11.2858
11.2859
11.2859
11.2859
11.2859
11.2859
11.2859
11.2859
11.2859
11.2859
11.2859
11.2859
11.2859
11.2859
11.2859
11.2859
11.2859
11.2859
11.2859
11.2859
11.2859
11.2859
11.2859
11.2859
11.2859
11.2859
11.2859
11.2859
11.2859
11.2859
11.2859
11.2859
11.2859
11.2859
11.2859
11.2859
11.2859
11.2859
11.2859
11.2859
11.2859
11.2859
11.2859
11.2859
11.2859
11.2859
11.2858
11.2858
11.2858
11.2858
11.2857
11.2859
11.2859
11.2859
11.2859
11.2859
11.2859
11.2859
11.2859
11.2859
11.2859
11.2859
11.2859
11.2859
11.2859
11.2859
11.2859
11.2859
11.2859
11.2859
11.2859
11.2859
11.2859
11.2859
11.2859
11.2859
11.2859
11.2859
11.2859
11.2859
11.2859
11.2859
11.2859
11.2859
11.2859
11.2859
11.2859
11.2859
11.2859
11.2859
11.2859
11.2859
11.2859
11.2858
11.2858
11.2858
11.2858
11.2857
11.2856
11.2854
11.285
11.2859
11.2859
11.2859
11.2859
11.2859
11.2859
11.2859
11.2859
11.2859
11.2859
11.2859
11.2859
11.2859
11.2859
11.2859
11.2859
11.2859
11.2859
11.2859
11.2859
11.2859
11.2859
11.2859
11.2859
11.2859
11.2859
11.2859
11.2859
11.2859
11.2859
11.2859
11.2859
11.2859
11.2859
11.2859
11.2859
11.2859
11.2859
11.2859
11.2858
11.2858
11.2858
11.2858
11.2857
11.2856
11.2854
11.2851
11.2844
11.2832
11.2809
11.2859
11.2859
11.2859
11.2859
11.2859
11.2859
11.2859
11.2859
11.2859
11.2859
11.2859
11.2859
11.2859
11.2859
11.2859
11.2859
11.2859
11.2859
11.2859
11.2859
11.2859
11.2859
11.2859
11.2859
11.2859
11.2859
11.2859
11.2859
11.2859
11.2859
11.2859
11.2859
11.2859
11.2859
11.2859
11.2859
11.2858
11.2858
11.2858
11.2858
11.2857
11.2856
11.2854
11.2851
11.2845
11.2834
11.2815
11.278
11.2715
11.2589
11.2859
11.2859
11.2859
11.2859
11.2859
11.2859
11.2859
11.2859
11.2859
11.2859
11.2859
11.2859
11.2859
11.2859
11.2859
11.2859
11.2859
11.2859
11.2859
11.2859
11.2859
11.2859
11.2859
11.2859
11.2859
11.2859
11.2859
11.2859
11.2859
11.2859
11.2859
11.2859
11.2858
11.2858
11.2858
11.2858
11.2858
11.2857
11.2856
11.2854
11.2851
11.2845
11.2835
11.2817
11.2784
11.2726
11.2622
11.2435
11.2096
11.146
11.2859
11.2859
11.2859
11.2859
11.2859
11.2859
11.2859
11.2859
11.2859
11.2859
11.2859
11.2859
11.2859
11.2859
11.2859
11.2859
11.2859
11.2859
11.2859
11.2859
11.2859
11.2859
11.2859
11.2859
11.2859
11.2859
11.2859
11.2859
11.2859
11.2858
11.2858
11.2858
11.2858
11.2858
11.2857
11.2856
11.2854
11.2851
11.2845
11.2835
11.2817
11.2786
11.2731
11.2635
11.2464
11.2162
11.1631
11.0704
10.9103
10.6373
11.2859
11.2859
11.2859
11.2859
11.2859
11.2859
11.2859
11.2859
11.2859
11.2859
11.2859
11.2859
11.2859
11.2859
11.2859
11.2859
11.2859
11.2859
11.2859
11.2859
11.2859
11.2859
11.2859
11.2859
11.2859
11.2859
11.2858
11.2858
11.2858
11.2858
11.2858
11.2857
11.2856
11.2854
11.285
11.2844
11.2834
11.2817
11.2786
11.2733
11.264
11.2479
11.2197
11.1708
11.0865
10.9438
10.7094
10.3427
9.80689
9.09193
11.2859
11.2859
11.2859
11.2859
11.2859
11.2859
11.2859
11.2859
11.2859
11.2859
11.2859
11.2859
11.2859
11.2859
11.2859
11.2859
11.2859
11.2859
11.2859
11.2859
11.2859
11.2859
11.2858
11.2858
11.2858
11.2858
11.2858
11.2857
11.2857
11.2855
11.2853
11.285
11.2843
11.2833
11.2815
11.2784
11.2731
11.264
11.2483
11.2213
11.1749
11.096
10.9636
10.7478
10.4115
9.92147
9.26837
8.4846
7.63574
6.80019
11.2859
11.2859
11.2859
11.2859
11.2859
11.2859
11.2859
11.2859
11.2859
11.2859
11.2859
11.2859
11.2859
11.2859
11.2859
11.2859
11.2859
11.2859
11.2859
11.2858
11.2858
11.2858
11.2858
11.2858
11.2857
11.2856
11.2855
11.2853
11.2849
11.2842
11.2831
11.2812
11.278
11.2726
11.2634
11.2477
11.2211
11.176
11.1001
10.9743
10.7709
10.4555
9.99598
9.38004
8.63251
7.81395
6.99639
6.23666
5.56121
4.98156
11.2859
11.2859
11.2859
11.2859
11.2859
11.2859
11.2859
11.2859
11.2859
11.2859
11.2859
11.2859
11.2859
11.2859
11.2859
11.2858
11.2858
11.2858
11.2858
11.2858
11.2858
11.2857
11.2856
11.2854
11.2852
11.2847
11.284
11.2828
11.2807
11.2773
11.2717
11.2621
11.2461
11.2192
11.1742
11.0993
10.9768
10.7807
10.479
10.0412
9.45364
8.73581
7.94131
7.1381
6.38279
5.70761
5.12209
4.62239
4.19617
3.83624
11.2859
11.2859
11.2859
11.2859
11.2859
11.2859
11.2859
11.2859
11.2859
11.2859
11.2859
11.2859
11.2858
11.2858
11.2858
11.2858
11.2858
11.2857
11.2857
11.2855
11.2854
11.285
11.2845
11.2837
11.2823
11.2801
11.2764
11.2702
11.2601
11.2432
11.2153
11.1692
11.0936
10.9713
10.7779
10.4836
10.0597
9.49278
8.79923
8.02724
7.24009
6.49284
5.81893
5.23042
4.72525
4.29476
3.92823
3.61616
3.34793
3.12011
11.2859
11.2859
11.2859
11.2859
11.2859
11.2859
11.2859
11.2859
11.2858
11.2858
11.2858
11.2858
11.2858
11.2858
11.2857
11.2856
11.2855
11.2852
11.2849
11.2843
11.2833
11.2817
11.2792
11.275
11.2682
11.2571
11.2389
11.2092
11.1608
11.0825
10.9575
10.7626
10.4698
10.0526
9.49902
8.82427
8.07268
7.30305
6.56778
5.89999
5.31297
4.80617
4.37213
4.00119
3.68388
3.41213
3.17902
2.97988
2.81004
2.66905
11.2859
11.2859
11.2859
11.2859
11.2858
11.2858
11.2858
11.2858
11.2858
11.2858
11.2857
11.2857
11.2855
11.2854
11.2851
11.2846
11.2839
11.2827
11.2809
11.2779
11.2731
11.2654
11.253
11.2329
11.2005
11.1483
11.0652
10.9345
10.7339
10.4369
10.0198
9.47287
8.81171
8.07814
7.32686
6.60684
5.94971
5.36891
4.86484
4.43105
4.0586
3.73865
3.46336
3.22626
3.02224
2.84774
2.70059
2.57994
2.48393
2.41049
11.2859
11.2858
11.2858
11.2858
11.2858
11.2858
11.2858
11.2857
11.2857
11.2856
11.2854
11.2852
11.2848
11.2843
11.2834
11.2819
11.2797
11.2762
11.2705
11.2615
11.2473
11.2245
11.1882
11.1307
11.0405
10.9008
10.69
10.3834
9.96019
9.41388
8.7617
8.04401
7.31169
6.60974
5.96735
5.39721
4.90012
4.47034
4.09969
3.77985
3.5034
3.26419
3.05719
2.8787
2.72631
2.59882
2.49547
2.4149
2.35475
2.31123
2.2801
11.2858
11.2858
11.2858
11.2857
11.2857
11.2856
11.2855
11.2853
11.285
11.2845
11.2838
11.2826
11.2808
11.2781
11.2737
11.2669
11.2562
11.2394
11.2129
11.1713
11.1065
11.0063
10.8539
10.6282
10.3065
9.87147
9.32069
8.6739
7.97063
7.25806
6.5768
5.95284
5.39746
4.91131
4.48916
4.12346
3.80648
3.53128
3.29202
3.08392
2.90327
2.74751
2.61518
2.50561
2.41804
2.35087
2.30134
2.266
2.24137
2.22434
2.21208
11.2858
11.2857
11.2856
11.2855
11.2853
11.285
11.2846
11.284
11.283
11.2815
11.2793
11.2757
11.2703
11.2619
11.2488
11.2285
11.197
11.1483
11.0735
10.9598
10.7904
10.5447
10.2025
9.75051
9.19133
8.54764
7.85836
7.16683
6.50887
5.90677
5.36986
4.89828
4.48711
4.12936
3.81789
3.54624
3.30893
3.10153
2.92043
2.76305
2.62774
2.51374
2.42058
2.34729
2.29194
2.25164
2.22322
2.20345
2.18982
2.1804
2.17384
2.16924
11.2853
11.2851
11.2847
11.2841
11.2833
11.282
11.28
11.277
11.2724
11.2654
11.2547
11.2383
11.2133
11.1749
11.1166
11.0285
10.8973
10.7057
10.4344
10.0664
9.59343
9.02342
8.3822
7.70778
7.03928
6.40737
5.83033
5.31524
4.8615
4.46434
4.11728
3.81374
3.54779
3.31437
3.10937
2.92943
2.772
2.63536
2.51863
2.42142
2.3432
2.28269
2.23766
2.2053
2.18267
2.16701
2.15636
2.14886
2.1439
2.14081
2.13883
2.13774
11.2833
11.2821
11.2803
11.2776
11.2736
11.2675
11.2583
11.2444
11.2235
11.1918
11.1442
11.0729
10.9673
10.8131
10.5935
10.291
9.89256
9.39594
8.81469
8.17728
7.52003
6.87729
6.27434
5.72533
5.23501
4.80196
4.42146
4.08751
3.7941
3.53581
3.30806
3.10705
2.92973
2.77368
2.63719
2.51926
2.41951
2.33764
2.27289
2.22365
2.18755
2.16192
2.1441
2.1319
2.12368
2.11797
2.11448
2.1121
2.11141
2.11079
2.11082
2.11123
11.2741
11.2685
11.2602
11.2478
11.2294
11.202
11.1612
11.1009
11.0122
10.8835
10.7002
10.4462
10.1069
9.67473
9.15398
8.56353
7.93339
7.29705
6.68347
6.11247
5.59419
5.13116
4.72118
4.35955
4.04077
3.75936
3.51048
3.28997
3.09441
2.92105
2.76765
2.6326
2.51484
2.41395
2.32975
2.2618
2.20903
2.16956
2.14107
2.12108
2.10731
2.09797
2.09169
2.08764
2.08536
2.08396
2.08377
2.0838
2.0844
2.08543
2.08658
2.08762
11.2322
11.2073
11.1707
11.1172
11.0394
10.9275
10.7689
10.5492
10.2542
9.87385
9.4069
8.86453
8.26976
7.6524
7.04184
6.46124
5.92509
5.43985
5.00613
4.62107
4.28008
3.97812
3.71028
3.47226
3.26035
3.07152
2.9033
2.75371
2.62123
2.50484
2.40406
2.31875
2.24871
2.19325
2.15096
2.11986
2.09773
2.08239
2.07201
2.06512
2.06054
2.05779
2.05637
2.05612
2.05633
2.05691
2.05809
2.05954
2.06086
2.0625
2.06425
2.06579
11.053
10.9514
10.8087
10.6121
10.3484
10.007
9.58376
9.08464
8.52675
7.93529
7.33787
6.75865
6.21483
5.71606
5.26566
4.86271
4.50389
4.18481
3.90091
3.64787
3.42187
3.21969
3.03867
2.87663
2.73184
2.60292
2.48892
2.38934
2.30406
2.23299
2.17572
2.13125
2.09797
2.07395
2.05712
2.04562
2.03794
2.03302
2.03004
2.02854
2.02791
2.02851
2.02911
2.03023
2.03188
2.03363
2.0353
2.03733
2.0393
2.04126
2.04323
2.04501
10.3994
10.0851
9.69452
9.23076
8.70657
8.14294
7.56467
6.99522
6.45284
5.94917
5.4897
5.0753
4.70396
4.37214
4.07576
3.81075
3.57334
3.36024
3.16868
2.99634
2.84134
2.70219
2.57767
2.46694
2.36951
2.28524
2.21413
2.15596
2.11004
2.0751
2.04945
2.03125
2.01874
2.01044
2.0051
2.00178
1.99998
1.99948
1.99988
2.00082
2.00197
2.00382
2.00578
2.00769
2.00984
2.01215
2.01439
2.01665
2.01887
2.02104
2.02319
2.02518
8.27584
7.71924
7.16511
6.63147
6.13072
5.66967
5.25058
4.8726
4.53306
4.22845
3.95506
3.70936
3.4881
3.28849
3.10816
2.94517
2.7979
2.66508
2.54568
2.43895
2.34445
2.26205
2.19178
2.13356
2.08692
2.05086
2.024
2.00472
1.99132
1.98234
1.97654
1.97306
1.97125
1.97067
1.97087
1.97209
1.97353
1.97517
1.97739
1.97968
1.98184
1.98442
1.98697
1.9895
1.99203
1.99451
1.99696
1.99937
2.00173
2.00407
2.00626
6.25474
5.79902
5.38186
5.00328
4.66136
4.35317
4.07544
3.82491
3.59855
3.39362
3.2078
3.03911
2.88592
2.74689
2.62095
2.50723
2.40511
2.3142
2.23439
2.16574
2.10822
2.06156
2.025
1.99738
1.97729
1.96316
1.95365
1.94758
1.94388
1.94193
1.9412
1.94157
1.94271
1.94441
1.94617
1.94861
1.95117
1.95362
1.95625
1.95909
1.96185
1.96465
1.96743
1.97016
1.97286
1.97553
1.97816
1.98076
1.98331
1.98584
1.98823
4.75208
4.44513
4.1673
3.91567
3.68746
3.48013
3.29144
3.11946
2.96258
2.81946
2.689
2.57033
2.46273
2.3657
2.27892
2.2023
2.1359
2.07979
2.03377
1.99729
1.96936
1.9488
1.93422
1.9243
1.91794
1.91406
1.9121
1.91156
1.91186
1.91296
1.91484
1.91705
1.91925
1.92209
1.9249
1.92757
1.93068
1.93377
1.93681
1.93987
1.94287
1.94585
1.94879
1.9517
1.95457
1.95742
1.96023
1.96301
1.96574
1.96846
1.97103
3.54475
3.35588
3.18306
3.02475
2.87966
2.7467
2.625
2.51385
2.41269
2.32111
2.23887
2.16592
2.10233
2.0482
2.00341
1.96753
1.93978
1.91912
1.90433
1.89418
1.88766
1.88378
1.88179
1.88126
1.88158
1.88284
1.88477
1.88722
1.88959
1.89264
1.89577
1.89872
1.90187
1.90523
1.90849
1.9118
1.9151
1.91835
1.92157
1.92474
1.92789
1.931
1.93408
1.93712
1.94014
1.94313
1.94608
1.94899
1.95188
1.95463
2.92493
2.79143
2.66858
2.55568
2.45218
2.35765
2.27178
2.19441
2.12549
2.06516
2.01349
1.97044
1.93567
1.90854
1.88814
1.87342
1.86325
1.8567
1.85284
1.85088
1.85046
1.85104
1.85237
1.85435
1.8569
1.85973
1.86265
1.8661
1.86939
1.87259
1.87622
1.87979
1.88333
1.88689
1.8904
1.89387
1.89731
1.90072
1.90409
1.90743
1.91074
1.91402
1.91726
1.92048
1.92366
1.92682
1.92994
1.93301
1.93606
1.93897
2.48185
2.38603
2.29823
2.21823
2.14594
2.08135
2.0246
1.9758
1.93491
1.90168
1.87557
1.85578
1.84141
1.83148
1.82501
1.82126
1.81945
1.81917
1.81993
1.82135
1.82352
1.8262
1.8294
1.83238
1.83603
1.83966
1.84312
1.84683
1.85067
1.85442
1.85822
1.862
1.86574
1.86944
1.87311
1.87673
1.88033
1.88389
1.88742
1.89091
1.89438
1.89782
1.90122
1.9046
1.90794
1.91125
1.91453
1.91775
1.92095
1.92402
2.16099
2.09392
2.03387
1.98097
1.93535
1.89697
1.86564
1.8409
1.82204
1.80829
1.79877
1.79258
1.78905
1.78751
1.78736
1.78834
1.78997
1.79235
1.79512
1.79846
1.80183
1.80549
1.8095
1.81326
1.81701
1.82111
1.82515
1.82918
1.83321
1.8372
1.84114
1.84506
1.84894
1.85278
1.85659
1.86036
1.86411
1.86782
1.8715
1.87515
1.87877
1.88236
1.88592
1.88944
1.89293
1.89639
1.89981
1.90318
1.90652
1.90974
1.93459
1.89238
1.8568
1.82767
1.8046
1.78695
1.77405
1.76514
1.75938
1.75618
1.75494
1.75504
1.75626
1.75825
1.76074
1.76372
1.76717
1.7711
1.77465
1.77888
1.78297
1.78694
1.7912
1.79552
1.79973
1.804
1.80824
1.81244
1.81661
1.82073
1.82482
1.82887
1.83288
1.83686
1.84081
1.84473
1.84862
1.85248
1.8563
1.8601
1.86386
1.8676
1.8713
1.87497
1.8786
1.88219
1.88575
1.88925
1.89272
1.89607
1.78795
1.76678
1.75059
1.73876
1.73063
1.72546
1.72269
1.72182
1.72222
1.72372
1.72601
1.72869
1.73193
1.73555
1.73969
1.74357
1.74791
1.75241
1.75658
1.76092
1.76547
1.76994
1.77443
1.77893
1.78336
1.78776
1.79213
1.79645
1.80074
1.805
1.80921
1.81339
1.81754
1.82166
1.82575
1.82981
1.83383
1.83783
1.84179
1.84572
1.84963
1.8535
1.85733
1.86113
1.8649
1.86862
1.8723
1.87593
1.87952
1.88298
1.70248
1.69528
1.69083
1.68861
1.68818
1.68897
1.69077
1.69337
1.69631
1.6998
1.70359
1.70787
1.71223
1.71658
1.72135
1.72585
1.73029
1.7351
1.73984
1.74453
1.74924
1.75391
1.75854
1.76315
1.76771
1.77223
1.77671
1.78116
1.78558
1.78996
1.7943
1.79861
1.80289
1.80714
1.81136
1.81555
1.81971
1.82383
1.82793
1.83199
1.83602
1.84001
1.84398
1.8479
1.85178
1.85563
1.85942
1.86316
1.86686
1.87043
1.65402
1.65527
1.65741
1.66033
1.66363
1.66731
1.67135
1.67585
1.68056
1.68501
1.68995
1.69481
1.69947
1.70441
1.70938
1.71425
1.7192
1.72413
1.729
1.73382
1.73861
1.74335
1.74807
1.75274
1.75738
1.76198
1.76655
1.77108
1.77558
1.78005
1.78449
1.78889
1.79326
1.79761
1.80192
1.8062
1.81045
1.81467
1.81885
1.823
1.82712
1.83119
1.83523
1.83923
1.84318
1.84708
1.85093
1.85472
1.85839
1.62693
1.63058
1.6345
1.63879
1.64348
1.64838
1.65323
1.65834
1.66348
1.66835
1.67339
1.67862
1.68374
1.68888
1.69402
1.69909
1.70414
1.70917
1.71414
1.71907
1.72396
1.72882
1.73364
1.73843
1.74317
1.74789
1.75257
1.75722
1.76184
1.76643
1.77098
1.7755
1.77999
1.78445
1.78888
1.79328
1.79765
1.80198
1.80628
1.81054
1.81477
1.81895
1.82309
1.82719
1.83124
1.83524
1.83918
1.84306
1.84681
1.60594
1.61085
1.61597
1.62114
1.62637
1.63174
1.63694
1.6421
1.64757
1.65293
1.65824
1.6636
1.66891
1.67417
1.6794
1.68459
1.68974
1.69485
1.69993
1.70496
1.70995
1.71491
1.71984
1.72473
1.72959
1.73441
1.73921
1.74397
1.7487
1.75339
1.75806
1.76269
1.7673
1.77187
1.77641
1.78092
1.78539
1.78983
1.79423
1.7986
1.80293
1.80721
1.81145
1.81564
1.81978
1.82387
1.82788
1.83184
1.83567
1.59421
1.59978
1.60526
1.61062
1.61623
1.62182
1.62732
1.6329
1.63843
1.6439
1.64934
1.65474
1.6601
1.66542
1.6707
1.67594
1.68115
1.68632
1.69145
1.69654
1.7016
1.70663
1.71163
1.71659
1.72152
1.72642
1.73128
1.73612
1.74092
1.74569
1.75043
1.75514
1.75982
1.76446
1.76907
1.77364
1.77818
1.78268
1.78714
1.79156
1.79594
1.80026
1.80454
1.80876
1.81292
1.81701
1.82103
1.82492
1.5789
1.58466
1.59047
1.59618
1.60194
1.60767
1.61334
1.61899
1.62461
1.63017
1.6357
1.64118
1.64662
1.65203
1.6574
1.66273
1.66803
1.67329
1.67852
1.68371
1.68886
1.69399
1.69908
1.70415
1.70918
1.71417
1.71914
1.72407
1.72898
1.73385
1.73869
1.74349
1.74826
1.753
1.75771
1.76237
1.767
1.77159
1.77614
1.78064
1.7851
1.78951
1.79386
1.79815
1.80237
1.80652
1.8106
1.81454
1.57074
1.57667
1.58255
1.58839
1.5942
1.59996
1.60568
1.61137
1.61701
1.62262
1.62818
1.63371
1.6392
1.64466
1.65008
1.65546
1.66081
1.66613
1.67141
1.67666
1.68188
1.68707
1.69223
1.69735
1.70244
1.7075
1.71253
1.71752
1.72249
1.72742
1.73232
1.73718
1.74201
1.7468
1.75155
1.75626
1.76093
1.76556
1.77014
1.77467
1.77914
1.78356
1.78791
1.79219
1.79639
1.80052
1.8045
1.55755
1.56354
1.5695
1.57542
1.58129
1.58713
1.59292
1.59868
1.6044
1.61008
1.61573
1.62134
1.62691
1.63245
1.63795
1.64342
1.64886
1.65426
1.65963
1.66497
1.67028
1.67556
1.6808
1.68601
1.69119
1.69634
1.70145
1.70654
1.71159
1.7166
1.72158
1.72653
1.73144
1.73631
1.74114
1.74593
1.75067
1.75537
1.76001
1.76461
1.76914
1.77362
1.77802
1.78235
1.78659
1.79076
1.79477
1.55097
1.55699
1.56297
1.56892
1.57482
1.58069
1.58652
1.59231
1.59807
1.60379
1.60948
1.61513
1.62074
1.62633
1.63188
1.6374
1.64289
1.64834
1.65376
1.65915
1.66451
1.66984
1.67513
1.68039
1.68562
1.69082
1.69598
1.70111
1.70621
1.71127
1.71629
1.72127
1.72621
1.73111
1.73597
1.74078
1.74554
1.75024
1.75489
1.75948
1.764
1.76845
1.77282
1.77709
1.78128
1.78531
1.53891
1.54499
1.55104
1.55704
1.56301
1.56895
1.57485
1.58071
1.58654
1.59234
1.5981
1.60383
1.60952
1.61518
1.62081
1.62641
1.63197
1.6375
1.643
1.64847
1.65391
1.65931
1.66468
1.67002
1.67533
1.6806
1.68583
1.69104
1.6962
1.70133
1.70642
1.71147
1.71648
1.72144
1.72636
1.73123
1.73604
1.7408
1.74549
1.75012
1.75469
1.75917
1.76356
1.76785
1.77206
1.77609
1.52733
1.53347
1.53958
1.54565
1.55169
1.55769
1.56366
1.56959
1.57549
1.58135
1.58718
1.59298
1.59875
1.60448
1.61018
1.61585
1.62149
1.62709
1.63266
1.63821
1.64371
1.64919
1.65463
1.66004
1.66542
1.67076
1.67606
1.68133
1.68656
1.69176
1.69691
1.70202
1.70708
1.7121
1.71707
1.72199
1.72685
1.73165
1.73639
1.74105
1.74563
1.75014
1.75455
1.75885
1.76305
1.76708
1.51621
1.52241
1.52858
1.53471
1.54081
1.54688
1.55291
1.55891
1.56487
1.5708
1.5767
1.58257
1.5884
1.5942
1.59997
1.60571
1.61141
1.61708
1.62272
1.62833
1.63391
1.63945
1.64496
1.65043
1.65587
1.66128
1.66664
1.67197
1.67726
1.68251
1.68772
1.69288
1.698
1.70307
1.70808
1.71304
1.71794
1.72277
1.72753
1.73221
1.73682
1.74133
1.74575
1.75006
1.75426
1.75828
1.50553
1.51179
1.51802
1.52421
1.53037
1.53649
1.54259
1.54865
1.55467
1.56067
1.56663
1.57256
1.57845
1.58432
1.59015
1.59595
1.60172
1.60745
1.61316
1.61883
1.62446
1.63006
1.63563
1.64117
1.64666
1.65212
1.65755
1.66293
1.66827
1.67357
1.67883
1.68404
1.6892
1.6943
1.69935
1.70434
1.70926
1.71412
1.7189
1.7236
1.72822
1.73274
1.73716
1.74146
1.74565
1.74965
1.49527
1.50159
1.50787
1.51411
1.52033
1.52651
1.53266
1.53878
1.54486
1.55092
1.55694
1.56292
1.56888
1.5748
1.58069
1.58655
1.59238
1.59817
1.60393
1.60966
1.61535
1.62101
1.62663
1.63222
1.63777
1.64328
1.64875
1.65418
1.65957
1.66492
1.67021
1.67545
1.68065
1.68578
1.69086
1.69587
1.70082
1.70569
1.71049
1.7152
1.71982
1.72434
1.72875
1.73304
1.7372
1.74117
1.4854
1.49177
1.4981
1.5044
1.51067
1.51691
1.52311
1.52928
1.53542
1.54153
1.5476
1.55365
1.55966
1.56563
1.57158
1.57749
1.58337
1.58922
1.59503
1.60081
1.60655
1.61226
1.61793
1.62357
1.62916
1.63472
1.64023
1.6457
1.65113
1.6565
1.66183
1.6671
1.67232
1.67748
1.68258
1.68761
1.69257
1.69746
1.70226
1.70698
1.71159
1.7161
1.7205
1.72476
1.72889
1.73282
1.48232
1.4887
1.49505
1.50137
1.50766
1.51391
1.52013
1.52632
1.53248
1.53861
1.5447
1.55076
1.55679
1.56278
1.56874
1.57467
1.58057
1.58643
1.59225
1.59804
1.6038
1.60951
1.61518
1.62082
1.62641
1.63195
1.63745
1.64291
1.64831
1.65367
1.65897
1.66421
1.66939
1.6745
1.67955
1.68452
1.68941
1.69421
1.69891
1.70352
1.70801
1.71238
1.71661
1.7207
1.72459
1.47322
1.47965
1.48605
1.49241
1.49874
1.50504
1.51131
1.51755
1.52375
1.52992
1.53606
1.54217
1.54824
1.55428
1.56029
1.56626
1.5722
1.5781
1.58397
1.58979
1.59558
1.60133
1.60704
1.6127
1.61832
1.6239
1.62943
1.63491
1.64034
1.64571
1.65103
1.65629
1.66148
1.6666
1.67165
1.67662
1.68151
1.6863
1.69099
1.69558
1.70004
1.70438
1.70857
1.71261
1.71644
1.46445
1.47092
1.47736
1.48376
1.49014
1.49648
1.50279
1.50907
1.51532
1.52153
1.52771
1.53386
1.53998
1.54606
1.5521
1.55811
1.56408
1.57002
1.57592
1.58178
1.58759
1.59337
1.59911
1.6048
1.61045
1.61605
1.6216
1.6271
1.63255
1.63794
1.64327
1.64853
1.65373
1.65886
1.6639
1.66887
1.67374
1.67852
1.68319
1.68775
1.69218
1.69647
1.70061
1.7046
1.70836
1.46249
1.46896
1.47541
1.48182
1.48821
1.49456
1.50087
1.50716
1.51341
1.51963
1.52582
1.53196
1.53808
1.54416