/*--------------------------------*- C++ -*----------------------------------*\
| =========                 |                                                 |
| \\      /  F ield         | OpenFOAM: The Open Source CFD Toolbox           |
|  \\    /   O peration     | Version:  v1706                                 |
|   \\  /    A nd           | Web:      www.OpenFOAM.com                      |
|    \\/     M anipulation  |                                                 |
\*---------------------------------------------------------------------------*/
FoamFile
{
    version     2.0;
    format      ascii;
    class       volScalarField;
    location    "1.2e-05";
    object      mu;
}
// * * * * * * * * * * * * * * * * * * * * * * * * * * * * * * * * * * * * * //

dimensions      [1 -1 -1 0 0 0 0];


internalField   nonuniform List<scalar> 
30038
(
1.0351e-05
1.0351e-05
1.0351e-05
1.0351e-05
1.0351e-05
1.0351e-05
1.0351e-05
1.0351e-05
1.0351e-05
1.0351e-05
1.0351e-05
1.0351e-05
1.0351e-05
1.0351e-05
1.0351e-05
1.0351e-05
1.0351e-05
1.0351e-05
1.0351e-05
1.0351e-05
1.0351e-05
1.0351e-05
1.0351e-05
1.0351e-05
1.0351e-05
1.0351e-05
1.0351e-05
1.0351e-05
1.0351e-05
1.0351e-05
1.0351e-05
1.0351e-05
1.0351e-05
1.0351e-05
1.0351e-05
1.0351e-05
1.0351e-05
1.0351e-05
1.0351e-05
1.0351e-05
1.0351e-05
1.0351e-05
1.0351e-05
1.0351e-05
1.0351e-05
1.0351e-05
1.0351e-05
1.0351e-05
1.0351e-05
1.0351e-05
1.0351e-05
1.0351e-05
1.0351e-05
1.0351e-05
1.0351e-05
1.0351e-05
1.0351e-05
1.0351e-05
1.0351e-05
1.0351e-05
1.0351e-05
1.0351e-05
1.0351e-05
1.0351e-05
1.0351e-05
1.0351e-05
1.0351e-05
1.0351e-05
1.0351e-05
1.0351e-05
1.0351e-05
1.0351e-05
1.0351e-05
1.0351e-05
1.0351e-05
1.0351e-05
1.0351e-05
1.0351e-05
1.0351e-05
1.0351e-05
1.0351e-05
1.0351e-05
1.0351e-05
1.0351e-05
1.0351e-05
1.0351e-05
1.0351e-05
1.0351e-05
1.0351e-05
1.0351e-05
1.0351e-05
1.0351e-05
1.0351e-05
1.0351e-05
1.0351e-05
1.0351e-05
1.0351e-05
1.0351e-05
1.0351e-05
1.0351e-05
1.0351e-05
1.0351e-05
1.0351e-05
1.0351e-05
1.0351e-05
1.0351e-05
1.0351e-05
1.0351e-05
1.0351e-05
1.0351e-05
1.0351e-05
1.0351e-05
1.0351e-05
1.0351e-05
1.0351e-05
1.0351e-05
1.0351e-05
1.0351e-05
1.0351e-05
1.0351e-05
1.0351e-05
1.0351e-05
1.0351e-05
1.0351e-05
1.0351e-05
1.0351e-05
1.0351e-05
1.0351e-05
1.0351e-05
1.0351e-05
1.0351e-05
1.0351e-05
1.0351e-05
1.0351e-05
1.0351e-05
1.0351e-05
1.0351e-05
1.0351e-05
1.0351e-05
1.0351e-05
1.0351e-05
1.0351e-05
1.0351e-05
1.0351e-05
1.0351e-05
1.0351e-05
1.0351e-05
1.0351e-05
1.0351e-05
1.0351e-05
1.0351e-05
1.0351e-05
1.0351e-05
1.0351e-05
1.0351e-05
1.0351e-05
1.0351e-05
1.0351e-05
1.0351e-05
1.0351e-05
1.0351e-05
1.0351e-05
1.0351e-05
1.0351e-05
1.0351e-05
1.0351e-05
1.0351e-05
1.0351e-05
1.0351e-05
1.0351e-05
1.0351e-05
1.0351e-05
1.0351e-05
1.0351e-05
1.0351e-05
1.0351e-05
1.0351e-05
1.0351e-05
1.0351e-05
1.0351e-05
1.0351e-05
1.0351e-05
1.0351e-05
1.0351e-05
1.0351e-05
1.0351e-05
1.0351e-05
1.0351e-05
1.0351e-05
1.0351e-05
1.0351e-05
1.0351e-05
1.0351e-05
1.0351e-05
1.0351e-05
1.0351e-05
1.0351e-05
1.0351e-05
1.0351e-05
1.0351e-05
1.0351e-05
1.0351e-05
1.0351e-05
1.0351e-05
1.0351e-05
1.0351e-05
1.0351e-05
1.0351e-05
1.0351e-05
1.0351e-05
1.0351e-05
1.0351e-05
1.0351e-05
1.0351e-05
1.0351e-05
1.0351e-05
1.0351e-05
1.0351e-05
1.0351e-05
1.0351e-05
1.0351e-05
1.0351e-05
1.0351e-05
1.0351e-05
1.0351e-05
1.0351e-05
1.0351e-05
1.0351e-05
1.0351e-05
1.0351e-05
1.0351e-05
1.0351e-05
1.0351e-05
1.0351e-05
1.0351e-05
1.0351e-05
1.0351e-05
1.0351e-05
1.0351e-05
1.0351e-05
1.0351e-05
1.0351e-05
1.0351e-05
1.0351e-05
1.0351e-05
1.0351e-05
1.0351e-05
1.0351e-05
1.0351e-05
1.0351e-05
1.0351e-05
1.0351e-05
1.0351e-05
1.0351e-05
1.0351e-05
1.0351e-05
1.0351e-05
1.0351e-05
1.0351e-05
1.0351e-05
1.0351e-05
1.0351e-05
1.0351e-05
1.0351e-05
1.0351e-05
1.0351e-05
1.0351e-05
1.0351e-05
1.0351e-05
1.0351e-05
1.0351e-05
1.0351e-05
1.0351e-05
1.0351e-05
1.0351e-05
1.0351e-05
1.0351e-05
1.0351e-05
1.0351e-05
1.0351e-05
1.0351e-05
1.0351e-05
1.0351e-05
1.0351e-05
1.0351e-05
1.0351e-05
1.0351e-05
1.0351e-05
1.0351e-05
1.0351e-05
1.0351e-05
1.0351e-05
1.0351e-05
1.0351e-05
1.0351e-05
1.0351e-05
1.0351e-05
1.0351e-05
1.0351e-05
1.0351e-05
1.0351e-05
1.0351e-05
1.0351e-05
1.0351e-05
1.0351e-05
1.0351e-05
1.0351e-05
1.0351e-05
1.0351e-05
1.0351e-05
1.0351e-05
1.0351e-05
1.0351e-05
1.0351e-05
1.0351e-05
1.0351e-05
1.0351e-05
1.0351e-05
1.0351e-05
1.0351e-05
1.0351e-05
1.0351e-05
1.0351e-05
1.0351e-05
1.0351e-05
1.0351e-05
1.0351e-05
1.0351e-05
1.0351e-05
1.0351e-05
1.0351e-05
1.0351e-05
1.0351e-05
1.0351e-05
1.0351e-05
1.0351e-05
1.0351e-05
1.0351e-05
1.0351e-05
1.0351e-05
1.0351e-05
1.0351e-05
1.0351e-05
1.0351e-05
1.0351e-05
1.0351e-05
1.0351e-05
1.0351e-05
1.0351e-05
1.0351e-05
1.0351e-05
1.0351e-05
1.0351e-05
1.0351e-05
1.0351e-05
1.0351e-05
1.0351e-05
1.0351e-05
1.0351e-05
1.0351e-05
1.0351e-05
1.0351e-05
1.0351e-05
1.0351e-05
1.0351e-05
1.0351e-05
1.0351e-05
1.0351e-05
1.0351e-05
1.0351e-05
1.0351e-05
1.0351e-05
1.0351e-05
1.0351e-05
1.0351e-05
1.0351e-05
1.0351e-05
1.0351e-05
1.0351e-05
1.0351e-05
1.0351e-05
1.0351e-05
1.0351e-05
1.0351e-05
1.0351e-05
1.0351e-05
1.0351e-05
1.0351e-05
1.0351e-05
1.0351e-05
1.0351e-05
1.0351e-05
1.0351e-05
1.0351e-05
1.0351e-05
1.0351e-05
1.0351e-05
1.0351e-05
1.0351e-05
1.0351e-05
1.0351e-05
1.0351e-05
1.0351e-05
1.0351e-05
1.0351e-05
1.0351e-05
1.0351e-05
1.0351e-05
1.0351e-05
1.0351e-05
1.0351e-05
1.0351e-05
1.0351e-05
1.0351e-05
1.0351e-05
1.0351e-05
1.0351e-05
1.0351e-05
1.0351e-05
1.0351e-05
1.0351e-05
1.0351e-05
1.0351e-05
1.0351e-05
1.0351e-05
1.0351e-05
1.0351e-05
1.0351e-05
1.0351e-05
1.0351e-05
1.0351e-05
1.0351e-05
1.0351e-05
1.0351e-05
1.0351e-05
1.0351e-05
1.0351e-05
1.0351e-05
1.0351e-05
1.0351e-05
1.0351e-05
1.0351e-05
1.0351e-05
1.0351e-05
1.0351e-05
1.0351e-05
1.0351e-05
1.0351e-05
1.0351e-05
1.0351e-05
1.0351e-05
1.0351e-05
1.0351e-05
1.0351e-05
1.0351e-05
1.0351e-05
1.0351e-05
1.0351e-05
1.0351e-05
1.0351e-05
1.0351e-05
1.0351e-05
1.0351e-05
1.0351e-05
1.0351e-05
1.0351e-05
1.0351e-05
1.0351e-05
1.0351e-05
1.0351e-05
1.0351e-05
1.0351e-05
1.0351e-05
1.0351e-05
1.0351e-05
1.0351e-05
1.0351e-05
1.0351e-05
1.0351e-05
1.0351e-05
1.0351e-05
1.0351e-05
1.0351e-05
1.0351e-05
1.0351e-05
1.0351e-05
1.0351e-05
1.0351e-05
1.0351e-05
1.0351e-05
1.0351e-05
1.0351e-05
1.0351e-05
1.0351e-05
1.0351e-05
1.0351e-05
1.0351e-05
1.0351e-05
1.0351e-05
1.0351e-05
1.0351e-05
1.0351e-05
1.0351e-05
1.0351e-05
1.0351e-05
1.0351e-05
1.0351e-05
1.0351e-05
1.0351e-05
1.0351e-05
1.0351e-05
1.0351e-05
1.0351e-05
1.0351e-05
1.0351e-05
1.0351e-05
1.0351e-05
1.0351e-05
1.0351e-05
1.0351e-05
1.0351e-05
1.0351e-05
1.0351e-05
1.0351e-05
1.0351e-05
1.0351e-05
1.0351e-05
1.0351e-05
1.0351e-05
1.0351e-05
1.0351e-05
1.0351e-05
1.0351e-05
1.0351e-05
1.0351e-05
1.0351e-05
1.0351e-05
1.0351e-05
1.0351e-05
1.0351e-05
1.0351e-05
1.0351e-05
1.0351e-05
1.0351e-05
1.0351e-05
1.0351e-05
1.0351e-05
1.0351e-05
1.0351e-05
1.0351e-05
1.0351e-05
1.0351e-05
1.0351e-05
1.0351e-05
1.0351e-05
1.0351e-05
1.0351e-05
1.0351e-05
1.0351e-05
1.0351e-05
1.0351e-05
1.0351e-05
1.0351e-05
1.0351e-05
1.0351e-05
1.0351e-05
1.0351e-05
1.0351e-05
1.0351e-05
1.0351e-05
1.0351e-05
1.0351e-05
1.0351e-05
1.0351e-05
1.0351e-05
1.0351e-05
1.0351e-05
1.0351e-05
1.0351e-05
1.0351e-05
1.0351e-05
1.0351e-05
1.0351e-05
1.0351e-05
1.0351e-05
1.0351e-05
1.0351e-05
1.0351e-05
1.0351e-05
1.0351e-05
1.0351e-05
1.0351e-05
1.0351e-05
1.0351e-05
1.0351e-05
1.0351e-05
1.0351e-05
1.0351e-05
1.0351e-05
1.0351e-05
1.0351e-05
1.0351e-05
1.0351e-05
1.0351e-05
1.0351e-05
1.0351e-05
1.0351e-05
1.0351e-05
1.0351e-05
1.0351e-05
1.0351e-05
1.0351e-05
1.0351e-05
1.0351e-05
1.0351e-05
1.0351e-05
1.0351e-05
1.0351e-05
1.0351e-05
1.0351e-05
1.0351e-05
1.0351e-05
1.0351e-05
1.0351e-05
1.0351e-05
1.0351e-05
1.0351e-05
1.0351e-05
1.0351e-05
1.0351e-05
1.0351e-05
1.0351e-05
1.0351e-05
1.0351e-05
1.0351e-05
1.0351e-05
1.0351e-05
1.0351e-05
1.0351e-05
1.0351e-05
1.0351e-05
1.0351e-05
1.0351e-05
1.0351e-05
1.0351e-05
1.0351e-05
1.0351e-05
1.0351e-05
1.0351e-05
1.0351e-05
1.0351e-05
1.0351e-05
1.0351e-05
1.0351e-05
1.0351e-05
1.0351e-05
1.0351e-05
1.0351e-05
1.0351e-05
1.0351e-05
1.0351e-05
1.0351e-05
1.0351e-05
1.0351e-05
1.0351e-05
1.0351e-05
1.0351e-05
1.0351e-05
1.0351e-05
1.0351e-05
1.0351e-05
1.0351e-05
1.0351e-05
1.0351e-05
1.0351e-05
1.0351e-05
1.0351e-05
1.0351e-05
1.0351e-05
1.0351e-05
1.0351e-05
1.0351e-05
1.0351e-05
1.0351e-05
1.0351e-05
1.0351e-05
1.0351e-05
1.0351e-05
1.0351e-05
1.0351e-05
1.0351e-05
1.0351e-05
1.0351e-05
1.0351e-05
1.0351e-05
1.0351e-05
1.0351e-05
1.0351e-05
1.0351e-05
1.0351e-05
1.0351e-05
1.0351e-05
1.0351e-05
1.0351e-05
1.0351e-05
1.0351e-05
1.0351e-05
1.0351e-05
1.0351e-05
1.0351e-05
1.0351e-05
1.0351e-05
1.0351e-05
1.0351e-05
1.0351e-05
1.0351e-05
1.0351e-05
1.0351e-05
1.0351e-05
1.0351e-05
1.0351e-05
1.0351e-05
1.0351e-05
1.0351e-05
1.0351e-05
1.0351e-05
1.0351e-05
1.0351e-05
1.0351e-05
1.0351e-05
1.0351e-05
1.0351e-05
1.0351e-05
1.0351e-05
1.0351e-05
1.0351e-05
1.0351e-05
1.0351e-05
1.0351e-05
1.0351e-05
1.0351e-05
1.0351e-05
1.0351e-05
1.0351e-05
1.0351e-05
1.0351e-05
1.0351e-05
1.0351e-05
1.0351e-05
1.0351e-05
1.0351e-05
1.0351e-05
1.0351e-05
1.0351e-05
1.0351e-05
1.0351e-05
1.0351e-05
1.0351e-05
1.0351e-05
1.0351e-05
1.0351e-05
1.0351e-05
1.0351e-05
1.0351e-05
1.0351e-05
1.0351e-05
1.0351e-05
1.0351e-05
1.0351e-05
1.0351e-05
1.0351e-05
1.0351e-05
1.0351e-05
1.0351e-05
1.0351e-05
1.0351e-05
1.0351e-05
1.0351e-05
1.0351e-05
1.0351e-05
1.0351e-05
1.0351e-05
1.0351e-05
1.0351e-05
1.0351e-05
1.0351e-05
1.0351e-05
1.0351e-05
1.0351e-05
1.0351e-05
1.0351e-05
1.0351e-05
1.0351e-05
1.0351e-05
1.0351e-05
1.0351e-05
1.0351e-05
1.0351e-05
1.0351e-05
1.0351e-05
1.0351e-05
1.0351e-05
1.0351e-05
1.0351e-05
1.0351e-05
1.0351e-05
1.0351e-05
1.0351e-05
1.0351e-05
1.0351e-05
1.0351e-05
1.0351e-05
1.0351e-05
1.0351e-05
1.0351e-05
1.0351e-05
1.0351e-05
1.0351e-05
1.0351e-05
1.0351e-05
1.0351e-05
1.0351e-05
1.0351e-05
1.0351e-05
1.0351e-05
1.0351e-05
1.0351e-05
1.0351e-05
1.0351e-05
1.0351e-05
1.0351e-05
1.0351e-05
1.0351e-05
1.0351e-05
1.0351e-05
1.0351e-05
1.0351e-05
1.0351e-05
1.0351e-05
1.0351e-05
1.0351e-05
1.0351e-05
1.0351e-05
1.0351e-05
1.0351e-05
1.0351e-05
1.0351e-05
1.0351e-05
1.0351e-05
1.0351e-05
1.0351e-05
1.0351e-05
1.0351e-05
1.0351e-05
1.0351e-05
1.0351e-05
1.0351e-05
1.0351e-05
1.0351e-05
1.0351e-05
1.0351e-05
1.0351e-05
1.0351e-05
1.0351e-05
1.0351e-05
1.0351e-05
1.0351e-05
1.0351e-05
1.0351e-05
1.0351e-05
1.0351e-05
1.0351e-05
1.0351e-05
1.0351e-05
1.0351e-05
1.0351e-05
1.0351e-05
1.0351e-05
1.0351e-05
1.0351e-05
1.0351e-05
1.0351e-05
1.0351e-05
1.0351e-05
1.0351e-05
1.0351e-05
1.0351e-05
1.0351e-05
1.0351e-05
1.0351e-05
1.0351e-05
1.0351e-05
1.0351e-05
1.0351e-05
1.0351e-05
1.0351e-05
1.0351e-05
1.0351e-05
1.0351e-05
1.0351e-05
1.0351e-05
1.0351e-05
1.0351e-05
1.0351e-05
1.0351e-05
1.0351e-05
1.0351e-05
1.0351e-05
1.0351e-05
1.0351e-05
1.0351e-05
1.0351e-05
1.0351e-05
1.0351e-05
1.0351e-05
1.0351e-05
1.0351e-05
1.0351e-05
1.0351e-05
1.0351e-05
1.0351e-05
1.0351e-05
1.0351e-05
1.0351e-05
1.0351e-05
1.0351e-05
1.0351e-05
1.0351e-05
1.0351e-05
1.0351e-05
1.0351e-05
1.0351e-05
1.0351e-05
1.0351e-05
1.0351e-05
1.0351e-05
1.0351e-05
1.0351e-05
1.0351e-05
1.0351e-05
1.0351e-05
1.0351e-05
1.0351e-05
1.0351e-05
1.0351e-05
1.0351e-05
1.0351e-05
1.0351e-05
1.0351e-05
1.0351e-05
1.0351e-05
1.0351e-05
1.0351e-05
1.0351e-05
1.0351e-05
1.0351e-05
1.0351e-05
1.0351e-05
1.0351e-05
1.0351e-05
1.0351e-05
1.0351e-05
1.0351e-05
1.0351e-05
1.0351e-05
1.0351e-05
1.0351e-05
1.0351e-05
1.0351e-05
1.0351e-05
1.0351e-05
1.0351e-05
1.0351e-05
1.0351e-05
1.0351e-05
1.0351e-05
1.0351e-05
1.0351e-05
1.0351e-05
1.0351e-05
1.0351e-05
1.0351e-05
1.0351e-05
1.0351e-05
1.0351e-05
1.0351e-05
1.0351e-05
1.0351e-05
1.0351e-05
1.0351e-05
1.0351e-05
1.0351e-05
1.0351e-05
1.0351e-05
1.0351e-05
1.0351e-05
1.0351e-05
1.0351e-05
1.0351e-05
1.0351e-05
1.0351e-05
1.0351e-05
1.0351e-05
1.0351e-05
1.0351e-05
1.0351e-05
1.0351e-05
1.0351e-05
1.0351e-05
1.0351e-05
1.0351e-05
1.0351e-05
1.0351e-05
1.0351e-05
1.0351e-05
1.0351e-05
1.0351e-05
1.0351e-05
1.0351e-05
1.0351e-05
1.0351e-05
1.0351e-05
1.0351e-05
1.0351e-05
1.0351e-05
1.0351e-05
1.0351e-05
1.0351e-05
1.0351e-05
1.0351e-05
1.0351e-05
1.0351e-05
1.0351e-05
1.0351e-05
1.0351e-05
1.0351e-05
1.0351e-05
1.0351e-05
1.0351e-05
1.0351e-05
1.0351e-05
1.0351e-05
1.0351e-05
1.0351e-05
1.0351e-05
1.0351e-05
1.0351e-05
1.0351e-05
1.0351e-05
1.0351e-05
1.0351e-05
1.0351e-05
1.0351e-05
1.0351e-05
1.0351e-05
1.0351e-05
1.0351e-05
1.0351e-05
1.0351e-05
1.0351e-05
1.0351e-05
1.0351e-05
1.0351e-05
1.0351e-05
1.0351e-05
1.0351e-05
1.0351e-05
1.0351e-05
1.0351e-05
1.0351e-05
1.0351e-05
1.0351e-05
1.0351e-05
1.0351e-05
1.0351e-05
1.0351e-05
1.0351e-05
1.0351e-05
1.0351e-05
1.0351e-05
1.0351e-05
1.0351e-05
1.0351e-05
1.0351e-05
1.0351e-05
1.0351e-05
1.0351e-05
1.0351e-05
1.0351e-05
1.0351e-05
1.0351e-05
1.0351e-05
1.0351e-05
1.0351e-05
1.0351e-05
1.0351e-05
1.0351e-05
1.0351e-05
1.0351e-05
1.0351e-05
1.0351e-05
1.0351e-05
1.0351e-05
1.0351e-05
1.0351e-05
1.0351e-05
1.0351e-05
1.0351e-05
1.0351e-05
1.0351e-05
1.0351e-05
1.0351e-05
1.0351e-05
1.0351e-05
1.0351e-05
1.0351e-05
1.0351e-05
1.0351e-05
1.0351e-05
1.0351e-05
1.0351e-05
1.0351e-05
1.0351e-05
1.0351e-05
1.0351e-05
1.0351e-05
1.0351e-05
1.0351e-05
1.0351e-05
1.0351e-05
1.0351e-05
1.0351e-05
1.0351e-05
1.0351e-05
1.0351e-05
1.0351e-05
1.0351e-05
1.0351e-05
1.0351e-05
1.0351e-05
1.0351e-05
1.0351e-05
1.0351e-05
1.0351e-05
1.0351e-05
1.0351e-05
1.0351e-05
1.0351e-05
1.0351e-05
1.0351e-05
1.0351e-05
1.0351e-05
1.0351e-05
1.0351e-05
1.0351e-05
1.0351e-05
1.0351e-05
1.0351e-05
1.0351e-05
1.0351e-05
1.0351e-05
1.0351e-05
1.0351e-05
1.0351e-05
1.0351e-05
1.0351e-05
1.0351e-05
1.0351e-05
1.0351e-05
1.0351e-05
1.0351e-05
1.0351e-05
1.0351e-05
1.0351e-05
1.0351e-05
1.0351e-05
1.0351e-05
1.0351e-05
1.0351e-05
1.0351e-05
1.0351e-05
1.0351e-05
1.0351e-05
1.0351e-05
1.0351e-05
1.0351e-05
1.0351e-05
1.0351e-05
1.0351e-05
1.0351e-05
1.0351e-05
1.0351e-05
1.0351e-05
1.0351e-05
1.0351e-05
1.0351e-05
1.0351e-05
1.0351e-05
1.0351e-05
1.0351e-05
1.0351e-05
1.0351e-05
1.0351e-05
1.0351e-05
1.0351e-05
1.0351e-05
1.0351e-05
1.0351e-05
1.0351e-05
1.0351e-05
1.0351e-05
1.0351e-05
1.0351e-05
1.0351e-05
1.0351e-05
1.0351e-05
1.0351e-05
1.0351e-05
1.0351e-05
1.0351e-05
1.0351e-05
1.0351e-05
1.0351e-05
1.0351e-05
1.0351e-05
1.0351e-05
1.0351e-05
1.0351e-05
1.0351e-05
1.0351e-05
1.0351e-05
1.0351e-05
1.0351e-05
1.0351e-05
1.0351e-05
1.0351e-05
1.0351e-05
1.0351e-05
1.0351e-05
1.0351e-05
1.0351e-05
1.0351e-05
1.0351e-05
1.0351e-05
1.0351e-05
1.0351e-05
1.0351e-05
1.0351e-05
1.0351e-05
1.0351e-05
1.0351e-05
1.0351e-05
1.0351e-05
1.0351e-05
1.0351e-05
1.0351e-05
1.0351e-05
1.0351e-05
1.0351e-05
1.0351e-05
1.0351e-05
1.0351e-05
1.0351e-05
1.0351e-05
1.0351e-05
1.0351e-05
1.0351e-05
1.0351e-05
1.0351e-05
1.0351e-05
1.0351e-05
1.0351e-05
1.0351e-05
1.0351e-05
1.0351e-05
1.0351e-05
1.0351e-05
1.0351e-05
1.0351e-05
1.0351e-05
1.0351e-05
1.0351e-05
1.0351e-05
1.0351e-05
1.0351e-05
1.0351e-05
1.0351e-05
1.0351e-05
1.0351e-05
1.03511e-05
1.03511e-05
1.03512e-05
1.0351e-05
1.0351e-05
1.0351e-05
1.0351e-05
1.0351e-05
1.0351e-05
1.0351e-05
1.0351e-05
1.0351e-05
1.0351e-05
1.0351e-05
1.0351e-05
1.0351e-05
1.0351e-05
1.0351e-05
1.0351e-05
1.0351e-05
1.0351e-05
1.0351e-05
1.0351e-05
1.0351e-05
1.0351e-05
1.0351e-05
1.0351e-05
1.0351e-05
1.0351e-05
1.0351e-05
1.0351e-05
1.0351e-05
1.0351e-05
1.0351e-05
1.0351e-05
1.0351e-05
1.0351e-05
1.0351e-05
1.0351e-05
1.0351e-05
1.0351e-05
1.0351e-05
1.0351e-05
1.0351e-05
1.0351e-05
1.0351e-05
1.0351e-05
1.03511e-05
1.03511e-05
1.03512e-05
1.03513e-05
1.03516e-05
1.03522e-05
1.0351e-05
1.0351e-05
1.0351e-05
1.0351e-05
1.0351e-05
1.0351e-05
1.0351e-05
1.0351e-05
1.0351e-05
1.0351e-05
1.0351e-05
1.0351e-05
1.0351e-05
1.0351e-05
1.0351e-05
1.0351e-05
1.0351e-05
1.0351e-05
1.0351e-05
1.0351e-05
1.0351e-05
1.0351e-05
1.0351e-05
1.0351e-05
1.0351e-05
1.0351e-05
1.0351e-05
1.0351e-05
1.0351e-05
1.0351e-05
1.0351e-05
1.0351e-05
1.0351e-05
1.0351e-05
1.0351e-05
1.0351e-05
1.0351e-05
1.0351e-05
1.0351e-05
1.0351e-05
1.0351e-05
1.03511e-05
1.03511e-05
1.03512e-05
1.03513e-05
1.03516e-05
1.0352e-05
1.03529e-05
1.03544e-05
1.03575e-05
1.0351e-05
1.0351e-05
1.0351e-05
1.0351e-05
1.0351e-05
1.0351e-05
1.0351e-05
1.0351e-05
1.0351e-05
1.0351e-05
1.0351e-05
1.0351e-05
1.0351e-05
1.0351e-05
1.0351e-05
1.0351e-05
1.0351e-05
1.0351e-05
1.0351e-05
1.0351e-05
1.0351e-05
1.0351e-05
1.0351e-05
1.0351e-05
1.0351e-05
1.0351e-05
1.0351e-05
1.0351e-05
1.0351e-05
1.0351e-05
1.0351e-05
1.0351e-05
1.0351e-05
1.0351e-05
1.0351e-05
1.0351e-05
1.0351e-05
1.0351e-05
1.03511e-05
1.03511e-05
1.03512e-05
1.03513e-05
1.03516e-05
1.0352e-05
1.03528e-05
1.03542e-05
1.03567e-05
1.03612e-05
1.03696e-05
1.0386e-05
1.0351e-05
1.0351e-05
1.0351e-05
1.0351e-05
1.0351e-05
1.0351e-05
1.0351e-05
1.0351e-05
1.0351e-05
1.0351e-05
1.0351e-05
1.0351e-05
1.0351e-05
1.0351e-05
1.0351e-05
1.0351e-05
1.0351e-05
1.0351e-05
1.0351e-05
1.0351e-05
1.0351e-05
1.0351e-05
1.0351e-05
1.0351e-05
1.0351e-05
1.0351e-05
1.0351e-05
1.0351e-05
1.0351e-05
1.0351e-05
1.0351e-05
1.0351e-05
1.0351e-05
1.0351e-05
1.0351e-05
1.03511e-05
1.03511e-05
1.03512e-05
1.03513e-05
1.03516e-05
1.0352e-05
1.03527e-05
1.03541e-05
1.03564e-05
1.03606e-05
1.03682e-05
1.03817e-05
1.04061e-05
1.04506e-05
1.05353e-05
1.0351e-05
1.0351e-05
1.0351e-05
1.0351e-05
1.0351e-05
1.0351e-05
1.0351e-05
1.0351e-05
1.0351e-05
1.0351e-05
1.0351e-05
1.0351e-05
1.0351e-05
1.0351e-05
1.0351e-05
1.0351e-05
1.0351e-05
1.0351e-05
1.0351e-05
1.0351e-05
1.0351e-05
1.0351e-05
1.0351e-05
1.0351e-05
1.0351e-05
1.0351e-05
1.0351e-05
1.0351e-05
1.0351e-05
1.0351e-05
1.0351e-05
1.0351e-05
1.03511e-05
1.03511e-05
1.03512e-05
1.03513e-05
1.03516e-05
1.0352e-05
1.03528e-05
1.03541e-05
1.03564e-05
1.03604e-05
1.03675e-05
1.03801e-05
1.04024e-05
1.0442e-05
1.05124e-05
1.06373e-05
1.08586e-05
1.1255e-05
1.0351e-05
1.0351e-05
1.0351e-05
1.0351e-05
1.0351e-05
1.0351e-05
1.0351e-05
1.0351e-05
1.0351e-05
1.0351e-05
1.0351e-05
1.0351e-05
1.0351e-05
1.0351e-05
1.0351e-05
1.0351e-05
1.0351e-05
1.0351e-05
1.0351e-05
1.0351e-05
1.0351e-05
1.0351e-05
1.0351e-05
1.0351e-05
1.0351e-05
1.0351e-05
1.0351e-05
1.0351e-05
1.0351e-05
1.03511e-05
1.03511e-05
1.03512e-05
1.03514e-05
1.03516e-05
1.03521e-05
1.03528e-05
1.03541e-05
1.03564e-05
1.03604e-05
1.03673e-05
1.03793e-05
1.04004e-05
1.04374e-05
1.05022e-05
1.06154e-05
1.08118e-05
1.11479e-05
1.17099e-05
1.26183e-05
1.40275e-05
1.0351e-05
1.0351e-05
1.0351e-05
1.0351e-05
1.0351e-05
1.0351e-05
1.0351e-05
1.0351e-05
1.0351e-05
1.0351e-05
1.0351e-05
1.0351e-05
1.0351e-05
1.0351e-05
1.0351e-05
1.0351e-05
1.0351e-05
1.0351e-05
1.0351e-05
1.0351e-05
1.0351e-05
1.0351e-05
1.0351e-05
1.0351e-05
1.0351e-05
1.03511e-05
1.03511e-05
1.03511e-05
1.03512e-05
1.03514e-05
1.03517e-05
1.03522e-05
1.0353e-05
1.03543e-05
1.03566e-05
1.03606e-05
1.03675e-05
1.03794e-05
1.03998e-05
1.04353e-05
1.04966e-05
1.06026e-05
1.07842e-05
1.10917e-05
1.16008e-05
1.24151e-05
1.36563e-05
1.54382e-05
1.78344e-05
2.08511e-05
1.0351e-05
1.0351e-05
1.0351e-05
1.0351e-05
1.0351e-05
1.0351e-05
1.0351e-05
1.0351e-05
1.0351e-05
1.0351e-05
1.0351e-05
1.0351e-05
1.0351e-05
1.0351e-05
1.0351e-05
1.0351e-05
1.0351e-05
1.0351e-05
1.0351e-05
1.0351e-05
1.0351e-05
1.0351e-05
1.03511e-05
1.03511e-05
1.03512e-05
1.03513e-05
1.03515e-05
1.03518e-05
1.03523e-05
1.03531e-05
1.03546e-05
1.0357e-05
1.03612e-05
1.03682e-05
1.03802e-05
1.04006e-05
1.04355e-05
1.04952e-05
1.0597e-05
1.07694e-05
1.10582e-05
1.15322e-05
1.22855e-05
1.34304e-05
1.5074e-05
1.72859e-05
2.00727e-05
2.3376e-05
2.70948e-05
3.1102e-05
1.0351e-05
1.0351e-05
1.0351e-05
1.0351e-05
1.0351e-05
1.0351e-05
1.0351e-05
1.0351e-05
1.0351e-05
1.0351e-05
1.0351e-05
1.0351e-05
1.0351e-05
1.0351e-05
1.0351e-05
1.0351e-05
1.0351e-05
1.0351e-05
1.03511e-05
1.03511e-05
1.03511e-05
1.03512e-05
1.03513e-05
1.03515e-05
1.03519e-05
1.03525e-05
1.03534e-05
1.0355e-05
1.03576e-05
1.0362e-05
1.03694e-05
1.03819e-05
1.04028e-05
1.04381e-05
1.04977e-05
1.0598e-05
1.0766e-05
1.10441e-05
1.14958e-05
1.22081e-05
1.3285e-05
1.48284e-05
1.69091e-05
1.95411e-05
2.26763e-05
2.62187e-05
3.00505e-05
3.40555e-05
3.81354e-05
4.21982e-05
1.0351e-05
1.0351e-05
1.0351e-05
1.0351e-05
1.0351e-05
1.0351e-05
1.0351e-05
1.0351e-05
1.0351e-05
1.0351e-05
1.0351e-05
1.0351e-05
1.0351e-05
1.0351e-05
1.0351e-05
1.03511e-05
1.03511e-05
1.03512e-05
1.03513e-05
1.03514e-05
1.03517e-05
1.03521e-05
1.03527e-05
1.03538e-05
1.03556e-05
1.03585e-05
1.03633e-05
1.03713e-05
1.03845e-05
1.04065e-05
1.04432e-05
1.05043e-05
1.06058e-05
1.07737e-05
1.10481e-05
1.14888e-05
1.21767e-05
1.32088e-05
1.4681e-05
1.66626e-05
1.91726e-05
2.21728e-05
2.55788e-05
2.92816e-05
3.31689e-05
3.71386e-05
4.11044e-05
4.49909e-05
4.87324e-05
5.2284e-05
1.0351e-05
1.0351e-05
1.0351e-05
1.0351e-05
1.0351e-05
1.0351e-05
1.0351e-05
1.0351e-05
1.0351e-05
1.0351e-05
1.0351e-05
1.03511e-05
1.03511e-05
1.03511e-05
1.03512e-05
1.03513e-05
1.03515e-05
1.03518e-05
1.03523e-05
1.03531e-05
1.03543e-05
1.03564e-05
1.03597e-05
1.03651e-05
1.03739e-05
1.03884e-05
1.04121e-05
1.04512e-05
1.05155e-05
1.06209e-05
1.07929e-05
1.10704e-05
1.15103e-05
1.2189e-05
1.3197e-05
1.46238e-05
1.65349e-05
1.89512e-05
2.18408e-05
2.51289e-05
2.87164e-05
3.24985e-05
3.63781e-05
4.02713e-05
4.41057e-05
4.78135e-05
5.13382e-05
5.4634e-05
5.76454e-05
6.0325e-05
1.0351e-05
1.0351e-05
1.0351e-05
1.0351e-05
1.0351e-05
1.0351e-05
1.0351e-05
1.0351e-05
1.03511e-05
1.03511e-05
1.03512e-05
1.03513e-05
1.03514e-05
1.03517e-05
1.0352e-05
1.03526e-05
1.03536e-05
1.03551e-05
1.03575e-05
1.03613e-05
1.03675e-05
1.03775e-05
1.03938e-05
1.04201e-05
1.04629e-05
1.05322e-05
1.06444e-05
1.0825e-05
1.11124e-05
1.15616e-05
1.22453e-05
1.32483e-05
1.46532e-05
1.65205e-05
1.88693e-05
2.16717e-05
2.48599e-05
2.83435e-05
3.20258e-05
3.58157e-05
3.96337e-05
4.34123e-05
4.70889e-05
5.06063e-05
5.39172e-05
5.69755e-05
5.9723e-05
6.2098e-05
6.40521e-05
6.56046e-05
1.0351e-05
1.0351e-05
1.0351e-05
1.0351e-05
1.0351e-05
1.03511e-05
1.03511e-05
1.03512e-05
1.03512e-05
1.03514e-05
1.03516e-05
1.03519e-05
1.03523e-05
1.03531e-05
1.03542e-05
1.03561e-05
1.0359e-05
1.03636e-05
1.03709e-05
1.03826e-05
1.04013e-05
1.04312e-05
1.04791e-05
1.05558e-05
1.06783e-05
1.08725e-05
1.1177e-05
1.16459e-05
1.23488e-05
1.33649e-05
1.47699e-05
1.66175e-05
1.89234e-05
2.16607e-05
2.47668e-05
2.81588e-05
3.17478e-05
3.54494e-05
3.91888e-05
4.29026e-05
4.65344e-05
5.00296e-05
5.33414e-05
5.64284e-05
5.9244e-05
6.17294e-05
6.38316e-05
6.55237e-05
6.68238e-05
6.77779e-05
6.84717e-05
1.0351e-05
1.03511e-05
1.03511e-05
1.03511e-05
1.03512e-05
1.03513e-05
1.03515e-05
1.03518e-05
1.03522e-05
1.03528e-05
1.03537e-05
1.03552e-05
1.03575e-05
1.03611e-05
1.03667e-05
1.03756e-05
1.03896e-05
1.04116e-05
1.04464e-05
1.05015e-05
1.05885e-05
1.07253e-05
1.09391e-05
1.12691e-05
1.17688e-05
1.25052e-05
1.35523e-05
1.49781e-05
1.68283e-05
1.91135e-05
2.18061e-05
2.48471e-05
2.81599e-05
3.16628e-05
3.52782e-05
3.8937e-05
4.25796e-05
4.61549e-05
4.96132e-05
5.29085e-05
5.6002e-05
5.88548e-05
6.14179e-05
6.36369e-05
6.54733e-05
6.69209e-05
6.80122e-05
6.88017e-05
6.93587e-05
6.97425e-05
7.00146e-05
1.03511e-05
1.03512e-05
1.03513e-05
1.03515e-05
1.03517e-05
1.03521e-05
1.03526e-05
1.03534e-05
1.03547e-05
1.03566e-05
1.03595e-05
1.03641e-05
1.03712e-05
1.03822e-05
1.03993e-05
1.04259e-05
1.04675e-05
1.05323e-05
1.06333e-05
1.07898e-05
1.10304e-05
1.13955e-05
1.19385e-05
1.27238e-05
1.38196e-05
1.52857e-05
1.7159e-05
1.94434e-05
2.21094e-05
2.51003e-05
2.8345e-05
3.17689e-05
3.53012e-05
3.88785e-05
4.24457e-05
4.59557e-05
4.93648e-05
5.26291e-05
5.57107e-05
5.85754e-05
6.11831e-05
6.34849e-05
6.54362e-05
6.7016e-05
6.82366e-05
6.91411e-05
6.97871e-05
7.02375e-05
7.05444e-05
7.07552e-05
7.08999e-05
7.09995e-05
1.03517e-05
1.0352e-05
1.03525e-05
1.03532e-05
1.03544e-05
1.03561e-05
1.03586e-05
1.03625e-05
1.03685e-05
1.03776e-05
1.03915e-05
1.0413e-05
1.0446e-05
1.04967e-05
1.05749e-05
1.06947e-05
1.08777e-05
1.11542e-05
1.15661e-05
1.21665e-05
1.30171e-05
1.41796e-05
1.57046e-05
1.7619e-05
1.99198e-05
2.25743e-05
2.55278e-05
2.87143e-05
3.20657e-05
3.55179e-05
3.90135e-05
4.25023e-05
4.59409e-05
4.92903e-05
5.25106e-05
5.55649e-05
5.84215e-05
6.10472e-05
6.34002e-05
6.54357e-05
6.71234e-05
6.84602e-05
6.9474e-05
7.02126e-05
7.07336e-05
7.10927e-05
7.13354e-05
7.14996e-05
7.16073e-05
7.16755e-05
7.17282e-05
7.17758e-05
1.03543e-05
1.03558e-05
1.03582e-05
1.03617e-05
1.03669e-05
1.03749e-05
1.03868e-05
1.0405e-05
1.04325e-05
1.04743e-05
1.05378e-05
1.06341e-05
1.07795e-05
1.09977e-05
1.13215e-05
1.17942e-05
1.24685e-05
1.3402e-05
1.4649e-05
1.62498e-05
1.82211e-05
2.05521e-05
2.32071e-05
2.61332e-05
2.92691e-05
3.25531e-05
3.59279e-05
3.93418e-05
4.27497e-05
4.61117e-05
4.9393e-05
5.2558e-05
5.55719e-05
5.84042e-05
6.10262e-05
6.34033e-05
6.54942e-05
6.7264e-05
6.86981e-05
6.98103e-05
7.06383e-05
7.12319e-05
7.16454e-05
7.19258e-05
7.21137e-05
7.22378e-05
7.23142e-05
7.23596e-05
7.23988e-05
7.24249e-05
7.24224e-05
7.24102e-05
1.03663e-05
1.03735e-05
1.03844e-05
1.04005e-05
1.04247e-05
1.04608e-05
1.0515e-05
1.05961e-05
1.07172e-05
1.08972e-05
1.11623e-05
1.15479e-05
1.20982e-05
1.28646e-05
1.38995e-05
1.52483e-05
1.69399e-05
1.89804e-05
2.13517e-05
2.40156e-05
2.6921e-05
3.00115e-05
3.32318e-05
3.65308e-05
3.98628e-05
4.31873e-05
4.64685e-05
4.96747e-05
5.27749e-05
5.57368e-05
5.85313e-05
6.11323e-05
6.35109e-05
6.56309e-05
6.74567e-05
6.89669e-05
7.01634e-05
7.10724e-05
7.17362e-05
7.22048e-05
7.25266e-05
7.27404e-05
7.28809e-05
7.29687e-05
7.30168e-05
7.3048e-05
7.30743e-05
7.30742e-05
7.30584e-05
7.30311e-05
7.29937e-05
7.29556e-05
1.0421e-05
1.04539e-05
1.05024e-05
1.05742e-05
1.06799e-05
1.08352e-05
1.10619e-05
1.13891e-05
1.18543e-05
1.25021e-05
1.33808e-05
1.45357e-05
1.60017e-05
1.77958e-05
1.99138e-05
2.23313e-05
2.50084e-05
2.78964e-05
3.09441e-05
3.41023e-05
3.7326e-05
4.05753e-05
4.38141e-05
4.70106e-05
5.01361e-05
5.31634e-05
5.60632e-05
5.88081e-05
6.13735e-05
6.37349e-05
6.58614e-05
6.77192e-05
6.92829e-05
7.0546e-05
7.15245e-05
7.22533e-05
7.27757e-05
7.31377e-05
7.33804e-05
7.35387e-05
7.36392e-05
7.36933e-05
7.3719e-05
7.37379e-05
7.37445e-05
7.3729e-05
7.36996e-05
7.36581e-05
7.36105e-05
7.35617e-05
7.35147e-05
7.34703e-05
1.06613e-05
1.08017e-05
1.10042e-05
1.12938e-05
1.17024e-05
1.2269e-05
1.30367e-05
1.40484e-05
1.53405e-05
1.6936e-05
1.884e-05
2.10391e-05
2.35039e-05
2.61943e-05
2.90647e-05
3.20694e-05
3.51651e-05
3.83128e-05
4.14778e-05
4.46285e-05
4.77366e-05
5.07764e-05
5.37238e-05
5.65527e-05
5.92373e-05
6.17548e-05
6.40835e-05
6.61972e-05
6.8065e-05
6.96606e-05
7.09718e-05
7.20064e-05
7.27904e-05
7.33617e-05
7.37628e-05
7.40356e-05
7.42126e-05
7.43234e-05
7.43865e-05
7.44132e-05
7.44236e-05
7.44271e-05
7.44152e-05
7.43842e-05
7.43411e-05
7.42887e-05
7.4233e-05
7.41762e-05
7.41208e-05
7.4066e-05
7.40129e-05
7.39619e-05
1.16217e-05
1.21357e-05
1.28286e-05
1.37396e-05
1.4904e-05
1.6347e-05
1.80791e-05
2.00947e-05
2.23729e-05
2.48814e-05
2.7581e-05
3.04304e-05
3.33893e-05
3.64203e-05
3.949e-05
4.25684e-05
4.56281e-05
4.86442e-05
5.15935e-05
5.44548e-05
5.72049e-05
5.98201e-05
6.22789e-05
6.45618e-05
6.66462e-05
6.85052e-05
7.01127e-05
7.14531e-05
7.25278e-05
7.33559e-05
7.39696e-05
7.44065e-05
7.47062e-05
7.4903e-05
7.5025e-05
7.50968e-05
7.51265e-05
7.51303e-05
7.51271e-05
7.51156e-05
7.50844e-05
7.50387e-05
7.49846e-05
7.49224e-05
7.4858e-05
7.47941e-05
7.47314e-05
7.46689e-05
7.46076e-05
7.45468e-05
7.44871e-05
7.44288e-05
1.59874e-05
1.75888e-05
1.9458e-05
2.15803e-05
2.39297e-05
2.64733e-05
2.91744e-05
3.19965e-05
3.49047e-05
3.78672e-05
4.08556e-05
4.38444e-05
4.68098e-05
4.97299e-05
5.25843e-05
5.53538e-05
5.80182e-05
6.05557e-05
6.29464e-05
6.51722e-05
6.72138e-05
6.90473e-05
7.06484e-05
7.19999e-05
7.30989e-05
7.39588e-05
7.46055e-05
7.50721e-05
7.53963e-05
7.56119e-05
7.57446e-05
7.58221e-05
7.58586e-05
7.58585e-05
7.58481e-05
7.58319e-05
7.5802e-05
7.57535e-05
7.56954e-05
7.56289e-05
7.55582e-05
7.54863e-05
7.54155e-05
7.5345e-05
7.52752e-05
7.52064e-05
7.5138e-05
7.50701e-05
7.50024e-05
7.49356e-05
7.48697e-05
2.33129e-05
2.57202e-05
2.82861e-05
3.09779e-05
3.37639e-05
3.66146e-05
3.95034e-05
4.24063e-05
4.53018e-05
4.81692e-05
5.09895e-05
5.37445e-05
5.64173e-05
5.89898e-05
6.14422e-05
6.37562e-05
6.59151e-05
6.7902e-05
6.96959e-05
7.12744e-05
7.26205e-05
7.37281e-05
7.46061e-05
7.52754e-05
7.57652e-05
7.61096e-05
7.63402e-05
7.64832e-05
7.65666e-05
7.66071e-05
7.66053e-05
7.65896e-05
7.65666e-05
7.65334e-05
7.64829e-05
7.64213e-05
7.6353e-05
7.62761e-05
7.61967e-05
7.61175e-05
7.60395e-05
7.59617e-05
7.58848e-05
7.58085e-05
7.57327e-05
7.56572e-05
7.5582e-05
7.5507e-05
7.54321e-05
7.53578e-05
7.5284e-05
3.29918e-05
3.57311e-05
3.85163e-05
4.13251e-05
4.41376e-05
4.69355e-05
4.97011e-05
5.24176e-05
5.50692e-05
5.76404e-05
6.01153e-05
6.2476e-05
6.47056e-05
6.67889e-05
6.87108e-05
7.04528e-05
7.19948e-05
7.33202e-05
7.44216e-05
7.53042e-05
7.59856e-05
7.64902e-05
7.68485e-05
7.70909e-05
7.72428e-05
7.73305e-05
7.73722e-05
7.73719e-05
7.73519e-05
7.73199e-05
7.72804e-05
7.7231e-05
7.71652e-05
7.70914e-05
7.70097e-05
7.69237e-05
7.68372e-05
7.67515e-05
7.66659e-05
7.65809e-05
7.64969e-05
7.64134e-05
7.63304e-05
7.62477e-05
7.61651e-05
7.60827e-05
7.60003e-05
7.5918e-05
7.58355e-05
7.57535e-05
7.56719e-05
4.60437e-05
4.87395e-05
5.13991e-05
5.40078e-05
5.65515e-05
5.90167e-05
6.13889e-05
6.36519e-05
6.57903e-05
6.77903e-05
6.96383e-05
7.1318e-05
7.28112e-05
7.41023e-05
7.51837e-05
7.60585e-05
7.67404e-05
7.72506e-05
7.76166e-05
7.78667e-05
7.80239e-05
7.81143e-05
7.81566e-05
7.81565e-05
7.81323e-05
7.80928e-05
7.80461e-05
7.79924e-05
7.79231e-05
7.78445e-05
7.77605e-05
7.76687e-05
7.75745e-05
7.74804e-05
7.73872e-05
7.72943e-05
7.72026e-05
7.71115e-05
7.70208e-05
7.69306e-05
7.68407e-05
7.67511e-05
7.66615e-05
7.6572e-05
7.64824e-05
7.63926e-05
7.63028e-05
7.62127e-05
7.6123e-05
7.60334e-05
5.57522e-05
5.8184e-05
6.05387e-05
6.28034e-05
6.49632e-05
6.70044e-05
6.89144e-05
7.06807e-05