/*--------------------------------*- C++ -*----------------------------------*\
| =========                 |                                                 |
| \\      /  F ield         | OpenFOAM: The Open Source CFD Toolbox           |
|  \\    /   O peration     | Version:  v1706                                 |
|   \\  /    A nd           | Web:      www.OpenFOAM.com                      |
|    \\/     M anipulation  |                                                 |
\*---------------------------------------------------------------------------*/
FoamFile
{
    version     2.0;
    format      ascii;
    class       volScalarField;
    location    "1.2e-05";
    object      p;
}
// * * * * * * * * * * * * * * * * * * * * * * * * * * * * * * * * * * * * * //

dimensions      [1 -1 -2 0 0 0 0];


internalField   nonuniform List<scalar> 
30038
(
21.9139
21.9139
21.9139
21.9139
21.9139
21.9139
21.9139
21.9139
21.9139
21.9139
21.9139
21.9139
21.9139
21.9139
21.9139
21.9139
21.9139
21.9139
21.9139
21.9139
21.9139
21.9139
21.9139
21.9139
21.9139
21.9139
21.9139
21.9139
21.9139
21.9139
21.9139
21.9139
21.9139
21.9139
21.9139
21.9139
21.9139
21.9139
21.9139
21.9139
21.9139
21.9139
21.9139
21.9139
21.9139
21.9139
21.9139
21.9139
21.9139
21.9139
21.9139
21.9139
21.9139
21.9139
21.9139
21.9139
21.9139
21.9139
21.9139
21.9139
21.9139
21.9139
21.9139
21.9139
21.9139
21.9139
21.9139
21.9139
21.9139
21.9139
21.9139
21.9139
21.9139
21.9139
21.9139
21.9139
21.9139
21.9139
21.9139
21.9139
21.9139
21.9139
21.9139
21.9139
21.9139
21.9139
21.9139
21.9139
21.9139
21.9139
21.9139
21.9139
21.9139
21.9139
21.9139
21.9139
21.9139
21.9139
21.9139
21.9139
21.9139
21.9139
21.9139
21.9139
21.9139
21.9139
21.9139
21.9139
21.9139
21.9139
21.9139
21.9139
21.9139
21.9139
21.9139
21.9139
21.9139
21.9139
21.9139
21.9139
21.9139
21.9139
21.9139
21.9139
21.9139
21.9139
21.9139
21.9139
21.9139
21.9139
21.9139
21.9139
21.9139
21.9139
21.9139
21.9139
21.9139
21.9139
21.9139
21.9139
21.9139
21.9139
21.9139
21.9139
21.9139
21.9139
21.9139
21.9139
21.9139
21.9139
21.9139
21.9139
21.9139
21.9139
21.9139
21.9139
21.9139
21.9139
21.9139
21.9139
21.9139
21.9139
21.9139
21.9139
21.9139
21.9139
21.9139
21.9139
21.9139
21.9139
21.9139
21.9139
21.9139
21.9139
21.9139
21.9139
21.9139
21.9139
21.9139
21.9139
21.9139
21.9139
21.9139
21.9139
21.9139
21.9139
21.9139
21.9139
21.9139
21.9139
21.9139
21.9139
21.9139
21.9139
21.9139
21.9139
21.9139
21.9139
21.9139
21.9139
21.9139
21.9139
21.9139
21.9139
21.9139
21.9139
21.9139
21.9139
21.9139
21.9139
21.9139
21.9139
21.9139
21.9139
21.9139
21.9139
21.9139
21.9139
21.9139
21.9139
21.9139
21.9139
21.9139
21.9139
21.9139
21.9139
21.9139
21.9139
21.9139
21.9139
21.9139
21.9139
21.9139
21.9139
21.9139
21.9139
21.9139
21.9139
21.9139
21.9139
21.9139
21.9139
21.9139
21.9139
21.9139
21.9139
21.9139
21.9139
21.9139
21.9139
21.9139
21.9139
21.9139
21.9139
21.9139
21.9139
21.9139
21.9139
21.9139
21.9139
21.9139
21.9139
21.9139
21.9139
21.9139
21.9139
21.9139
21.9139
21.9139
21.9139
21.9139
21.9139
21.9139
21.9139
21.9139
21.9139
21.9139
21.9139
21.9139
21.9139
21.9139
21.9139
21.9139
21.9139
21.9139
21.9139
21.9139
21.9139
21.9139
21.9139
21.9139
21.9139
21.9139
21.9139
21.9139
21.9139
21.9139
21.9139
21.9139
21.9139
21.9139
21.9139
21.9139
21.9139
21.9139
21.9139
21.9139
21.9139
21.9139
21.9139
21.9139
21.9139
21.9139
21.9139
21.9139
21.9139
21.9139
21.9139
21.9139
21.9139
21.9139
21.9139
21.9139
21.9139
21.9139
21.9139
21.9139
21.9139
21.9139
21.9139
21.9139
21.9139
21.9139
21.9139
21.9139
21.9139
21.9139
21.9139
21.9139
21.9139
21.9139
21.9139
21.9139
21.9139
21.9139
21.9139
21.9139
21.9139
21.9139
21.9139
21.9139
21.9139
21.9139
21.9139
21.9139
21.9139
21.9139
21.9139
21.9139
21.9139
21.9139
21.9139
21.9139
21.9139
21.9139
21.9139
21.9139
21.9139
21.9139
21.9139
21.9139
21.9139
21.9139
21.9139
21.9139
21.9139
21.9139
21.9139
21.9139
21.9139
21.9139
21.9139
21.9139
21.9139
21.9139
21.9139
21.9139
21.9139
21.9139
21.9139
21.9139
21.9139
21.9139
21.9139
21.9139
21.9139
21.9139
21.9139
21.9139
21.9139
21.9139
21.9139
21.9139
21.9139
21.9139
21.9139
21.9139
21.9139
21.9139
21.9139
21.9139
21.9139
21.9139
21.9139
21.9139
21.9139
21.9139
21.9139
21.9139
21.9139
21.9139
21.9139
21.9139
21.9139
21.9139
21.9139
21.9139
21.9139
21.9139
21.9139
21.9139
21.9139
21.9139
21.9139
21.9139
21.9139
21.9139
21.9139
21.9139
21.9139
21.9139
21.9139
21.9139
21.9139
21.9139
21.9139
21.9139
21.9139
21.9139
21.9139
21.9139
21.9139
21.9139
21.9139
21.9139
21.9139
21.9139
21.9139
21.9139
21.9139
21.9139
21.9139
21.9139
21.9139
21.9139
21.9139
21.9139
21.9139
21.9139
21.9139
21.9139
21.9139
21.9139
21.9139
21.9139
21.9139
21.9139
21.9139
21.9139
21.9139
21.9139
21.9139
21.9139
21.9139
21.9139
21.9139
21.9139
21.9139
21.9139
21.9139
21.9139
21.9139
21.9139
21.9139
21.9139
21.9139
21.9139
21.9139
21.9139
21.9139
21.9139
21.9139
21.9139
21.9139
21.9139
21.9139
21.9139
21.9139
21.9139
21.9139
21.9139
21.9139
21.9139
21.9139
21.9139
21.9139
21.9139
21.9139
21.9139
21.9139
21.9139
21.9139
21.9139
21.9139
21.9139
21.9139
21.9139
21.9139
21.9139
21.9139
21.9139
21.9139
21.9139
21.9139
21.9139
21.9139
21.9139
21.9139
21.9139
21.9139
21.9139
21.9139
21.9139
21.9139
21.9139
21.9139
21.9139
21.9139
21.9139
21.9139
21.9139
21.9139
21.9139
21.9139
21.9139
21.9139
21.9139
21.9139
21.9139
21.9139
21.9139
21.9139
21.9139
21.9139
21.9139
21.9139
21.9139
21.9139
21.9139
21.9139
21.9139
21.9139
21.9139
21.9139
21.9139
21.9139
21.9139
21.9139
21.9139
21.9139
21.9139
21.9139
21.9139
21.9139
21.9139
21.9139
21.9139
21.9139
21.9139
21.9139
21.9139
21.9139
21.9139
21.9139
21.9139
21.9139
21.9139
21.9139
21.9139
21.9139
21.9139
21.9139
21.9139
21.9139
21.9139
21.9139
21.9139
21.9139
21.9139
21.9139
21.9139
21.9139
21.9139
21.9139
21.9139
21.9139
21.9139
21.9139
21.9139
21.9139
21.9139
21.9139
21.9139
21.9139
21.9139
21.9139
21.9139
21.9139
21.9139
21.9139
21.9139
21.9139
21.9139
21.9139
21.9139
21.9139
21.9139
21.9139
21.9139
21.9139
21.9139
21.9139
21.9139
21.9139
21.9139
21.9139
21.9139
21.9139
21.9139
21.9139
21.9139
21.9139
21.9139
21.9139
21.9139
21.9139
21.9139
21.9139
21.9139
21.9139
21.9139
21.9139
21.9139
21.9139
21.9139
21.9139
21.9139
21.9139
21.9139
21.9139
21.9139
21.9139
21.9139
21.9139
21.9139
21.9139
21.9139
21.9139
21.9139
21.9139
21.9139
21.9139
21.9139
21.9139
21.9139
21.9139
21.9139
21.9139
21.9139
21.9139
21.9139
21.9139
21.9139
21.9139
21.9139
21.9139
21.9139
21.9139
21.9139
21.9139
21.9139
21.9139
21.9139
21.9139
21.9139
21.9139
21.9139
21.9139
21.9139
21.9139
21.9139
21.9139
21.9139
21.9139
21.9139
21.9139
21.9139
21.9139
21.9139
21.9139
21.9139
21.9139
21.9139
21.9139
21.9139
21.9139
21.9139
21.9139
21.9139
21.9139
21.9139
21.9139
21.9139
21.9139
21.9139
21.9139
21.9139
21.9139
21.9139
21.9139
21.9139
21.9139
21.9139
21.9139
21.9139
21.9139
21.9139
21.9139
21.9139
21.9139
21.9139
21.9139
21.9139
21.9139
21.9139
21.9139
21.9139
21.9139
21.9139
21.9139
21.9139
21.9139
21.9139
21.9139
21.9139
21.9139
21.9139
21.9139
21.9139
21.9139
21.9139
21.9139
21.9139
21.9139
21.9139
21.9139
21.9139
21.9139
21.9139
21.9139
21.9139
21.9139
21.9139
21.9139
21.9139
21.9139
21.9139
21.9139
21.9139
21.9139
21.9139
21.9139
21.9139
21.9139
21.9139
21.9139
21.9139
21.9139
21.9139
21.9139
21.9139
21.9139
21.9139
21.9139
21.9139
21.9139
21.9139
21.9139
21.9139
21.9139
21.9139
21.9139
21.9139
21.9139
21.9139
21.9139
21.9139
21.9139
21.9139
21.9139
21.9139
21.9139
21.9139
21.9139
21.9139
21.9139
21.9139
21.9139
21.9139
21.9139
21.9139
21.9139
21.9139
21.9139
21.9139
21.9139
21.9139
21.9139
21.9139
21.9139
21.9139
21.9139
21.9139
21.9139
21.9139
21.9139
21.9139
21.9139
21.9139
21.9139
21.9139
21.9139
21.9139
21.9139
21.9139
21.9139
21.9139
21.9139
21.9139
21.9139
21.9139
21.9139
21.9139
21.9139
21.9139
21.9139
21.9139
21.9139
21.9139
21.9139
21.9139
21.9139
21.9139
21.9139
21.9139
21.9139
21.9139
21.9139
21.9139
21.9139
21.9139
21.9139
21.9139
21.9139
21.9139
21.9139
21.9139
21.9139
21.9139
21.9139
21.9139
21.9139
21.9139
21.9139
21.9139
21.9139
21.9139
21.9139
21.9139
21.9139
21.9139
21.9139
21.9139
21.9139
21.9139
21.9139
21.9139
21.9139
21.9139
21.9139
21.9139
21.9139
21.9139
21.9139
21.9139
21.9139
21.9139
21.9139
21.9139
21.9139
21.9139
21.9139
21.9139
21.9139
21.9139
21.9139
21.9139
21.9139
21.9139
21.9139
21.9139
21.9139
21.9139
21.9139
21.9139
21.9139
21.9139
21.9139
21.9139
21.9139
21.9139
21.9139
21.9139
21.9139
21.9139
21.9139
21.9139
21.9139
21.9139
21.9139
21.9139
21.9139
21.9139
21.9139
21.9139
21.9139
21.9139
21.9139
21.9139
21.9139
21.9139
21.9139
21.9139
21.9139
21.9139
21.9139
21.9139
21.9139
21.9139
21.9139
21.9139
21.9139
21.9139
21.9139
21.9139
21.9139
21.9139
21.9139
21.9139
21.9139
21.9139
21.9139
21.9139
21.9139
21.9139
21.9139
21.9139
21.9139
21.9139
21.9139
21.9139
21.9139
21.9139
21.9139
21.9139
21.9139
21.9139
21.9139
21.9139
21.9139
21.9139
21.9139
21.9139
21.9139
21.9139
21.9139
21.9139
21.9139
21.9139
21.9139
21.9139
21.9139
21.9139
21.9139
21.9139
21.9139
21.9139
21.9139
21.9139
21.9139
21.9139
21.9139
21.9139
21.9139
21.9139
21.9139
21.9139
21.9139
21.9139
21.9139
21.9139
21.9139
21.9139
21.9139
21.9139
21.9139
21.9139
21.9139
21.9139
21.9139
21.9139
21.9139
21.9139
21.9139
21.9139
21.9139
21.9139
21.9139
21.9139
21.9139
21.9139
21.9139
21.9139
21.9139
21.9139
21.9139
21.9139
21.9139
21.9139
21.9139
21.9139
21.9139
21.9139
21.9139
21.9139
21.9139
21.9139
21.9139
21.9139
21.9139
21.9139
21.9139
21.9139
21.9139
21.9139
21.9139
21.9139
21.9139
21.9139
21.9139
21.9139
21.9139
21.9139
21.9139
21.9139
21.9139
21.9139
21.9139
21.9139
21.9139
21.9139
21.9139
21.9139
21.9139
21.9139
21.9139
21.9139
21.9139
21.9139
21.9139
21.9139
21.9139
21.9139
21.9139
21.9139
21.9139
21.9139
21.9139
21.9139
21.9139
21.9139
21.9139
21.9139
21.9139
21.9139
21.9139
21.9139
21.9139
21.9139
21.9139
21.9139
21.9139
21.9139
21.9139
21.9139
21.9139
21.9139
21.9139
21.9139
21.9139
21.9139
21.9139
21.9139
21.9139
21.9139
21.9139
21.9139
21.9139
21.9139
21.9139
21.9139
21.9139
21.9139
21.9139
21.9139
21.9139
21.9139
21.9139
21.9139
21.9139
21.9139
21.9139
21.9139
21.9139
21.9139
21.9139
21.9139
21.9139
21.9139
21.9139
21.9139
21.9139
21.9139
21.9139
21.9139
21.9139
21.9139
21.9139
21.9139
21.9139
21.9139
21.9139
21.9139
21.9139
21.9139
21.9139
21.9139
21.9139
21.9139
21.9139
21.9139
21.9139
21.9139
21.9139
21.9139
21.9139
21.9139
21.9139
21.9139
21.9139
21.9139
21.9139
21.9139
21.9139
21.9139
21.9139
21.9139
21.9139
21.9139
21.9139
21.9139
21.9139
21.9139
21.9139
21.9139
21.9139
21.9139
21.9139
21.9139
21.9139
21.9139
21.9139
21.9139
21.9139
21.9139
21.9139
21.9139
21.9139
21.9139
21.9139
21.9139
21.9139
21.9139
21.9139
21.9139
21.9139
21.9139
21.9139
21.9139
21.9139
21.9139
21.9139
21.9139
21.9139
21.9139
21.9139
21.9139
21.9139
21.9139
21.9139
21.914
21.914
21.9139
21.9139
21.9139
21.9139
21.9139
21.9139
21.9139
21.9139
21.9139
21.9139
21.9139
21.9139
21.9139
21.9139
21.9139
21.9139
21.9139
21.9139
21.9139
21.9139
21.9139
21.9139
21.9139
21.9139
21.9139
21.9139
21.9139
21.9139
21.9139
21.9139
21.9139
21.9139
21.9139
21.9139
21.9139
21.9139
21.9139
21.9139
21.9139
21.9139
21.9139
21.9139
21.9139
21.9139
21.9139
21.914
21.914
21.9141
21.9142
21.9145
21.9139
21.9139
21.9139
21.9139
21.9139
21.9139
21.9139
21.9139
21.9139
21.9139
21.9139
21.9139
21.9139
21.9139
21.9139
21.9139
21.9139
21.9139
21.9139
21.9139
21.9139
21.9139
21.9139
21.9139
21.9139
21.9139
21.9139
21.9139
21.9139
21.9139
21.9139
21.9139
21.9139
21.9139
21.9139
21.9139
21.9139
21.9139
21.9139
21.9139
21.9139
21.9139
21.914
21.914
21.9141
21.9142
21.9144
21.9149
21.9157
21.9174
21.9139
21.9139
21.9139
21.9139
21.9139
21.9139
21.9139
21.9139
21.9139
21.9139
21.9139
21.9139
21.9139
21.9139
21.9139
21.9139
21.9139
21.9139
21.9139
21.9139
21.9139
21.9139
21.9139
21.9139
21.9139
21.9139
21.9139
21.9139
21.9139
21.9139
21.9139
21.9139
21.9139
21.9139
21.9139
21.9139
21.9139
21.9139
21.9139
21.914
21.914
21.9141
21.9142
21.9144
21.9149
21.9156
21.917
21.9195
21.9241
21.9332
21.9139
21.9139
21.9139
21.9139
21.9139
21.9139
21.9139
21.9139
21.9139
21.9139
21.9139
21.9139
21.9139
21.9139
21.9139
21.9139
21.9139
21.9139
21.9139
21.9139
21.9139
21.9139
21.9139
21.9139
21.9139
21.9139
21.9139
21.9139
21.9139
21.9139
21.9139
21.9139
21.9139
21.9139
21.9139
21.9139
21.914
21.914
21.9141
21.9142
21.9144
21.9148
21.9156
21.9169
21.9192
21.9234
21.9309
21.9445
21.9697
22.0188
21.9139
21.9139
21.9139
21.9139
21.9139
21.9139
21.9139
21.9139
21.9139
21.9139
21.9139
21.9139
21.9139
21.9139
21.9139
21.9139
21.9139
21.9139
21.9139
21.9139
21.9139
21.9139
21.9139
21.9139
21.9139
21.9139
21.9139
21.9139
21.9139
21.9139
21.9139
21.9139
21.9139
21.914
21.914
21.9141
21.9142
21.9145
21.9149
21.9156
21.9169
21.9191
21.9231
21.9301
21.9427
21.9653
22.0057
22.0787
22.2119
22.466
21.9139
21.9139
21.9139
21.9139
21.9139
21.9139
21.9139
21.9139
21.9139
21.9139
21.9139
21.9139
21.9139
21.9139
21.9139
21.9139
21.9139
21.9139
21.9139
21.9139
21.9139
21.9139
21.9139
21.9139
21.9139
21.9139
21.9139
21.9139
21.9139
21.9139
21.914
21.914
21.9141
21.9142
21.9145
21.9149
21.9157
21.9169
21.9192
21.9231
21.9299
21.9419
21.9632
22.0008
22.0675
22.186
22.397
22.7724
23.4424
24.6608
21.9139
21.9139
21.9139
21.9139
21.9139
21.9139
21.9139
21.9139
21.9139
21.9139
21.9139
21.9139
21.9139
21.9139
21.9139
21.9139
21.9139
21.9139
21.9139
21.9139
21.9139
21.9139
21.9139
21.9139
21.9139
21.9139
21.9139
21.914
21.914
21.9141
21.9143
21.9145
21.915
21.9158
21.9171
21.9194
21.9233
21.9301
21.9419
21.9625
21.9985
22.0614
22.1719
22.3659
22.706
23.2998
24.3272
26.0776
28.9935
33.7425
21.9139
21.9139
21.9139
21.9139
21.9139
21.9139
21.9139
21.9139
21.9139
21.9139
21.9139
21.9139
21.9139
21.9139
21.9139
21.9139
21.9139
21.9139
21.9139
21.9139
21.9139
21.9139
21.9139
21.914
21.914
21.9141
21.9142
21.9143
21.9146
21.9151
21.9159
21.9174
21.9197
21.9238
21.9307
21.9427
21.9632
21.9985
22.0597
22.1655
22.3491
22.6669
23.2151
24.1528
25.7322
28.3284
32.4514
38.7216
47.8158
60.4647
21.9139
21.9139
21.9139
21.9139
21.9139
21.9139
21.9139
21.9139
21.9139
21.9139
21.9139
21.9139
21.9139
21.9139
21.9139
21.9139
21.9139
21.9139
21.9139
21.9139
21.914
21.914
21.9141
21.9142
21.9144
21.9147
21.9153
21.9162
21.9177
21.9203
21.9246
21.9319
21.9443
21.9652
22.0009
22.0619
22.1661
22.3445
22.6496
23.1695
24.0488
25.5149
27.9052
31.6782
37.3922
45.6436
56.9908
71.9141
90.7946
114.277
21.9139
21.9139
21.9139
21.9139
21.9139
21.9139
21.9139
21.9139
21.9139
21.9139
21.9139
21.9139
21.9139
21.9139
21.9139
21.9139
21.914
21.914
21.914
21.9141
21.9143
21.9145
21.9149
21.9155
21.9166
21.9183
21.9211
21.9258
21.9337
21.9468
21.9688
22.0059
22.0683
22.1736
22.3517
22.6524
23.1585
24.0043
25.3992
27.6519
31.1818
36.5019
44.1654
54.6929
68.5199
85.9906
107.394
133.079
163.474
200.021
21.9139
21.9139
21.9139
21.9139
21.9139
21.9139
21.9139
21.9139
21.9139
21.9139
21.9139
21.9139
21.9139
21.914
21.914
21.9141
21.9142
21.9144
21.9147
21.9151
21.9159
21.9171
21.919
21.9222
21.9275
21.9362
21.9505
21.9743
22.0137
22.0793
22.1887
22.3711
22.6753
23.1809
24.0152
25.375
27.5472
30.9198
35.9669
43.2024
53.1148
66.1151
82.5276
102.617
126.644
154.971
188.158
226.958
271.787
326.786
21.9139
21.9139
21.9139
21.9139
21.9139
21.9139
21.9139
21.9139
21.9139
21.914
21.914
21.9141
21.9141
21.9143
21.9145
21.9149
21.9154
21.9163
21.9177
21.9201
21.9238
21.9299
21.9397
21.9558
21.982
22.0251
22.0959
22.2124
22.4043
22.7201
23.2381
24.0819
25.4396
27.5824
30.873
35.7521
42.6968
52.1623
64.5336
80.1134
99.1485
121.867
148.557
179.671
215.836
257.717
306.329
364.198
434.039
524.599
21.9139
21.9139
21.9139
21.9139
21.9139
21.914
21.914
21.914
21.9141
21.9142
21.9144
21.9147
21.9151
21.9158
21.9169
21.9187
21.9215
21.926
21.9331
21.9446
21.963
21.9929
22.0412
22.1195
22.2469
22.4539
22.7901
23.3344
24.2089
25.597
27.7586
31.0366
35.8424
42.6186
51.7861
63.7006
78.6412
96.8332
118.486
143.843
173.265
207.337
246.68
292.057
344.974
408.326
485.657
580.055
689.694
816.318
21.9139
21.9139
21.914
21.914
21.914
21.9141
21.9142
21.9143
21.9146
21.915
21.9155
21.9164
21.9178
21.92
21.9235
21.929
21.9376
21.9513
21.9731
22.0078
22.0633
22.1523
22.2951
22.5241
22.8912
23.4772
24.4055
25.8576
28.0862
31.418
36.2389
42.9582
51.9618
63.5747
78.0504
95.5929
116.396
140.673
168.728
201.042
238.247
280.983
330.255
388.201
458.086
543.143
644.805
760.487
883.671
1002.6
1112.11
21.914
21.9141
21.9142
21.9143
21.9145
21.9149
21.9154
21.9161
21.9173
21.9191
21.922
21.9264
21.9332
21.9439
21.9607
21.987
22.0285
22.0939
22.1975
22.3616
22.6214
23.032
23.6782
24.6866
26.2397
28.5856
32.038
36.9592
43.7262
52.6897
64.1426
78.312
95.3808
115.524
138.938
165.88
196.742
232.131
272.653
319.067
372.863
436.756
514.031
607.052
715.481
834.675
956.368
1070.14
1167.83
1243.63
1298.56
21.9143
21.9145
21.9148
21.9153
21.916
21.917
21.9186
21.921
21.9248
21.9305
21.9393
21.9529
21.9739
22.0065
22.0572
22.1364
22.26
22.4532
22.755
23.2253
23.9544
25.0744
26.7708
29.2891
32.9316
38.0378
44.9527
53.9912
65.4128
79.4176
96.1674
115.819
138.553
164.597
194.287
228.15
266.817
310.928
361.517
420.701
491.498
576.74
677.456
791.274
911.757
1029.77
1135.83
1223.37
1289.26
1334.37
1361.57
1375.68
21.9159
21.9169
21.9184
21.9206
21.9239
21.9289
21.9365
21.9481
21.9657
21.9928
22.0342
22.0978
22.1958
22.3469
22.5798
22.9387
23.4897
24.3306
25.6007
27.49
30.2427
34.1495
39.5268
46.6868
55.9078
67.4154
81.3831
97.9518
117.262
139.484
164.825
193.583
226.206
263.324
305.524
353.593
409.09
474.634
553.155
646.521
754.037
871.241
990.477
1102.46
1199.35
1276.15
1332.28
1368.62
1389.66
1399.1
1401.99
1404.67
21.9235
21.9282
21.9351
21.9455
21.9611
21.9846
22.0202
22.074
22.1557
22.2799
22.4689
22.7563
23.1927
23.8523
24.8421
26.3101
28.4518
31.5094
35.7606
41.4971
48.9968
58.5008
70.2014
84.2464
100.758
119.865
141.724
166.536
194.565
226.199
262.026
302.635
348.675
401.288
462.65
535.552
622.305
723.348
836.014
954.144
1069.45
1173.32
1259.92
1325.96
1372.46
1400.77
1416.87
1421.88
1424.1
1425.91
1424.01
1417.71
21.9591
21.9807
22.0127
22.0606
22.1322
22.2396
22.4006
22.6424
23.0049
23.5467
24.3522
25.5391
27.265
29.7301
33.1727
37.8548
44.0403
51.9715
61.8523
73.843
88.0683
104.635
123.659
145.29
169.72
197.192
228.053
262.823
302.113
346.503
396.864
454.933
523.243
604.265
699.183
806.686
922.186
1038.47
1147.23
1241.45
1316.93
1372.62
1409.82
1431.42
1442.05
1444.68
1447.25
1446.86
1443.13
1435.57
1424.92
1411.47
22.1213
22.2187
22.363
22.5764
22.8923
23.3588
24.0446
25.0459
26.4921
28.55
31.4227
35.3405
40.5455
47.2704
55.7206
66.064
78.4315
92.9272
109.645
128.692
150.213
174.393
201.461
231.735
265.682
303.908
346.959
395.548
451.031
515.644
591.839
681.245
783.512
895.448
1010.98
1122.52
1222.58
1306.04
1370.21
1415.84
1444.42
1460.67
1466.19
1467.97
1469.66
1467.79
1462.3
1453.27
1441.79
1428.1
1413.55
1397.9
22.8361
23.257
23.8683
24.751
26.0142
27.7991
30.2795
33.657
38.1488
43.9715
51.3237
60.3737
71.2555
84.0746
98.9181
115.871
135.035
156.551
180.602
207.408
237.265
270.593
307.984
349.963
397.145
450.608
512.285
584.514
669.136
766.466
874.395
988.044
1100.59
1204.68
1294.39
1366.33
1419.75
1455.73
1476.92
1487.55
1490.08
1491.93
1491.61
1488.21
1481.15
1470.93
1458.66
1444.52
1429.76
1414.54
1399.41
1383.62
25.7604
27.3717
29.5939
32.6036
36.5942
41.7631
48.2966
56.3572
66.0776
77.5621
90.8954
106.153
123.413
142.778
164.385
188.417
215.088
244.676
277.569
314.319
355.464
401.547
453.449
512.832
581.865
662.458
755.35
859.236
970.285
1082.51
1189.01
1283.51
1361.91
1422.18
1465.11
1492.34
1507.64
1512.92
1514.33
1515.63
1513.53
1508.08
1499.69
1488.71
1475.6
1461.18
1446.29
1431.06
1415.79
1400.49
1385.5
1369.94
40.4311
46.3786
53.7082
62.5466
72.9947
85.1332
99.032
114.759
132.391
152.03
173.815
197.927
224.577
254.027
286.646
322.951
363.478
408.728
459.454
517.073
583.582
660.868
749.911
849.984
958.1
1069.12
1176.68
1274.47
1357.86
1424.3
1473.57
1506.74
1526.28
1535.77
1537.94
1539.03
1538.54
1534.92
1527.99
1518.19
1506.45
1492.7
1478.12
1463.11
1447.86
1432.58
1417.33
1402.19
1387.06
1372.25
1356.91
70.0826
81.3008
94.1316
108.636
124.878
142.936
162.914
184.953
209.236
235.97
265.409
297.905
333.947
374.065
418.722
468.585
524.887
589.452
664.096
749.91
846.557
951.693
1060.94
1168.5
1268.31
1355.48
1426.97
1481.53
1520.17
1544.64
1557.88
1562.21
1563.2
1563.85
1561.23
1555.48
1547.3
1536.71
1524.05
1509.91
1495.26
1480.17
1464.91
1449.65
1434.42
1419.27
1404.18
1389.21
1374.25
1359.58
1344.4
119.868
136.662
155.192
175.567
197.934
222.475
249.397
278.945
311.461
347.412
387.311
431.594
480.869
536.235
599.362
671.966
755.162
848.842
951.146
1058.31
1165.14
1265.9
1355.62
1430.91
1490.1
1533.63
1562.62
1579.22
1586.83
1588.33
1588.72
1587.53
1583.4
1576.28
1566.65
1555.21
1541.74
1527.41
1512.6
1497.45
1482.22
1466.98
1451.77
1436.63
1421.55
1406.55
1391.6
1376.76
1361.92
1347.36
1332.32
212.917
237.803
265.011
294.781
327.449
363.469
403.332
447.449
496.387
551.155
613.292
684.398
765.545
856.746
956.481
1061.47
1167.06
1267.9
1359.09
1437.11
1500.01
1547.44
1580.45
1600.77
1611.34
1614.1
1614.45
1614.28
1610.93
1604.63
1596.33
1585.89
1573.47
1559.57
1545.15
1530.19
1515.02
1499.79
1484.57
1469.38
1454.25
1439.17
1424.16
1409.21
1394.31
1379.48
1364.73
1350
1335.53
1320.62
313.088
346.038
382.283
422.288
466.439
515.277
569.756
631.306
701.399
781.025
870.229
967.707
1070.56
1174.56
1274.82
1366.58
1446.33
1511.86
1562.43
1598.92
1622.58
1635.56
1640.51
1641.13
1640.89
1638.65
1633.62
1626.1
1616.46
1605.07
1591.75
1577.64
1563.02
1547.99
1532.84
1517.63
1502.43
1487.26
1472.14
1457.06
1442.04
1427.07
1412.15
1397.29
1382.49
1367.74
1353.08
1338.45
1324.07
1309.28
444.389
488.768
537.732
592.209
653.537
723.058
801.643
889.306
984.859
1085.68
1187.9
1287.04
1378.62
1459.1
1526.33
1579.3
1618.47
1644.81
1660.31
1667.37
1668.51
1668.15
1666.83
1662.5
1655.5
1646.91
1636.36
1623.95
1610.23
1595.97
1581.13
1566.06
1550.93
1535.74
1520.55
1505.4
1490.29
1475.22
1460.19
1445.2
1430.26
1415.37
1400.53
1385.74
1371.02
1356.35
1341.78
1327.24
1312.95
1298.27
618.746
680.2
749.55
827.521
914.05
1007.99
1106.91
1207.23
1304.84
1395.56
1475.97
1544
1598.48
1639.44
1668.04
1685.86
1694.43
1696.63
1696.4
1695.24
1691.68
1685.56
1677.5
1667.61
1656.05
1642.84
1628.9
1614.41
1599.49
1584.43
1569.28
1554.11
1538.95
1523.82
1508.71
1493.64
1478.6
1463.6
1448.64
1433.72
1418.85
1404.02
1389.25
1374.53
1359.88
1345.3
1330.81
1316.35
1302.15
1287.6
858.86
944.607
1037.2
1134.33
1232.66
1328.39
1417.69
1497.31
1565.29
1620.42
1662.53
1692.7
1712.13
1722.12
1725.56
1725.48
1724.03
1721.26
1715.84
1708.05
1698.95
1688.15
1675.56
1661.92
1647.76
1633.05
1618.11
1603.06
1587.92
1572.77
1557.62
1542.5
1527.4
1512.33
1497.29
1482.28
1467.29
1452.35
1437.44
1422.58
1407.76
1392.99
1378.28
1363.64
1349.06
1334.55
1320.15
1305.78
1291.67
1277.23
1168.04
1264.27
1357.81
1445.16
1523.33
1590.46
1645.48
1688
1719.06
1739.59
1750.88
1755.05
1755.26
1753.88
1751.38
1746.48
1738.97
1730.37
1720.19
1708.26
1695.04
1681.23
1666.8
1651.98
1637
1621.93
1606.82
1591.7
1576.58
1561.47
1546.37
1531.3
1516.25
1501.22
1486.22
1471.25
1456.31
1441.41
1426.55
1411.73
1396.97
1382.26
1367.62
1353.04
1338.54
1324.11
1309.79
1295.51
1281.48
1267.16
1478.05
1554.17
1619.75
1673.89
1716.1
1747.34
1768.48
1780.58
1785.36
1785.92
1784.63
1781.87
1777.55
1770.64
1762.05
1752.41
1741.22
1728.35
1714.77
1700.62
1685.98
1671.16
1656.2
1641.12
1626.02
1610.91
1595.8
1580.71
1565.62
1550.54
1535.48
1520.44
1505.42
1490.43
1475.46
1460.52
1445.62
1430.76
1415.95
1401.18
1386.47
1371.83
1357.25
1342.74
1328.31
1313.96
1299.72
1285.53
1271.58
1257.37
1747.06
1777.83
1799.01
1811.44
1816.61
1817.31
1816.06
1813.09
1809.1
1802.67
1794.1
1784.82
1774.11
1761.67
1748.41
1734.68
1720.26
1705.52
1690.63
1675.62
1660.58
1645.51
1630.42
1615.32
1600.22
1585.14
1570.07
1555
1539.94
1524.9
1509.88
1494.89
1479.92
1464.98
1450.08
1435.21
1420.39
1405.62
1390.91
1376.26
1361.67
1347.15
1332.71
1318.35
1304.08
1289.92
1275.82
1261.96
1247.86
1843.63
1848.89
1849.61
1848.32
1845.38
1841.1
1835.12
1826.58
1817.5
1807.27
1795.34
1782.28
1768.76
1754.57
1740
1725.29
1710.4
1695.39
1680.35
1665.28
1650.2
1635.13
1620.04
1604.95
1589.87
1574.79
1559.72
1544.67
1529.63
1514.6
1499.6
1484.62
1469.68
1454.77
1439.89
1425.07
1410.29
1395.57
1380.9
1366.3
1351.77
1337.32
1322.94
1308.66
1294.46
1280.39
1266.38
1252.61
1238.62
1881.39
1878.4
1873.86
1868.06
1859.84
1850.57
1840.6
1829.24
1816.33
1803.04
1789.16
1774.72
1760.12
1745.31
1730.39
1715.43
1700.41
1685.36
1670.29
1655.21
1640.13
1625.05
1609.96
1594.87
1579.79
1564.71
1549.65
1534.6
1519.56
1504.55
1489.56
1474.61
1459.69
1444.81
1429.97
1415.18
1400.44
1385.77
1371.15
1356.61
1342.14
1327.74
1313.44
1299.23
1285.11
1271.11
1257.19
1243.5
1229.63
1893.56
1884.19
1874.3
1863.26
1850.61
1837.47
1823.94
1809.64
1795.15
1780.48
1765.64
1750.73
1735.76
1720.75
1705.73
1690.68
1675.6
1660.52
1645.43
1630.34
1615.24
1600.14
1585.05
1569.96
1554.88
1539.81
1524.77
1509.74
1494.74
1479.77
1464.84
1449.94
1435.09
1420.29
1405.54
1390.84
1376.21
1361.65
1347.16
1332.75
1318.42
1304.18
1290.04
1276
1262.08
1248.24
1234.65
1220.88
1897.54
1885.23
1872.17
1858.85
1844.75
1830.35
1815.86
1801.11
1786.27
1771.37
1756.4
1741.41
1726.39
1711.34
1696.28
1681.21
1666.11
1651.01
1635.9
1620.78
1605.67
1590.56
1575.45
1560.36
1545.27
1530.21
1515.17
1500.15
1485.17
1470.22
1455.3
1440.44
1425.62
1410.85
1396.13
1381.48
1366.9
1352.38
1337.95
1323.59
1309.33
1295.16
1281.09
1267.12
1253.28
1239.54
1226.03
1212.37
1880.1
1865.8
1851.43
1836.79
1822.02
1807.2
1792.3
1777.35
1762.37
1747.36
1732.32
1717.26
1702.18
1687.08
1671.97
1656.85
1641.72
1626.58
1611.45
1596.32
1581.19
1566.08
1550.97
1535.89
1520.83
1505.79
1490.79
1475.82
1460.89
1446
1431.16
1416.37
1401.63
1386.96
1372.35
1357.81
1343.35
1328.97
1314.67
1300.47
1286.36
1272.36
1258.47
1244.72
1231.06
1217.63
1204.08
1872.7
1858
1843.27
1828.44
1813.54
1798.61
1783.63
1768.63
1753.6
1738.54
1723.45
1708.35
1693.23
1678.09
1662.95
1647.79
1632.63
1617.47
1602.32
1587.17
1572.03
1556.91
1541.8
1526.72
1511.66
1496.64
1481.64
1466.69
1451.78
1436.91
1422.1
1407.34
1392.64
1378
1363.44
1348.95
1334.53
1320.2
1305.97
1291.83
1277.79
1263.86
1250.05
1236.37
1222.8
1209.47
1196.03
1849.97
1835.11
1820.18
1805.21
1790.21
1775.18
1760.11
1745.03
1729.92
1714.78
1699.63
1684.47
1669.3
1654.12
1638.93
1623.74
1608.56
1593.39
1578.22
1563.07
1547.94
1532.84
1517.75
1502.7
1487.68
1472.71
1457.77
1442.88
1428.04
1413.25
1398.52
1383.86
1369.26
1354.74
1340.29
1325.93
1311.66
1297.48
1283.4
1269.43
1255.58
1241.84
1228.25
1214.77
1201.53
1188.21
1842.05
1827.1
1812.1
1797.06
1782
1766.9
1751.78
1736.64
1721.48
1706.3
1691.1
1675.89
1660.68
1645.47
1630.25
1615.04
1599.84
1584.65
1569.47
1554.31
1539.18
1524.07
1508.99
1493.94
1478.94
1463.97
1449.05
1434.18
1419.37
1404.61
1389.91
1375.28
1360.73
1346.25
1331.85
1317.53
1303.32
1289.2
1275.19
1261.29
1247.51
1233.85
1220.35
1206.96
1193.8
1180.58
1834.29
1819.26
1804.19
1789.09
1773.96
1758.8
1743.62
1728.42
1713.2
1697.97
1682.74
1667.49
1652.24
1637
1621.75
1606.52
1591.3
1576.09
1560.9
1545.74
1530.6
1515.49
1500.42
1485.38
1470.38
1455.43
1440.53
1425.68
1410.89
1396.16
1381.5
1366.91
1352.39
1337.95
1323.6
1309.35
1295.19
1281.13
1267.18
1253.36
1239.65
1226.07
1212.64
1199.33
1186.26
1173.13
1826.69
1811.58
1796.43
1781.26
1766.07
1750.85
1735.61
1720.36
1705.09
1689.82
1674.54
1659.25
1643.97
1628.7
1613.43
1598.18
1582.94
1567.72
1552.52
1537.35
1522.21
1507.1
1492.03
1477.01
1462.02
1447.09
1432.2
1417.38
1402.61
1387.91
1373.28
1358.73
1344.26
1329.87
1315.57
1301.37
1287.26
1273.26
1259.38
1245.61
1231.97
1218.46
1205.1
1191.88
1178.9
1165.89
1819.22
1804.03
1788.82
1773.58
1758.32
1743.04
1727.75
1712.45
1697.13
1681.82
1666.5
1651.18
1635.87
1620.57
1605.28
1590.01
1574.75
1559.52
1544.32
1529.14
1514
1498.9
1483.83
1468.81
1453.84
1438.92
1424.06
1409.26
1394.52
1379.86
1365.27
1350.75
1336.32
1321.98
1307.73
1293.57
1279.52
1265.57
1251.74
1238.03
1224.47
1211.03
1197.77
1184.63
1171.75
1158.85
1811.88
1796.62
1781.34
1766.03
1750.71
1735.38
1720.04
1704.68
1689.33
1673.97
1658.62
1643.27
1627.93
1612.6
1597.29
1582
1566.73
1551.49
1536.28
1521.11
1505.96
1490.86
1475.81
1460.8
1445.85
1430.95
1416.11
1401.34
1386.63
1372
1357.44
1342.96
1328.57
1314.26
1300.05
1285.94
1271.94
1258.05
1244.29
1230.65
1217.15
1203.8
1190.62
1177.57
1164.78
1151.99
1804.66
1789.33
1773.99
1758.62
1743.25
1727.86
1712.47
1697.07
1681.67
1666.28
1650.89
1635.51
1620.15
1604.8
1589.47
1574.16
1558.88
1543.63
1528.42
1513.24
1498.1
1483.01
1467.96
1452.97
1438.04
1423.16
1408.35
1393.6
1378.92
1364.31
1349.78
1335.33
1320.97
1306.71
1292.54
1278.49
1264.54
1250.71
1237.01
1223.45
1210.02
1196.75
1183.65
1170.69
1157.99
1145.31
1782.17
1766.76
1751.34
1735.91
1720.47
1705.04
1689.6
1674.16
1658.73
1643.31
1627.91
1612.52
1597.15
1581.8
1566.48
1551.19
1535.94
1520.72
1505.55
1490.42
1475.33
1460.3
1445.33
1430.4
1415.54
1400.74
1386.01
1371.35
1356.77
1342.28
1327.87
1313.55
1299.33
1285.22
1271.21
1257.32
1243.55
1229.92
1216.42
1203.07
1189.87
1176.86
1163.99
1151.38
1138.81
1775.13
1759.67
1744.19
1728.71
1713.23
1697.74
1682.26
1666.79
1651.33
1635.88
1620.45
1605.04
1589.66
1574.3
1558.97
1543.67
1528.42
1513.2
1498.03
1482.91
1467.83
1452.8
1437.83
1422.92
1408.07
1393.29
1378.59
1363.96
1349.41
1334.95
1320.58
1306.3
1292.13
1278.06
1264.11
1250.27
1236.57
1222.99
1209.56
1196.29
1183.17
1170.23
1157.46
1144.95
1132.49
1768.21
1752.69
1737.17
1721.64
1706.11
1690.59
1675.07
1659.57
1644.07
1628.6
1613.15
1597.72
1582.32
1566.96
1551.62
1536.32
1521.06
1505.84
1490.67
1475.54
1460.46
1445.44
1430.48
1415.59
1400.76
1386
1371.33
1356.73
1342.21
1327.79
1313.45
1299.22
1285.09
1271.07
1257.17
1243.39
1229.74
1216.23
1202.87
1189.67
1176.63
1163.78
1151.09
1138.68
1126.33
1745.84
1730.27
1714.69
1699.13
1683.57
1668.02
1652.48
1636.97
1621.48
1606.01
1590.57
1575.15
1559.76
1544.42
1529.11
1513.84
1498.61
1483.43
1468.31