/*--------------------------------*- C++ -*----------------------------------*\
| =========                 |                                                 |
| \\      /  F ield         | OpenFOAM: The Open Source CFD Toolbox           |
|  \\    /   O peration     | Version:  v1706                                 |
|   \\  /    A nd           | Web:      www.OpenFOAM.com                      |
|    \\/     M anipulation  |                                                 |
\*---------------------------------------------------------------------------*/
FoamFile
{
    version     2.0;
    format      ascii;
    class       volScalarField;
    location    "1.2e-05";
    object      Tov;
}
// * * * * * * * * * * * * * * * * * * * * * * * * * * * * * * * * * * * * * //

dimensions      [0 0 0 1 0 0 0];


internalField   nonuniform List<scalar> 
30038
(
144.4
144.4
144.4
144.4
144.4
144.4
144.4
144.4
144.4
144.4
144.4
144.4
144.4
144.4
144.4
144.4
144.4
144.4
144.4
144.4
144.4
144.4
144.4
144.4
144.4
144.4
144.4
144.4
144.4
144.4
144.4
144.4
144.4
144.4
144.4
144.4
144.4
144.4
144.4
144.4
144.4
144.4
144.4
144.4
144.4
144.4
144.4
144.4
144.4
144.4
144.4
144.4
144.4
144.4
144.4
144.4
144.4
144.4
144.4
144.4
144.4
144.4
144.4
144.4
144.4
144.4
144.4
144.4
144.4
144.4
144.4
144.4
144.4
144.4
144.4
144.4
144.4
144.4
144.4
144.4
144.4
144.4
144.4
144.4
144.4
144.4
144.4
144.4
144.4
144.4
144.4
144.4
144.4
144.4
144.4
144.4
144.4
144.4
144.4
144.4
144.4
144.4
144.4
144.4
144.4
144.4
144.4
144.4
144.4
144.4
144.4
144.4
144.4
144.4
144.4
144.4
144.4
144.4
144.4
144.4
144.4
144.4
144.4
144.4
144.4
144.4
144.4
144.4
144.4
144.4
144.4
144.4
144.4
144.4
144.4
144.4
144.4
144.4
144.4
144.4
144.4
144.4
144.4
144.4
144.4
144.4
144.4
144.4
144.4
144.4
144.4
144.4
144.4
144.4
144.4
144.4
144.4
144.4
144.4
144.4
144.4
144.4
144.4
144.4
144.4
144.4
144.4
144.4
144.4
144.4
144.4
144.4
144.4
144.4
144.4
144.4
144.4
144.4
144.4
144.4
144.4
144.4
144.4
144.4
144.4
144.4
144.4
144.4
144.4
144.4
144.4
144.4
144.4
144.4
144.4
144.4
144.4
144.4
144.4
144.4
144.4
144.4
144.4
144.4
144.4
144.4
144.4
144.4
144.4
144.4
144.4
144.4
144.4
144.4
144.4
144.4
144.4
144.4
144.4
144.4
144.4
144.4
144.4
144.4
144.4
144.4
144.4
144.4
144.4
144.4
144.4
144.4
144.4
144.4
144.4
144.4
144.4
144.4
144.4
144.4
144.4
144.4
144.4
144.4
144.4
144.4
144.4
144.4
144.4
144.4
144.4
144.4
144.4
144.4
144.4
144.4
144.4
144.4
144.4
144.4
144.4
144.4
144.4
144.4
144.4
144.4
144.4
144.4
144.4
144.4
144.4
144.4
144.4
144.4
144.4
144.4
144.4
144.4
144.4
144.4
144.4
144.4
144.4
144.4
144.4
144.4
144.4
144.4
144.4
144.4
144.4
144.4
144.4
144.4
144.4
144.4
144.4
144.4
144.4
144.4
144.4
144.4
144.4
144.4
144.4
144.4
144.4
144.4
144.4
144.4
144.4
144.4
144.4
144.4
144.4
144.4
144.4
144.4
144.4
144.4
144.4
144.4
144.4
144.4
144.4
144.4
144.4
144.4
144.4
144.4
144.4
144.4
144.4
144.4
144.4
144.4
144.4
144.4
144.4
144.4
144.4
144.4
144.4
144.4
144.4
144.4
144.4
144.4
144.4
144.4
144.4
144.4
144.4
144.4
144.4
144.4
144.4
144.4
144.4
144.4
144.4
144.4
144.4
144.4
144.4
144.4
144.4
144.4
144.4
144.4
144.4
144.4
144.4
144.4
144.4
144.4
144.4
144.4
144.4
144.4
144.4
144.4
144.4
144.4
144.4
144.4
144.4
144.4
144.4
144.4
144.4
144.4
144.4
144.4
144.4
144.4
144.4
144.4
144.4
144.4
144.4
144.4
144.4
144.4
144.4
144.4
144.4
144.4
144.4
144.4
144.4
144.4
144.4
144.4
144.4
144.4
144.4
144.4
144.4
144.4
144.4
144.4
144.4
144.4
144.4
144.4
144.4
144.4
144.4
144.4
144.4
144.4
144.4
144.4
144.4
144.4
144.4
144.4
144.4
144.4
144.4
144.4
144.4
144.4
144.4
144.4
144.4
144.4
144.4
144.4
144.4
144.4
144.4
144.4
144.4
144.4
144.4
144.4
144.4
144.4
144.4
144.4
144.4
144.4
144.4
144.4
144.4
144.4
144.4
144.4
144.4
144.4
144.4
144.4
144.4
144.4
144.4
144.4
144.4
144.4
144.4
144.4
144.4
144.4
144.4
144.4
144.4
144.4
144.4
144.4
144.4
144.4
144.4
144.4
144.4
144.4
144.4
144.4
144.4
144.4
144.4
144.4
144.4
144.4
144.4
144.4
144.4
144.4
144.4
144.4
144.4
144.4
144.4
144.4
144.4
144.4
144.4
144.4
144.4
144.4
144.4
144.4
144.4
144.4
144.4
144.4
144.4
144.4
144.4
144.4
144.4
144.4
144.4
144.4
144.4
144.4
144.4
144.4
144.4
144.4
144.4
144.4
144.4
144.4
144.4
144.4
144.4
144.4
144.4
144.4
144.4
144.4
144.4
144.4
144.4
144.4
144.4
144.4
144.4
144.4
144.4
144.4
144.4
144.4
144.4
144.4
144.4
144.4
144.4
144.4
144.4
144.4
144.4
144.4
144.4
144.4
144.4
144.4
144.4
144.4
144.4
144.4
144.4
144.4
144.4
144.4
144.4
144.4
144.4
144.4
144.4
144.4
144.4
144.4
144.4
144.4
144.4
144.4
144.4
144.4
144.4
144.4
144.4
144.4
144.4
144.4
144.4
144.4
144.4
144.4
144.4
144.4
144.4
144.4
144.4
144.4
144.4
144.4
144.4
144.4
144.4
144.4
144.4
144.4
144.4
144.4
144.4
144.4
144.4
144.4
144.4
144.4
144.4
144.4
144.4
144.4
144.4
144.4
144.4
144.4
144.4
144.4
144.4
144.4
144.4
144.4
144.4
144.4
144.4
144.4
144.4
144.4
144.4
144.4
144.4
144.4
144.4
144.4
144.4
144.4
144.4
144.4
144.4
144.4
144.4
144.4
144.4
144.4
144.4
144.4
144.4
144.4
144.4
144.4
144.4
144.4
144.4
144.4
144.4
144.4
144.4
144.4
144.4
144.4
144.4
144.4
144.4
144.4
144.4
144.4
144.4
144.4
144.4
144.4
144.4
144.4
144.4
144.4
144.4
144.4
144.4
144.4
144.4
144.4
144.4
144.4
144.4
144.4
144.4
144.4
144.4
144.4
144.4
144.4
144.4
144.4
144.4
144.4
144.4
144.4
144.4
144.4
144.4
144.4
144.4
144.4
144.4
144.4
144.4
144.4
144.4
144.4
144.4
144.4
144.4
144.4
144.4
144.4
144.4
144.4
144.4
144.4
144.4
144.4
144.4
144.4
144.4
144.4
144.4
144.4
144.4
144.4
144.4
144.4
144.4
144.4
144.4
144.4
144.4
144.4
144.4
144.4
144.4
144.4
144.4
144.4
144.4
144.4
144.4
144.4
144.4
144.4
144.4
144.4
144.4
144.4
144.4
144.4
144.4
144.4
144.4
144.4
144.4
144.4
144.4
144.4
144.4
144.4
144.4
144.4
144.4
144.4
144.4
144.4
144.4
144.4
144.4
144.4
144.4
144.4
144.4
144.4
144.4
144.4
144.4
144.4
144.4
144.4
144.4
144.4
144.4
144.4
144.4
144.4
144.4
144.4
144.4
144.4
144.4
144.4
144.4
144.4
144.4
144.4
144.4
144.4
144.4
144.4
144.4
144.4
144.4
144.4
144.4
144.4
144.4
144.4
144.4
144.4
144.4
144.4
144.4
144.4
144.4
144.4
144.4
144.4
144.4
144.4
144.4
144.4
144.4
144.4
144.4
144.4
144.4
144.4
144.4
144.4
144.4
144.4
144.4
144.4
144.4
144.4
144.4
144.4
144.4
144.4
144.4
144.4
144.4
144.4
144.4
144.4
144.4
144.4
144.4
144.4
144.4
144.4
144.4
144.4
144.4
144.4
144.4
144.4
144.4
144.4
144.4
144.4
144.4
144.4
144.4
144.4
144.4
144.4
144.4
144.4
144.4
144.4
144.4
144.4
144.4
144.4
144.4
144.4
144.4
144.4
144.4
144.4
144.4
144.4
144.4
144.4
144.4
144.4
144.4
144.4
144.4
144.4
144.4
144.4
144.4
144.4
144.4
144.4
144.4
144.4
144.4
144.4
144.4
144.4
144.4
144.4
144.4
144.4
144.4
144.4
144.4
144.4
144.4
144.4
144.4
144.4
144.4
144.4
144.4
144.4
144.4
144.4
144.4
144.4
144.4
144.4
144.4
144.4
144.4
144.4
144.4
144.4
144.4
144.4
144.4
144.4
144.4
144.4
144.4
144.4
144.4
144.4
144.4
144.4
144.4
144.4
144.4
144.4
144.4
144.4
144.4
144.4
144.4
144.4
144.4
144.4
144.4
144.4
144.4
144.4
144.4
144.4
144.4
144.4
144.4
144.4
144.4
144.4
144.4
144.4
144.4
144.4
144.4
144.4
144.4
144.4
144.4
144.4
144.4
144.4
144.4
144.4
144.4
144.4
144.4
144.4
144.4
144.4
144.4
144.4
144.4
144.4
144.4
144.4
144.4
144.4
144.4
144.4
144.4
144.4
144.4
144.4
144.4
144.4
144.4
144.4
144.4
144.4
144.4
144.4
144.4
144.4
144.4
144.4
144.4
144.4
144.4
144.4
144.4
144.4
144.4
144.4
144.4
144.4
144.4
144.4
144.4
144.4
144.4
144.4
144.4
144.4
144.4
144.4
144.4
144.4
144.4
144.4
144.4
144.4
144.4
144.4
144.4
144.4
144.4
144.4
144.4
144.4
144.4
144.4
144.4
144.4
144.4
144.4
144.4
144.4
144.4
144.4
144.4
144.4
144.4
144.4
144.4
144.4
144.4
144.4
144.4
144.4
144.4
144.4
144.4
144.4
144.4
144.4
144.4
144.4
144.4
144.4
144.4
144.4
144.4
144.4
144.4
144.4
144.4
144.4
144.4
144.4
144.4
144.4
144.4
144.4
144.4
144.4
144.4
144.4
144.4
144.4
144.4
144.4
144.4
144.4
144.4
144.4
144.4
144.4
144.4
144.4
144.4
144.4
144.4
144.4
144.4
144.4
144.4
144.4
144.4
144.4
144.4
144.4
144.4
144.4
144.4
144.4
144.4
144.4
144.4
144.4
144.4
144.4
144.4
144.4
144.4
144.4
144.4
144.4
144.4
144.4
144.4
144.4
144.4
144.4
144.4
144.4
144.4
144.4
144.4
144.4
144.4
144.4
144.4
144.4
144.4
144.4
144.4
144.4
144.4
144.4
144.4
144.4
144.4
144.4
144.4
144.4
144.4
144.4
144.4
144.4
144.4
144.4
144.4
144.4
144.4
144.4
144.4
144.4
144.4
144.4
144.4
144.4
144.4
144.4
144.4
144.4
144.4
144.4
144.4
144.4
144.4
144.4
144.4
144.4
144.4
144.4
144.4
144.4
144.4
144.4
144.4
144.4
144.4
144.4
144.4
144.4
144.4
144.4
144.4
144.4
144.4
144.4
144.4
144.4
144.4
144.401
144.4
144.4
144.4
144.4
144.4
144.4
144.4
144.4
144.4
144.4
144.4
144.4
144.4
144.4
144.4
144.4
144.4
144.4
144.4
144.4
144.4
144.4
144.4
144.4
144.4
144.4
144.4
144.4
144.4
144.4
144.4
144.4
144.4
144.4
144.4
144.4
144.4
144.4
144.4
144.4
144.4
144.4
144.4
144.4
144.4
144.4
144.401
144.401
144.402
144.404
144.4
144.4
144.4
144.4
144.4
144.4
144.4
144.4
144.4
144.4
144.4
144.4
144.4
144.4
144.4
144.4
144.4
144.4
144.4
144.4
144.4
144.4
144.4
144.4
144.4
144.4
144.4
144.4
144.4
144.4
144.4
144.4
144.4
144.4
144.4
144.4
144.4
144.4
144.4
144.4
144.4
144.4
144.4
144.401
144.401
144.402
144.403
144.406
144.411
144.422
144.4
144.4
144.4
144.4
144.4
144.4
144.4
144.4
144.4
144.4
144.4
144.4
144.4
144.4
144.4
144.4
144.4
144.4
144.4
144.4
144.4
144.4
144.4
144.4
144.4
144.4
144.4
144.4
144.4
144.4
144.4
144.4
144.4
144.4
144.4
144.4
144.4
144.4
144.4
144.4
144.401
144.401
144.402
144.403
144.406
144.411
144.419
144.435
144.464
144.521
144.4
144.4
144.4
144.4
144.4
144.4
144.4
144.4
144.4
144.4
144.4
144.4
144.4
144.4
144.4
144.4
144.4
144.4
144.4
144.4
144.4
144.4
144.4
144.4
144.4
144.4
144.4
144.4
144.4
144.4
144.4
144.4
144.4
144.4
144.4
144.4
144.4
144.401
144.401
144.402
144.403
144.406
144.411
144.419
144.433
144.459
144.507
144.593
144.751
145.06
144.4
144.4
144.4
144.4
144.4
144.4
144.4
144.4
144.4
144.4
144.4
144.4
144.4
144.4
144.4
144.4
144.4
144.4
144.4
144.4
144.4
144.4
144.4
144.4
144.4
144.4
144.4
144.4
144.4
144.4
144.4
144.4
144.4
144.4
144.401
144.401
144.402
144.403
144.406
144.411
144.419
144.433
144.458
144.502
144.582
144.724
144.979
145.439
146.279
147.88
144.4
144.4
144.4
144.4
144.4
144.4
144.4
144.4
144.4
144.4
144.4
144.4
144.4
144.4
144.4
144.4
144.4
144.4
144.4
144.4
144.4
144.4
144.4
144.4
144.4
144.4
144.4
144.4
144.4
144.4
144.4
144.401
144.401
144.402
144.404
144.406
144.411
144.419
144.433
144.458
144.501
144.577
144.71
144.948
145.368
146.116
147.448
149.817
154.038
161.678
144.4
144.4
144.4
144.4
144.4
144.4
144.4
144.4
144.4
144.4
144.4
144.4
144.4
144.4
144.4
144.4
144.4
144.4
144.4
144.4
144.4
144.4
144.4
144.4
144.4
144.4
144.4
144.401
144.401
144.401
144.402
144.404
144.407
144.412
144.42
144.434
144.459
144.502
144.577
144.706
144.933
145.331
146.029
147.254
149.4
153.144
159.605
170.561
188.667
217.666
144.4
144.4
144.4
144.4
144.4
144.4
144.4
144.4
144.4
144.4
144.4
144.4
144.4
144.4
144.4
144.4
144.4
144.4
144.4
144.4
144.4
144.4
144.4
144.4
144.401
144.401
144.402
144.403
144.405
144.408
144.413
144.422
144.437
144.462
144.506
144.581
144.711
144.934
145.32
145.989
147.149
149.157
152.616
158.519
168.42
184.576
209.925
247.745
301.069
371.856
144.4
144.4
144.4
144.4
144.4
144.4
144.4
144.4
144.4
144.4
144.4
144.4
144.4
144.4
144.4
144.4
144.4
144.4
144.4
144.4
144.4
144.401
144.401
144.402
144.403
144.405
144.409
144.415
144.424
144.44
144.468
144.514
144.592
144.724
144.95
145.335
145.994
147.122
149.05
152.333
157.874
167.076
181.98
205.248
239.885
288.626
353.222
433.971
529.803
638.381
144.4
144.4
144.4
144.4
144.4
144.4
144.4
144.4
144.4
144.4
144.4
144.4
144.4
144.4
144.4
144.4
144.4
144.401
144.401
144.401
144.402
144.404
144.406
144.41
144.417
144.428
144.445
144.475
144.525
144.608
144.747
144.981
145.376
146.043
147.169
149.071
152.269
157.602
166.366
180.433
202.252
234.621
280.159
340.642
416.511
506.785
609.386
721.663
840.926
964.242
144.4
144.4
144.4
144.4
144.4
144.4
144.4
144.4
144.4
144.4
144.4
144.4
144.4
144.4
144.401
144.401
144.402
144.403
144.405
144.408
144.412
144.42
144.432
144.453
144.486
144.541
144.632
144.782
145.031
145.447
146.139
147.294
149.219
152.415
157.68
166.229
179.807
200.688
231.476
274.656
331.992
404.064
490.14
588.406
696.387
811.353
930.612
1051.49
1171.39
1288.25
144.4
144.4
144.4
144.4
144.4
144.4
144.4
144.4
144.4
144.4
144.401
144.401
144.402
144.402
144.404
144.406
144.41
144.415
144.424
144.439
144.463
144.501
144.563
144.665
144.831
145.104
145.552
146.291
147.506
149.506
152.782
158.109
166.65
180.053
200.446
230.259
271.819
326.823
395.91
478.527
573.11
677.432
788.979
905.211
1023.62
1141.63
1256.84
1367.13
1469.97
1563.09
144.4
144.4
144.4
144.4
144.4
144.4
144.401
144.401
144.401
144.402
144.403
144.405
144.408
144.412
144.419
144.43
144.448
144.476
144.521
144.594
144.711
144.9
145.206
145.703
146.51
147.822
149.953
153.397
158.919
167.654
181.178
201.5
230.887
271.498
324.917
391.774
471.619
563.076
664.148
772.539
885.893
1001.93
1118.31
1232.68
1342.93
1446.92
1542.04
1625.51
1695.06
1750.84
144.4
144.4
144.4
144.401
144.401
144.401
144.402
144.403
144.404
144.407
144.41
144.416
144.425
144.439
144.461
144.495
144.55
144.637
144.775
144.995
145.347
145.912
146.817
148.27
150.597
154.306
160.169
169.307
183.248
203.9
233.375
273.655
326.177
391.507
469.236
558.125
656.371
761.877
872.478
986.063
1100.54
1213.73
1323.58
1428.17
1525.33
1612.48
1687.16
1747.91
1794.97
1829.71
1855.08
144.401
144.401
144.402
144.403
144.404
144.406
144.409
144.414
144.422
144.433
144.451
144.479
144.522
144.59
144.696
144.863
145.127
145.542
146.2
147.241
148.89
151.493
155.584
161.953
171.724
186.39
207.772
237.83
278.357
330.616
395.066
471.295
558.155
653.997
756.911
864.912
976.045
1088.43
1200.1
1309.08
1413.6
1511.8
1601.48
1680.19
1746.08
1798.48
1838.25
1867.17
1887.64
1901.77
1911.81
144.403
144.404
144.406
144.409
144.413
144.42
144.43
144.445
144.469
144.505
144.561
144.647
144.781
144.988
145.31
145.813
146.598
147.825
149.741
152.723
157.339
164.411
175.076
190.804
213.327
244.454
285.774
338.351
402.51
477.799
563.123
656.965
757.582
863.157
971.899
1082.09
1191.98
1299.75
1403.67
1502.1
1593.2
1674.76
1744.73
1801.92
1846.44
1879.62
1903.4
1920.03
1931.38
1939.18
1944.54
1948.23
144.413
144.419
144.428
144.442
144.463
144.495
144.544
144.617
144.729
144.901
145.164
145.568
146.191
147.151
148.632
150.91
154.405
159.728
167.742
179.607
196.769
220.868
253.547
296.177
349.603
413.993
488.834
573.065
665.275
763.876
867.212
973.652
1081.61
1189.55
1295.79
1398.7
1496.77
1588.41
1671.73
1744.7
1805.82
1854.61
1891.84
1919.09
1938.37
1951.69
1960.7
1966.8
1970.8
1973.33
1975.29
1977.05
144.461
144.491
144.535
144.601
144.7
144.849
145.075
145.418
145.937
146.727
147.929
149.756
152.527
156.71
162.972
172.226
185.652
204.667
230.802
265.513
309.935
364.683
429.756
504.567
588.082
678.983
775.82
877.095
981.323
1087.06
1192.9
1297.37
1398.94
1496.17
1587.67
1671.84
1746.8
1810.92
1863.32
1904.22
1934.82
1956.84
1972.22
1982.66
1989.66
1994.29
1997.13
1998.82
2000.27
2001.25
2001.15
2000.68
144.688
144.825
145.029
145.333
145.789
146.472
147.497
149.035
151.339
154.78
159.886
167.387
178.248
193.663
214.997
243.649
280.861
327.514
383.988
450.114
525.235
608.335
698.188
793.471
892.834
994.928
1098.44
1202.11
1304.62
1404.55
1500.57
1591.4
1675.67
1751.73
1817.93
1873.17
1917.24
1950.9
1975.58
1993.05
2005.06
2013.06
2018.31
2021.6
2023.39
2024.55
2025.53
2025.52
2024.92
2023.89
2022.48
2021.05
145.72
146.341
147.259
148.618
150.628
153.593
157.946
164.287
173.412
186.331
204.232
228.396
260.053
300.204
349.468
407.989
475.445
551.121
634.027
723.023
816.909
914.472
1014.5
1115.8
1217.23
1317.61
1415.68
1510.16
1599.89
1683.66
1760.04
1827.48
1884.77
1931.37
1967.68
1994.84
2014.37
2027.92
2037.02
2042.96
2046.74
2048.76
2049.72
2050.43
2050.67
2050.08
2048.96
2047.4
2045.6
2043.76
2041.98
2040.3
150.275
152.953
156.837
162.434
170.42
181.655
197.171
218.116
245.645
280.776
324.249
376.417
437.208
506.17
582.547
665.39
753.648
846.238
942.074
1040.07
1139.16
1238.29
1336.42
1432.41
1525.08
1613.34
1696.12
1772.17
1840.1
1898.66
1947.14
1985.61
2014.9
2036.31
2051.38
2061.64
2068.3
2072.47
2074.85
2075.85
2076.23
2076.36
2075.9
2074.72
2073.09
2071.11
2069
2066.85
2064.75
2062.68
2060.67
2058.74
168.835
178.996
192.933
211.666
236.251
267.666
306.684
353.769
409.022
472.191
542.722
619.849
702.673
790.238
881.574
975.712
1071.68
1168.53
1265.3
1361.06
1454.78
1545.4
1631.87
1713.24
1788.44
1856.2
1915.32
1965
2005.06
2036.07
2059.14
2075.6
2086.91
2094.34
2098.95
2101.66
2102.78
2102.92
2102.79
2102.34
2101.15
2099.42
2097.36
2095
2092.56
2090.14
2087.76
2085.39
2083.06
2080.76
2078.49
2076.28
259.745
295.501
338.708
389.564
447.952
513.476
585.528
663.354
746.121
832.967
923.031
1015.45
1109.37
1203.92
1298.25
1391.52
1482.81
1571.14
1655.55
1735.17
1809.05
1876.08
1935.12
1985.34
2026.42
2058.71
2083.09
2100.72
2112.99
2121.17
2126.2
2129.13
2130.51
2130.5
2130.1
2129.47
2128.34
2126.49
2124.27
2121.74
2119.05
2116.32
2113.62
2110.94
2108.29
2105.67
2103.07
2100.49
2097.92
2095.38
2092.88
432.421
493.838
561.566
634.977
713.357
795.948
881.983
970.7
1061.34
1153.14
1245.32
1337.12
1427.78
1516.47
1602.3
1684.4
1761.96
1834.12
1899.93
1958.33
2008.49
2050.02
2083.09
2108.4
2126.97
2140.05
2148.82
2154.26
2157.43
2158.97
2158.89
2158.29
2157.4
2156.13
2154.2
2151.84
2149.23
2146.3
2143.27
2140.25
2137.28
2134.31
2131.38
2128.47
2125.58
2122.71
2119.84
2116.99
2114.14
2111.31
2108.5
691.4
770.105
852.331
937.401
1024.65
1113.4
1202.98
1292.7
1381.86
1469.77
1555.71
1638.85
1718.39
1793.6
1863.71
1927.87
1985.12
2034.69
2076.11
2109.47
2135.32
2154.51
2168.16
2177.42
2183.21
2186.56
2188.15
2188.13
2187.36
2186.13
2184.61
2182.71
2180.19
2177.36
2174.24
2170.95
2167.63
2164.36
2161.09
2157.83
2154.63
2151.44
2148.26
2145.11
2141.96
2138.81
2135.67
2132.53
2129.38
2126.26
2123.15
1084.91
1171.63
1258.87
1345.98
1432.37
1517.41
1600.42
1680.68
1757.44
1830.04
1897.79
1959.93
2015.6
2064.07
2104.89
2138.07
2164.02
2183.5
2197.49
2207.07
2213.1
2216.56
2218.17
2218.16
2217.23
2215.7
2213.91
2211.84
2209.17
2206.15
2202.92
2199.4
2195.78
2192.17
2188.6
2185.04
2181.52
2178.03
2174.56
2171.1
2167.66
2164.23
2160.81
2157.38
2153.96
2150.53
2147.1
2143.66
2140.23
2136.81
1405.08
1488.54
1570.54
1650.46
1727.64
1801.42
1871.17
1936.28
1996.07
2049.77
2096.71
2136.47
2169.01
2194.66
2214.09
2228.17
2237.84
2243.96
2247.47
2249.06
2248.96
2247.93
2246.16
2244
2241.66
2238.94
2235.69
2232.23
2228.5
2224.61
2220.72
2216.85
2212.99
2209.15
2205.35
2201.58
2197.83
2194.1
2190.38
2186.67
2182.96
2179.26
2175.56
2171.86
2168.14
2164.42
2160.7
2156.96
2153.23
2149.5
1705.66
1779.58
1850.15
1916.82
1979.04
2036.19
2087.58
2132.6
2170.88
2202.37
2227.33
2246.38
2260.25
2269.81
2275.9
2279.35
2280.77
2280.56
2279.44
2277.4
2274.88
2272.27
2269.37
2265.9
2262.2
2258.33
2254.19
2249.98
2245.8
2241.64
2237.49
2233.39
2229.32
2225.27
2221.24
2217.23
2213.24
2209.25
2205.27
2201.3
2197.32
2193.34
2189.36
2185.37
2181.36
2177.35
2173.33
2169.29
2165.26
2161.22
1966.8
2025.88
2080.12
2128.88
2171.64
2208.07
2238.14
2262.07
2280.4
2293.81
2303.04
2308.93
2312.19
2313.4
2313.05
2311.73
2309.39
2306.59
2303.64
2300.46
2296.83
2292.88
2288.78
2284.41
2279.92
2275.45
2270.99
2266.54
2262.12
2257.75
2253.4
2249.08
2244.78
2240.5
2236.23
2231.97
2227.72
2223.47
2219.23
2214.98
2210.72
2206.46
2202.19
2197.91
2193.62
2189.31
2184.99
2180.65
2176.31
2171.96
2173.49
2213.69
2247.96
2276.27
2298.84
2316.16
2328.85
2337.55
2343.05
2346.02
2346.92
2346.35
2344.77
2342.2
2339.07
2335.75
2332.25
2328.5
2324.24
2319.85
2315.31
2310.55
2305.77
2301.01
2296.27
2291.54
2286.87
2282.22
2277.6
2273
2268.43
2263.88
2259.35
2254.82
2250.3
2245.78
2241.27
2236.76
2232.24
2227.71
2223.18
2218.63
2214.07
2209.5
2204.91
2200.3
2195.68
2191.04
2186.39
2181.72
2316.63
2337.57
2353.63
2365.36
2373.31
2378.28
2380.83
2381.32
2380.48
2378.59
2375.73
2372.26
2368.61
2364.78
2360.72
2356.26
2351.6
2346.84
2341.83
2336.74
2331.69
2326.66
2321.62
2316.64
2311.7
2306.78
2301.9
2297.04
2292.2
2287.38
2282.57
2277.78
2273
2268.22
2263.44
2258.66
2253.88
2249.1
2244.3
2239.5
2234.68
2229.85
2225
2220.13
2215.24
2210.33
2205.41
2200.46
2195.5
2190.52
2403.23
2410.31
2414.61
2416.61
2416.57
2415.41
2413.17
2409.97
2406.16
2402.18
2397.99
2393.6
2388.95
2383.99
2378.93
2373.72
2368.35
2363
2357.68
2352.35
2347.07
2341.83
2336.61
2331.43
2326.28
2321.16
2316.06
2310.98
2305.91
2300.85
2295.8
2290.76
2285.73
2280.69
2275.65
2270.61
2265.55
2260.49
2255.42
2250.33
2245.23
2240.11
2234.96
2229.8
2224.61
2219.4
2214.17
2208.92
2203.65
2198.36
2452.73
2451.12
2448.46
2444.88
2440.75
2436.4
2431.86
2427.15
2422.26
2417.01
2411.64
2406.19
2400.56
2394.91
2389.31
2383.7
2378.1
2372.57
2367.06
2361.59
2356.16
2350.74
2345.36
2339.99
2334.65
2329.33
2324.01
2318.71
2313.41
2308.12
2302.82
2297.53
2292.23
2286.93
2281.61
2276.29
2270.95
2265.59
2260.22
2254.83
2249.41
2243.97
2238.51
2233.03
2227.51
2221.98
2216.42
2210.85
2205.24
2480.46
2475.99
2471.25
2466.36
2461.3
2456.09
2450.61
2444.95
2439.25
2433.36
2427.4
2421.51
2415.62
2409.73
2403.91
2398.12
2392.35
2386.63
2380.93
2375.27
2369.63
2364.01
2358.41
2352.83
2347.26
2341.7
2336.15
2330.6
2325.06
2319.51
2313.96
2308.41
2302.84
2297.27
2291.68
2286.08
2280.46
2274.82
2269.16
2263.48
2257.77
2252.04
2246.27
2240.49
2234.67
2228.83
2222.97
2217.09
2211.17
2501.43
2496.04
2490.49
2484.76
2478.8
2472.8
2466.69
2460.46
2454.26
2448.11
2441.94
2435.81
2429.74
2423.69
2417.68
2411.71
2405.76
2399.84
2393.95
2388.08
2382.23
2376.4
2370.58
2364.76
2358.96
2353.17
2347.37
2341.58
2335.79
2329.98
2324.18
2318.36
2312.53
2306.68
2300.82
2294.94
2289.03
2283.11
2277.16
2271.18
2265.18
2259.15
2253.09
2247
2240.88
2234.74
2228.57
2222.39
2216.16
2513.18
2506.88
2500.51
2494.02
2487.53
2481.11
2474.67
2468.25
2461.9
2455.57
2449.28
2443.03
2436.81
2430.62
2424.45
2418.32
2412.2
2406.1
2400.02
2393.95
2387.9
2381.85
2375.8
2369.77
2363.73
2357.69
2351.65
2345.6
2339.54
2333.47
2327.38
2321.28
2315.16
2309.02
2302.86
2296.67
2290.46
2284.22
2277.95
2271.65
2265.32
2258.96
2252.58
2246.16
2239.71
2233.24
2226.75
2220.23
2528.06
2521.29
2514.59
2507.9
2501.19
2494.57
2487.98
2481.4
2474.88
2468.38
2461.92
2455.49
2449.08
2442.7
2436.35
2430.01
2423.68
2417.37
2411.07
2404.78
2398.5
2392.22
2385.94
2379.66
2373.38
2367.09
2360.8
2354.49
2348.17
2341.83
2335.48
2329.11
2322.71
2316.29
2309.84
2303.37
2296.87
2290.34
2283.78
2277.18
2270.56
2263.9
2257.22
2250.5
2243.76
2236.98
2230.2
2223.37
2534.61
2527.7
2520.85
2514
2507.21
2500.46
2493.73
2487.03
2480.36
2473.72
2467.1
2460.51
2453.93
2447.37
2440.82
2434.29
2427.76
2421.24
2414.73
2408.21
2401.7
2395.18
2388.66
2382.13
2375.59
2369.03
2362.47
2355.88
2349.28
2342.65
2336
2329.33
2322.63
2315.9
2309.14
2302.35
2295.53
2288.68
2281.79
2274.87
2267.92
2260.94
2253.92
2246.88
2239.81
2232.73
2225.61
2547.06
2540
2532.99
2526
2519.04
2512.12
2505.22
2498.35
2491.5
2484.67
2477.86
2471.07
2464.29
2457.52
2450.76
2444.01
2437.26
2430.52
2423.77
2417.03
2410.27
2403.51
2396.74
2389.96
2383.17
2376.36
2369.53
2362.68
2355.8
2348.91
2341.98
2335.03
2328.05
2321.03
2313.99
2306.91
2299.8
2292.66
2285.48
2278.27
2271.02
2263.74
2256.44
2249.1
2241.74
2234.36
2226.94
2551.49
2544.32
2537.17
2530.05
2522.95
2515.88
2508.82
2501.79
2494.77
2487.76
2480.76
2473.78
2466.8
2459.83
2452.85
2445.88
2438.91
2431.93
2424.94
2417.95
2410.94
2403.92
2396.89
2389.84
2382.77
2375.67
2368.56
2361.41
2354.24
2347.04
2339.81
2332.55
2325.25
2317.92
2310.56
2303.16
2295.72
2288.26
2280.75
2273.22
2265.65
2258.05
2250.42
2242.77
2235.1
2227.41
2562.17
2554.83
2547.52
2540.22
2532.95
2525.69
2518.45
2511.22
2504
2496.79
2489.59
2482.39
2475.2
2468
2460.81
2453.61
2446.4
2439.19
2431.96
2424.72
2417.47
2410.2
2402.91
2395.6
2388.27
2380.91
2373.52
2366.11
2358.66
2351.19
2343.68
2336.14
2328.56
2320.95
2313.3
2305.61
2297.89
2290.13
2282.34
2274.51
2266.65
2258.77
2250.87
2242.96
2235.02
2227.07
2572.02
2564.51
2557.02
2549.55
2542.09
2534.65
2527.21
2519.79
2512.37
2504.95
2497.54
2490.13
2482.72
2475.3
2467.88
2460.44
2453
2445.55
2438.08
2430.6
2423.1
2415.57
2408.03
2400.46
2392.86
2385.24
2377.58
2369.9
2362.18
2354.43
2346.64
2338.82
2330.96
2323.07
2315.14
2307.17
2299.16
2291.11
2283.04
2274.94
2266.82
2258.67
2250.5
2242.32
2234.13
2225.89
2581.04
2573.35
2565.69
2558.03
2550.38
2542.75
2535.11
2527.49
2519.86
2512.24
2504.61
2496.98
2489.35
2481.71
2474.06
2466.39
2458.71
2451.02
2443.31
2435.58
2427.82
2420.04
2412.24
2404.41
2396.55
2388.67
2380.74
2372.79
2364.8
2356.77
2348.71
2340.61
2332.48
2324.3
2316.08
2307.83
2299.56
2291.25
2282.91
2274.55
2266.16
2257.75
2249.31
2240.85
2232.39
2223.9
2589.21
2581.35
2573.5
2565.66
2557.82
2549.98
2542.15
2534.32
2526.49
2518.65
2510.81
2502.96
2495.1
2487.23
2479.35
2471.45
2463.53
2455.6
2447.64
2439.66
2431.65
2423.62
2415.56
2407.47
2399.35
2391.2
2383.01
2374.79
2366.53
2358.23
2349.89
2341.51
2333.1
2324.67
2316.19
2307.68
2299.14
2290.57
2281.97
2273.33
2264.67
2255.99
2247.29
2238.57
2229.85
2221.1
2596.54
2588.5
2580.46
2572.42
2564.39
2556.36
2548.32
2540.28
2532.24
2524.19
2516.13
2508.06
2499.97
2491.87
2483.75
2475.62
2467.46
2459.28
2451.08
2442.85
2434.59
2426.31
2417.99
2409.64
2401.26
2392.85
2384.39
2375.89
2367.36
2358.8
2350.21
2341.58
2332.91
2324.21
2315.48
2306.7
2297.89
2289.05
2280.18
2271.28
2262.36
2253.42
2244.46
2235.49
2226.53
2217.54
2603.02
2594.79
2586.56
2578.33
2570.1
2561.86
2553.62
2545.37
2537.12
2528.85
2520.57
2512.27
2503.96
2495.63
2487.28
2478.9
2470.51
2462.08
2453.64
2445.16
2436.65
2428.11
2419.54
2410.93
2402.28
2393.6
2384.89
2376.15
2367.37
2358.55
2349.71
2340.82
2331.89
2322.92
2313.92
2304.88
2295.81
2286.71
2277.58
2268.42
2259.25
2250.06
2240.86
2231.65
2222.44
2213.22
2600.22
2591.8
2583.38
2574.94
2566.5
2558.05
2549.59
2541.12
2532.63
2524.13
2515.61
2507.07
2498.5
2489.92
2481.31
2472.67
2464
2455.31
2446.58
2437.82
2429.03
2420.2
2411.35
2402.46
2393.54
2384.58
2375.59
2366.56
2357.48
2348.37
2339.22
2330.03
2320.81
2311.55
2302.25
2292.93
2283.57
2274.19
2264.79
2255.37
2245.94
2236.5
2227.06
2217.62
2208.17
2604.8
2596.18
2587.56
2578.92
2570.28
2561.62
2552.94
2544.25
2535.54
2526.82
2518.07
2509.3
2500.5
2491.68
2482.84
2473.96
2465.05
2456.1
2447.14
2438.14
2429.11
2420.05
2410.95
2401.82
2392.65
2383.44
2374.19
2364.9
2355.57
2346.2
2336.8
2327.36
2317.88
2308.37
2298.83
2289.26
2279.66
2270.04
2260.4
2250.74
2241.08
2231.41
2221.75
2212.09
2202.43
2608.52
2599.7
2590.87
2582.03
2573.18
2564.31
2555.42
2546.51
2537.58
2528.63
2519.66
2510.66
2501.63
2492.57
2483.49
2474.38
2465.24
2456.07
2446.87
2437.64
2428.37
2419.07
2409.72
2400.34
2390.92
2381.46
2371.96
2362.42
2352.85
2343.23
2333.58
2323.89
2314.17
2304.42
2294.64
2284.83
2274.99
2265.14
2255.27
2245.39
2235.5
2225.62
2215.74
2205.87
2196.01
2602.36
2593.33
2584.28
2575.22
2566.13
2557.03
2547.9
2538.75
2529.57
2520.37
2511.15
2501.9
2492.63
2483.32
2473.98
2464.62
2455.22
2445.78
2436.31
2426.8
2417.25
2407.66
2398.03
2388.37
2378.67
2368.92
2359.14
2349.33
2339.47
2329.58
2319.66
2309.7
2299.71
2289.7
2279.66
2269.6
2259.52
2249.43
2239.33
2229.23
2219.14
2209.05
2198.99
2188.93
2604.15
2594.92
2585.66
2576.38
2567.09
2557.76
2548.43
2539.07
2529.68
2520.26
2510.83
2501.36
2491.86
2482.33
2472.76
2463.16
2453.53
2443.85
2434.14
2424.39
2414.61
2404.78
2394.92
2385.02
2375.08
2365.1
2355.09
2345.04
2334.95
2324.83
2314.67
2304.49
2294.27
2284.03
2273.77
2263.49
2253.2
2242.89
2232.59
2222.29
2212
2201.72
2191.47
2181.23
2605.07
2595.63
2586.18
2576.71
2567.21
2557.68
2548.14
2538.57
2528.97
2519.34
2509.68
2499.99
2490.26
2480.5
2470.71
2460.87
2451.01
2441.1
2431.16
2421.19
2411.17
2401.11
2391.02
2380.89
2370.72
2360.51
2350.27
2339.99
2329.68
2319.33
2308.96
2298.55
2288.12
2277.67
2267.19
2256.7
2246.2
2235.7
2225.2
2214.7
2204.22
2193.76
2183.33
2172.92
2605.17
2595.53
2585.88
2576.21
2566.51
2556.79
2547.03
2537.24
2527.42
2517.58
2507.69
2497.78
2487.83
2477.85
2467.83
2457.78
2447.69
2437.56
2427.39
2417.19
2406.95
2396.67
2386.35
2376
2365.61
2355.18
2344.71
2334.22
2323.69
2313.13
2302.54
2291.92
2281.28
2270.62
2259.94
2249.25
2238.56
2227.86
2217.17
2206.49
2195.84
2185.2
2174.61
2164.03
2594.62
2584.77
2574.89
2564.98
2555.04
2545.07
2535.08
2525.05
2514.98
2504.89
2494.76
2484.59
2474.39
2464.16
2453.89
2443.58
2433.23
2422.85
2412.42
2401.96
2391.47
2380.93
2370.36
2359.76
2349.12
2338.44
2327.73
2316.99
2306.23
2295.43
2284.61
2273.77
2262.91
2252.04
2241.17
2230.28
2219.41
2208.54
2197.69
2186.86
2176.07
2165.31
2154.58
2592.87
2582.81
2572.73
2562.62
2552.48
2542.3
2532.1
2521.86
2511.59
2501.28
2490.94
2480.56
2470.15
2459.7
2449.22
2438.7
2428.14
2417.54
2406.91
2396.24
2385.53
2374.79
2364.01
2353.2
2342.35
2331.47
2320.56
2309.62
2298.66
2287.66
2276.65
2265.62
2254.58
2243.52
2232.47
2221.41
2210.36
2199.32
2188.31
2177.33
2166.38
2155.48
2144.61
2590.29
2580.03
2569.75
2559.44
2549.1
2538.72
2528.31
2517.87
2507.4
2496.89
2486.34
2475.76
2465.14
2454.49
2443.79
2433.07
2422.3
2411.5
2400.66
2389.79
2378.88
2367.94
2356.96
2345.95
2334.9
2323.83
2312.72
2301.59
2290.44
2279.26
2268.06
2256.85
2245.63
2234.4
2223.18
2211.95
2200.74
2189.55
2178.38
2167.26
2156.17
2145.14
2134.14
2576.45
2565.97
2555.46
2544.92
2534.35
2523.75
2513.1
2502.43
2491.72
2480.97
2470.19
2459.38
2448.52
2437.63
2426.71
2415.74
2404.74
2393.71
2382.64
2371.54
2360.4
2349.23
2338.03
2326.79
2315.53
2304.24
2292.93
2281.6
2270.24
2258.87
2247.49
2236.1
2224.71
2213.32
2201.95
2190.58
2179.25
2167.94
2156.68
2145.47
2134.31
2123.19
2572.06
2561.4
2550.7
2539.97
2529.21
2518.41
2507.57
2496.71
2485.8
2474.86
2463.89
2452.88
2441.83
2430.75
2419.63
2408.48
2397.29
2386.07
2374.81
2363.52
2352.2
2340.84
2329.46
2318.05
2306.61
2295.15
2283.66
2272.16
2260.64
2249.1
2237.56
2226.02
2214.47
2202.94
2191.42
2179.91
2168.44
2157.01
2145.62
2134.29
2123.02
2111.79
2566.9
2556.05
2545.17
2534.25
2523.3
2512.31
2501.29
2490.24
2479.15
2468.02
2456.86
2445.67
2434.43
2423.17
2411.87
2400.53
2389.16
2377.76
2366.32
2354.85
2343.35
2331.83
2320.27
2308.69
2297.08
2285.45
2273.81
2262.14
2250.47
2238.78
2227.09
2215.4
2203.72
2192.04
2180.38