/*--------------------------------*- C++ -*----------------------------------*\
| =========                 |                                                 |
| \\      /  F ield         | OpenFOAM: The Open Source CFD Toolbox           |
|  \\    /   O peration     | Version:  v1706                                 |
|   \\  /    A nd           | Web:      www.OpenFOAM.com                      |
|    \\/     M anipulation  |                                                 |
\*---------------------------------------------------------------------------*/
FoamFile
{
    version     2.0;
    format      ascii;
    class       volScalarField;
    location    "1.2e-05";
    object      Tt;
}
// * * * * * * * * * * * * * * * * * * * * * * * * * * * * * * * * * * * * * //

dimensions      [0 0 0 1 0 0 0];


internalField   nonuniform List<scalar> 
30038
(
144.4
144.4
144.4
144.4
144.4
144.4
144.4
144.4
144.4
144.4
144.4
144.4
144.4
144.4
144.4
144.4
144.4
144.4
144.4
144.4
144.4
144.4
144.4
144.4
144.4
144.4
144.4
144.4
144.4
144.4
144.4
144.4
144.4
144.4
144.4
144.4
144.4
144.4
144.4
144.4
144.4
144.4
144.4
144.4
144.4
144.4
144.4
144.4
144.4
144.4
144.4
144.4
144.4
144.4
144.4
144.4
144.4
144.4
144.4
144.4
144.4
144.4
144.4
144.4
144.4
144.4
144.4
144.4
144.4
144.4
144.4
144.4
144.4
144.4
144.4
144.4
144.4
144.4
144.4
144.4
144.4
144.4
144.4
144.4
144.4
144.4
144.4
144.4
144.4
144.4
144.4
144.4
144.4
144.4
144.4
144.4
144.4
144.4
144.4
144.4
144.4
144.4
144.4
144.4
144.4
144.4
144.4
144.4
144.4
144.4
144.4
144.4
144.4
144.4
144.4
144.4
144.4
144.4
144.4
144.4
144.4
144.4
144.4
144.4
144.4
144.4
144.4
144.4
144.4
144.4
144.4
144.4
144.4
144.4
144.4
144.4
144.4
144.4
144.4
144.4
144.4
144.4
144.4
144.4
144.4
144.4
144.4
144.4
144.4
144.4
144.4
144.4
144.4
144.4
144.4
144.4
144.4
144.4
144.4
144.4
144.4
144.4
144.4
144.4
144.4
144.4
144.4
144.4
144.4
144.4
144.4
144.4
144.4
144.4
144.4
144.4
144.4
144.4
144.4
144.4
144.4
144.4
144.4
144.4
144.4
144.4
144.4
144.4
144.4
144.4
144.4
144.4
144.4
144.4
144.4
144.4
144.4
144.4
144.4
144.4
144.4
144.4
144.4
144.4
144.4
144.4
144.4
144.4
144.4
144.4
144.4
144.4
144.4
144.4
144.4
144.4
144.4
144.4
144.4
144.4
144.4
144.4
144.4
144.4
144.4
144.4
144.4
144.4
144.4
144.4
144.4
144.4
144.4
144.4
144.4
144.4
144.4
144.4
144.4
144.4
144.4
144.4
144.4
144.4
144.4
144.4
144.4
144.4
144.4
144.4
144.4
144.4
144.4
144.4
144.4
144.4
144.4
144.4
144.4
144.4
144.4
144.4
144.4
144.4
144.4
144.4
144.4
144.4
144.4
144.4
144.4
144.4
144.4
144.4
144.4
144.4
144.4
144.4
144.4
144.4
144.4
144.4
144.4
144.4
144.4
144.4
144.4
144.4
144.4
144.4
144.4
144.4
144.4
144.4
144.4
144.4
144.4
144.4
144.4
144.4
144.4
144.4
144.4
144.4
144.4
144.4
144.4
144.4
144.4
144.4
144.4
144.4
144.4
144.4
144.4
144.4
144.4
144.4
144.4
144.4
144.4
144.4
144.4
144.4
144.4
144.4
144.4
144.4
144.4
144.4
144.4
144.4
144.4
144.4
144.4
144.4
144.4
144.4
144.4
144.4
144.4
144.4
144.4
144.4
144.4
144.4
144.4
144.4
144.4
144.4
144.4
144.4
144.4
144.4
144.4
144.4
144.4
144.4
144.4
144.4
144.4
144.4
144.4
144.4
144.4
144.4
144.4
144.4
144.4
144.4
144.4
144.4
144.4
144.4
144.4
144.4
144.4
144.4
144.4
144.4
144.4
144.4
144.4
144.4
144.4
144.4
144.4
144.4
144.4
144.4
144.4
144.4
144.4
144.4
144.4
144.4
144.4
144.4
144.4
144.4
144.4
144.4
144.4
144.4
144.4
144.4
144.4
144.4
144.4
144.4
144.4
144.4
144.4
144.4
144.4
144.4
144.4
144.4
144.4
144.4
144.4
144.4
144.4
144.4
144.4
144.4
144.4
144.4
144.4
144.4
144.4
144.4
144.4
144.4
144.4
144.4
144.4
144.4
144.4
144.4
144.4
144.4
144.4
144.4
144.4
144.4
144.4
144.4
144.4
144.4
144.4
144.4
144.4
144.4
144.4
144.4
144.4
144.4
144.4
144.4
144.4
144.4
144.4
144.4
144.4
144.4
144.4
144.4
144.4
144.4
144.4
144.4
144.4
144.4
144.4
144.4
144.4
144.4
144.4
144.4
144.4
144.4
144.4
144.4
144.4
144.4
144.4
144.4
144.4
144.4
144.4
144.4
144.4
144.4
144.4
144.4
144.4
144.4
144.4
144.4
144.4
144.4
144.4
144.4
144.4
144.4
144.4
144.4
144.4
144.4
144.4
144.4
144.4
144.4
144.4
144.4
144.4
144.4
144.4
144.4
144.4
144.4
144.4
144.4
144.4
144.4
144.4
144.4
144.4
144.4
144.4
144.4
144.4
144.4
144.4
144.4
144.4
144.4
144.4
144.4
144.4
144.4
144.4
144.4
144.4
144.4
144.4
144.4
144.4
144.4
144.4
144.4
144.4
144.4
144.4
144.4
144.4
144.4
144.4
144.4
144.4
144.4
144.4
144.4
144.4
144.4
144.4
144.4
144.4
144.4
144.4
144.4
144.4
144.4
144.4
144.4
144.4
144.4
144.4
144.4
144.4
144.4
144.4
144.4
144.4
144.4
144.4
144.4
144.4
144.4
144.4
144.4
144.4
144.4
144.4
144.4
144.4
144.4
144.4
144.4
144.4
144.4
144.4
144.4
144.4
144.4
144.4
144.4
144.4
144.4
144.4
144.4
144.4
144.4
144.4
144.4
144.4
144.4
144.4
144.4
144.4
144.4
144.4
144.4
144.4
144.4
144.4
144.4
144.4
144.4
144.4
144.4
144.4
144.4
144.4
144.4
144.4
144.4
144.4
144.4
144.4
144.4
144.4
144.4
144.4
144.4
144.4
144.4
144.4
144.4
144.4
144.4
144.4
144.4
144.4
144.4
144.4
144.4
144.4
144.4
144.4
144.4
144.4
144.4
144.4
144.4
144.4
144.4
144.4
144.4
144.4
144.4
144.4
144.4
144.4
144.4
144.4
144.4
144.4
144.4
144.4
144.4
144.4
144.4
144.4
144.4
144.4
144.4
144.4
144.4
144.4
144.4
144.4
144.4
144.4
144.4
144.4
144.4
144.4
144.4
144.4
144.4
144.4
144.4
144.4
144.4
144.4
144.4
144.4
144.4
144.4
144.4
144.4
144.4
144.4
144.4
144.4
144.4
144.4
144.4
144.4
144.4
144.4
144.4
144.4
144.4
144.4
144.4
144.4
144.4
144.4
144.4
144.4
144.4
144.4
144.4
144.4
144.4
144.4
144.4
144.4
144.4
144.4
144.4
144.4
144.4
144.4
144.4
144.4
144.4
144.4
144.4
144.4
144.4
144.4
144.4
144.4
144.4
144.4
144.4
144.4
144.4
144.4
144.4
144.4
144.4
144.4
144.4
144.4
144.4
144.4
144.4
144.4
144.4
144.4
144.4
144.4
144.4
144.4
144.4
144.4
144.4
144.4
144.4
144.4
144.4
144.4
144.4
144.4
144.4
144.4
144.4
144.4
144.4
144.4
144.4
144.4
144.4
144.4
144.4
144.4
144.4
144.4
144.4
144.4
144.4
144.4
144.4
144.4
144.4
144.4
144.4
144.4
144.4
144.4
144.4
144.4
144.4
144.4
144.4
144.4
144.4
144.4
144.4
144.4
144.4
144.4
144.4
144.4
144.4
144.4
144.4
144.4
144.4
144.4
144.4
144.4
144.4
144.4
144.4
144.4
144.4
144.4
144.4
144.4
144.4
144.4
144.4
144.4
144.4
144.4
144.4
144.4
144.4
144.4
144.4
144.4
144.4
144.4
144.4
144.4
144.4
144.4
144.4
144.4
144.4
144.4
144.4
144.4
144.4
144.4
144.4
144.4
144.4
144.4
144.4
144.4
144.4
144.4
144.4
144.4
144.4
144.4
144.4
144.4
144.4
144.4
144.4
144.4
144.4
144.4
144.4
144.4
144.4
144.4
144.4
144.4
144.4
144.4
144.4
144.4
144.4
144.4
144.4
144.4
144.4
144.4
144.4
144.4
144.4
144.4
144.4
144.4
144.4
144.4
144.4
144.4
144.4
144.4
144.4
144.4
144.4
144.4
144.4
144.4
144.4
144.4
144.4
144.4
144.4
144.4
144.4
144.4
144.4
144.4
144.4
144.4
144.4
144.4
144.4
144.4
144.4
144.4
144.4
144.4
144.4
144.4
144.4
144.4
144.4
144.4
144.4
144.4
144.4
144.4
144.4
144.4
144.4
144.4
144.4
144.4
144.4
144.4
144.4
144.4
144.4
144.4
144.4
144.4
144.4
144.4
144.4
144.4
144.4
144.4
144.4
144.4
144.4
144.4
144.4
144.4
144.4
144.4
144.4
144.4
144.4
144.4
144.4
144.4
144.4
144.4
144.4
144.4
144.4
144.4
144.4
144.4
144.4
144.4
144.4
144.4
144.4
144.4
144.4
144.4
144.4
144.4
144.4
144.4
144.4
144.4
144.4
144.4
144.4
144.4
144.4
144.4
144.4
144.4
144.4
144.4
144.4
144.4
144.4
144.4
144.4
144.4
144.4
144.4
144.4
144.4
144.4
144.4
144.4
144.4
144.4
144.4
144.4
144.4
144.4
144.4
144.4
144.4
144.4
144.4
144.4
144.4
144.4
144.4
144.4
144.4
144.4
144.4
144.4
144.4
144.4
144.4
144.4
144.4
144.4
144.4
144.4
144.4
144.4
144.4
144.4
144.4
144.4
144.4
144.4
144.4
144.4
144.4
144.4
144.4
144.4
144.4
144.4
144.4
144.4
144.4
144.4
144.4
144.4
144.4
144.4
144.4
144.4
144.4
144.4
144.4
144.4
144.4
144.4
144.4
144.4
144.4
144.4
144.4
144.4
144.4
144.4
144.4
144.4
144.4
144.4
144.4
144.4
144.4
144.4
144.4
144.4
144.4
144.4
144.4
144.4
144.4
144.4
144.4
144.4
144.4
144.4
144.4
144.4
144.4
144.4
144.4
144.4
144.4
144.4
144.4
144.4
144.4
144.4
144.4
144.4
144.4
144.4
144.4
144.4
144.4
144.4
144.4
144.4
144.4
144.4
144.4
144.4
144.4
144.4
144.4
144.4
144.4
144.4
144.4
144.4
144.4
144.4
144.4
144.4
144.4
144.4
144.4
144.4
144.4
144.4
144.4
144.4
144.4
144.4
144.4
144.4
144.4
144.4
144.4
144.4
144.4
144.4
144.4
144.4
144.4
144.4
144.4
144.4
144.4
144.4
144.4
144.4
144.4
144.4
144.4
144.4
144.4
144.4
144.4
144.4
144.4
144.4
144.4
144.4
144.4
144.4
144.4
144.4
144.4
144.4
144.4
144.4
144.4
144.4
144.4
144.4
144.4
144.4
144.4
144.4
144.4
144.4
144.4
144.4
144.4
144.4
144.4
144.4
144.4
144.4
144.4
144.4
144.4
144.4
144.4
144.4
144.4
144.4
144.4
144.4
144.4
144.4
144.4
144.4
144.4
144.401
144.4
144.4
144.4
144.4
144.4
144.4
144.4
144.4
144.4
144.4
144.4
144.4
144.4
144.4
144.4
144.4
144.4
144.4
144.4
144.4
144.4
144.4
144.4
144.4
144.4
144.4
144.4
144.4
144.4
144.4
144.4
144.4
144.4
144.4
144.4
144.4
144.4
144.4
144.4
144.4
144.4
144.4
144.4
144.4
144.4
144.4
144.401
144.401
144.402
144.404
144.4
144.4
144.4
144.4
144.4
144.4
144.4
144.4
144.4
144.4
144.4
144.4
144.4
144.4
144.4
144.4
144.4
144.4
144.4
144.4
144.4
144.4
144.4
144.4
144.4
144.4
144.4
144.4
144.4
144.4
144.4
144.4
144.4
144.4
144.4
144.4
144.4
144.4
144.4
144.4
144.4
144.4
144.4
144.401
144.401
144.402
144.403
144.406
144.411
144.422
144.4
144.4
144.4
144.4
144.4
144.4
144.4
144.4
144.4
144.4
144.4
144.4
144.4
144.4
144.4
144.4
144.4
144.4
144.4
144.4
144.4
144.4
144.4
144.4
144.4
144.4
144.4
144.4
144.4
144.4
144.4
144.4
144.4
144.4
144.4
144.4
144.4
144.4
144.4
144.4
144.401
144.401
144.402
144.403
144.406
144.411
144.419
144.435
144.464
144.521
144.4
144.4
144.4
144.4
144.4
144.4
144.4
144.4
144.4
144.4
144.4
144.4
144.4
144.4
144.4
144.4
144.4
144.4
144.4
144.4
144.4
144.4
144.4
144.4
144.4
144.4
144.4
144.4
144.4
144.4
144.4
144.4
144.4
144.4
144.4
144.4
144.4
144.401
144.401
144.402
144.403
144.406
144.411
144.419
144.433
144.459
144.507
144.593
144.751
145.06
144.4
144.4
144.4
144.4
144.4
144.4
144.4
144.4
144.4
144.4
144.4
144.4
144.4
144.4
144.4
144.4
144.4
144.4
144.4
144.4
144.4
144.4
144.4
144.4
144.4
144.4
144.4
144.4
144.4
144.4
144.4
144.4
144.4
144.4
144.401
144.401
144.402
144.403
144.406
144.411
144.419
144.433
144.458
144.502
144.582
144.724
144.979
145.439
146.279
147.88
144.4
144.4
144.4
144.4
144.4
144.4
144.4
144.4
144.4
144.4
144.4
144.4
144.4
144.4
144.4
144.4
144.4
144.4
144.4
144.4
144.4
144.4
144.4
144.4
144.4
144.4
144.4
144.4
144.4
144.4
144.4
144.401
144.401
144.402
144.404
144.406
144.411
144.419
144.433
144.458
144.501
144.577
144.71
144.948
145.368
146.116
147.448
149.817
154.038
161.678
144.4
144.4
144.4
144.4
144.4
144.4
144.4
144.4
144.4
144.4
144.4
144.4
144.4
144.4
144.4
144.4
144.4
144.4
144.4
144.4
144.4
144.4
144.4
144.4
144.4
144.4
144.4
144.401
144.401
144.401
144.402
144.404
144.407
144.412
144.42
144.434
144.459
144.502
144.577
144.706
144.933
145.331
146.029
147.254
149.4
153.144
159.605
170.561
188.667
217.666
144.4
144.4
144.4
144.4
144.4
144.4
144.4
144.4
144.4
144.4
144.4
144.4
144.4
144.4
144.4
144.4
144.4
144.4
144.4
144.4
144.4
144.4
144.4
144.4
144.401
144.401
144.402
144.403
144.405
144.408
144.413
144.422
144.437
144.462
144.506
144.581
144.711
144.934
145.32
145.989
147.149
149.157
152.616
158.519
168.42
184.576
209.925
247.745
301.069
371.856
144.4
144.4
144.4
144.4
144.4
144.4
144.4
144.4
144.4
144.4
144.4
144.4
144.4
144.4
144.4
144.4
144.4
144.4
144.4
144.4
144.4
144.401
144.401
144.402
144.403
144.405
144.409
144.415
144.424
144.44
144.468
144.514
144.592
144.724
144.95
145.335
145.994
147.122
149.05
152.333
157.874
167.076
181.98
205.248
239.885
288.626
353.222
433.971
529.803
638.381
144.4
144.4
144.4
144.4
144.4
144.4
144.4
144.4
144.4
144.4
144.4
144.4
144.4
144.4
144.4
144.4
144.4
144.401
144.401
144.401
144.402
144.404
144.406
144.41
144.417
144.428
144.445
144.475
144.525
144.608
144.747
144.981
145.376
146.043
147.169
149.071
152.269
157.602
166.366
180.433
202.252
234.621
280.159
340.642
416.512
506.785
609.387
721.664
840.928
964.244
144.4
144.4
144.4
144.4
144.4
144.4
144.4
144.4
144.4
144.4
144.4
144.4
144.4
144.4
144.401
144.401
144.402
144.403
144.405
144.408
144.412
144.42
144.432
144.453
144.486
144.541
144.632
144.782
145.031
145.447
146.139
147.294
149.219
152.415
157.68
166.229
179.807
200.688
231.476
274.656
331.992
404.064
490.14
588.407
696.388
811.354
930.614
1051.5
1171.4
1288.25
144.4
144.4
144.4
144.4
144.4
144.4
144.4
144.4
144.4
144.4
144.401
144.401
144.402
144.402
144.404
144.406
144.41
144.415
144.424
144.439
144.463
144.501
144.563
144.665
144.831
145.104
145.552
146.291
147.506
149.506
152.782
158.109
166.65
180.053
200.446
230.259
271.819
326.823
395.91
478.527
573.11
677.433
788.98
905.213
1023.63
1141.63
1256.85
1367.14
1469.98
1563.11
144.4
144.4
144.4
144.4
144.4
144.4
144.401
144.401
144.401
144.402
144.403
144.405
144.408
144.412
144.419
144.43
144.448
144.476
144.521
144.594
144.711
144.9
145.206
145.703
146.51
147.822
149.953
153.397
158.919
167.654
181.178
201.5
230.887
271.498
324.917
391.774
471.619
563.076
664.149
772.54
885.895
1001.93
1118.31
1232.69
1342.94
1446.93
1542.05
1625.53
1695.08
1750.87
144.4
144.4
144.4
144.401
144.401
144.401
144.402
144.403
144.404
144.407
144.41
144.416
144.425
144.439
144.461
144.495
144.55
144.637
144.775
144.995
145.347
145.912
146.817
148.27
150.597
154.306
160.169
169.307
183.248
203.9
233.375
273.655
326.177
391.507
469.236
558.126
656.372
761.879
872.48
986.066
1100.55
1213.74
1323.59
1428.18
1525.35
1612.49
1687.18
1747.93
1795
1829.74
1855.12
144.401
144.401
144.402
144.403
144.404
144.406
144.409
144.414
144.422
144.433
144.451
144.479
144.522
144.59
144.696
144.863
145.127
145.542
146.2
147.241
148.89
151.493
155.584
161.953
171.724
186.39
207.772
237.83
278.357
330.616
395.066
471.296
558.156
653.998
756.913
864.914
976.048
1088.44
1200.1
1309.09
1413.61
1511.81
1601.49
1680.21
1746.11
1798.51
1838.28
1867.2
1887.68
1901.82
1911.86
144.403
144.404
144.406
144.409
144.413
144.42
144.43
144.445
144.469
144.505
144.561
144.647
144.781
144.988
145.31
145.813
146.598
147.825
149.741
152.723
157.339
164.411
175.076
190.804
213.327
244.454
285.774
338.352
402.51
477.799
563.124
656.966
757.583
863.159
971.902
1082.09
1191.99
1299.75
1403.68
1502.12
1593.22
1674.78
1744.76
1801.95
1846.48
1879.65
1903.44
1920.08
1931.43
1939.24
1944.61
1948.31
144.413
144.419
144.428
144.442
144.463
144.495
144.544
144.617
144.729
144.901
145.164
145.568
146.191
147.151
148.632
150.91
154.405
159.728
167.742
179.607
196.769
220.868
253.547
296.177
349.603
413.994
488.834
573.065
665.276
763.877
867.215
973.655
1081.62
1189.56
1295.8
1398.71
1496.78
1588.43
1671.75
1744.73
1805.85
1854.65
1891.88
1919.14
1938.42
1951.74
1960.76
1966.87
1970.88
1973.42
1975.38
1977.15
144.461
144.491
144.535
144.601
144.7
144.849
145.075
145.418
145.937
146.727
147.929
149.756
152.527
156.71
162.972
172.226
185.652
204.667
230.802
265.513
309.935
364.683
429.756
504.568
588.082
678.984
775.821
877.098
981.326
1087.06
1192.91
1297.38
1398.95
1496.18
1587.69
1671.86
1746.83
1810.95
1863.35
1904.26
1934.87
1956.89
1972.27
1982.72
1989.73
1994.36
1997.22
1998.91
2000.38
2001.36
2001.26
2000.81
144.688
144.825
145.029
145.333
145.789
146.472
147.497
149.035
151.339
154.78
159.886
167.387
178.248
193.663
214.997
243.649
280.861
327.514
383.988
450.114
525.235
608.336
698.189
793.473
892.836
994.932
1098.45
1202.12
1304.62
1404.56
1500.58
1591.42
1675.69
1751.75
1817.96
1873.2
1917.28
1950.95
1975.63
1993.11
2005.13
2013.13
2018.39
2021.68
2023.49
2024.66
2025.64
2025.64
2025.05
2024.03
2022.63
2021.2
145.72
146.341
147.259
148.618
150.628
153.593
157.946
164.287
173.412
186.331
204.232
228.396
260.053
300.204
349.468
407.989
475.446
551.122
634.028
723.025
816.912
914.475
1014.5
1115.81
1217.23
1317.62
1415.69
1510.18
1599.91
1683.68
1760.07
1827.52
1884.81
1931.42
1967.73
1994.9
2014.43
2027.99
2037.1
2043.05
2046.83
2048.86
2049.83
2050.54
2050.79
2050.21
2049.1
2047.55
2045.76
2043.93
2042.16
2040.5
150.275
152.953
156.837
162.434
170.42
181.655
197.171
218.116
245.645
280.776
324.25
376.417
437.208
506.17
582.548
665.391
753.649
846.24
942.078
1040.08
1139.16
1238.3
1336.43
1432.43
1525.1
1613.36
1696.14
1772.2
1840.14
1898.7
1947.18
1985.66
2014.96
2036.37
2051.45
2061.72
2068.39
2072.57
2074.95
2075.96
2076.35
2076.48
2076.04
2074.87
2073.25
2071.27
2069.17
2067.03
2064.95
2062.89
2060.89
2058.97
168.835
178.996
192.933
211.666
236.251
267.666
306.684
353.769
409.023
472.191
542.723
619.85
702.675
790.24
881.577
975.717
1071.69
1168.54
1265.31
1361.07
1454.8
1545.42
1631.9
1713.27
1788.47
1856.24
1915.37
1965.05
2005.11
2036.14
2059.21
2075.68
2086.99
2094.43
2099.05
2101.77
2102.89
2103.04
2102.92
2102.49
2101.31
2099.58
2097.54
2095.19
2092.75
2090.34
2087.97
2085.61
2083.3
2081
2078.75
2076.55
259.745
295.502
338.709
389.564
447.952
513.477
585.529
663.355
746.123
832.97
923.035
1015.46
1109.38
1203.93
1298.26
1391.53
1482.83
1571.16
1655.58
1735.2
1809.08
1876.12
1935.17
1985.39
2026.48
2058.78
2083.16
2100.81
2113.08
2121.26
2126.3
2129.25
2130.64
2130.63
2130.24
2129.62
2128.49
2126.65
2124.45
2121.93
2119.25
2116.52
2113.84
2111.17
2108.53
2105.93
2103.34
2100.77
2098.21
2095.69
2093.19
432.421
493.838
561.567
634.978
713.359
795.951
881.987
970.705
1061.35
1153.15
1245.33
1337.14
1427.79
1516.49
1602.33
1684.43
1761.99
1834.16
1899.97
1958.38
2008.55
2050.08
2083.16
2108.48
2127.05
2140.14
2148.92
2154.37
2157.55
2159.09
2159.03
2158.43
2157.56
2156.29
2154.37
2152.03
2149.43
2146.51
2143.49
2140.48
2137.51
2134.56
2131.64
2128.74
2125.87
2123
2120.15
2117.31
2114.47
2111.66
2108.86
691.402
770.107
852.334
937.406
1024.65
1113.41
1202.99
1292.71
1381.87
1469.79
1555.73
1638.88
1718.43
1793.63
1863.75
1927.91
1985.18
2034.75
2076.18
2109.55
2135.4
2154.6
2168.27
2177.53
2183.33
2186.69
2188.28
2188.28
2187.51
2186.29
2184.78
2182.9
2180.39
2177.57
2174.45
2171.17
2167.87
2164.6
2161.34
2158.1
2154.91
2151.73
2148.57
2145.43
2142.29
2139.16
2136.03
2132.9
2129.77
2126.66
2123.56
1084.92
1171.64
1258.88
1346
1432.39
1517.43
1600.45
1680.71
1757.48
1830.08
1897.84
1959.98
2015.66
2064.14
2104.97
2138.15
2164.12
2183.6
2197.6
2207.19
2213.22
2216.69
2218.32
2218.32
2217.39
2215.88
2214.09
2212.03
2209.38
2206.36
2203.15
2199.64
2196.03
2192.43
2188.87
2185.32
2181.81
2178.34
2174.87
2171.43
2168.01
2164.59
2161.18
2157.77
2154.35
2150.94
2147.52
2144.1
2140.69
2137.28
1405.09
1488.56
1570.56
1650.49
1727.68
1801.46
1871.21
1936.34
1996.13
2049.84
2096.78
2136.56
2169.1
2194.76
2214.2
2228.29
2237.97
2244.09
2247.62
2249.21
2249.12
2248.11
2246.34
2244.19
2241.87
2239.16
2235.92
2232.47
2228.75
2224.87
2220.99
2217.13
2213.28
2209.46
2205.67
2201.91
2198.17
2194.45
2190.75
2187.05
2183.36
2179.67
2175.98
2172.29
2168.59
2164.89
2161.18
2157.45
2153.74
2150.03
1705.7
1779.62
1850.2
1916.88
1979.1
2036.26
2087.65
2132.68
2170.97
2202.47
2227.44
2246.5
2260.38
2269.95
2276.05
2279.51
2280.94
2280.74
2279.63
2277.6
2275.08
2272.49
2269.6
2266.14
2262.45
2258.59
2254.46
2250.27
2246.09
2241.94
2237.81
2233.72
2229.66
2225.62
2221.61
2217.61
2213.63
2209.66
2205.69
2201.73
2197.77
2193.8
2189.83
2185.86
2181.87
2177.87
2173.86
2169.84
2165.82
2161.8
1966.86
2025.95
2080.19
2128.96
2171.73
2208.18
2238.25
2262.19
2280.53
2293.95
2303.19
2309.09
2312.36
2313.58
2313.24
2311.93
2309.6
2306.81
2303.88
2300.7
2297.08
2293.15
2289.06
2284.7
2280.22
2275.76
2271.32
2266.88
2262.47
2258.11
2253.77
2249.46
2245.18
2240.91
2236.65
2232.41
2228.17
2223.94
2219.7
2215.47
2211.23
2206.98
2202.73
2198.46
2194.18
2189.89
2185.58
2181.26
2176.93
2172.6
2173.59
2213.79
2248.07
2276.39
2298.97
2316.31
2329.01
2337.71
2343.23
2346.2
2347.12
2346.56
2344.98
2342.43
2339.31
2336
2332.51
2328.77
2324.53
2320.15
2315.61
2310.86
2306.1
2301.35
2296.62
2291.91
2287.25
2282.61
2278
2273.42
2268.86
2264.32
2259.8
2255.29
2250.78
2246.28
2241.78
2237.28
2232.77
2228.26
2223.74
2219.21
2214.67
2210.11
2205.54
2200.94
2196.34
2191.71
2187.08
2182.43
2316.77
2337.71
2353.79
2365.53
2373.49
2378.47
2381.04
2381.53
2380.7
2378.82
2375.98
2372.51
2368.87
2365.06
2361.01
2356.56
2351.91
2347.17
2342.17
2337.09
2332.05
2327.03
2322.01
2317.03
2312.1
2307.2
2302.33
2297.48
2292.66
2287.85
2283.06
2278.28
2273.51
2268.74
2263.98
2259.22
2254.45
2249.68
2244.9
2240.11
2235.31
2230.49
2225.65
2220.8
2215.93
2211.04
2206.12
2201.19
2196.25
2191.29
2403.42
2410.51
2414.81
2416.83
2416.8
2415.65
2413.42
2410.23
2406.43
2402.47
2398.29
2393.91
2389.27
2384.32
2379.28
2374.07
2368.71
2363.38
2358.07
2352.75
2347.48
2342.26
2337.05
2331.88
2326.75
2321.64
2316.55
2311.48
2306.43
2301.38
2296.35
2291.32
2286.3
2281.28
2276.25
2271.22
2266.19
2261.14
2256.08
2251.01
2245.92
2240.81
2235.68
2230.53
2225.36
2220.17
2214.95
2209.71
2204.46
2199.19
2452.98
2451.38
2448.74
2445.17
2441.05
2436.71
2432.18
2427.48
2422.6
2417.36
2412.01
2406.57
2400.95
2395.31
2389.72
2384.13
2378.54
2373.02
2367.53
2362.07
2356.65
2351.25
2345.87
2340.52
2335.2
2329.88
2324.58
2319.29
2314.01
2308.73
2303.45
2298.17
2292.89
2287.6
2282.3
2276.98
2271.66
2266.32
2260.96
2255.58
2250.18
2244.76
2239.31
2233.84
2228.34
2222.82
2217.28
2211.72
2206.13
2480.77
2476.31
2471.59
2466.71
2461.66
2456.46
2450.99
2445.34
2439.65
2433.78
2427.83
2421.95
2416.08
2410.2
2404.39
2398.61
2392.86
2387.14
2381.46
2375.81
2370.19
2364.58
2358.99
2353.42
2347.87
2342.32
2336.79
2331.25
2325.72
2320.19
2314.65
2309.11
2303.57
2298.01
2292.43
2286.85
2281.24
2275.61
2269.97
2264.3
2258.61
2252.89
2247.14
2241.37
2235.57
2229.74
2223.89
2218.02
2212.12
2501.81
2496.42
2490.89
2485.17
2479.23
2473.23
2467.14
2460.92
2454.74
2448.6
2442.43
2436.32
2430.26
2424.22
2418.23
2412.27
2406.33
2400.43
2394.55
2388.69
2382.86
2377.04
2371.23
2365.43
2359.64
2353.86
2348.08
2342.3
2336.52
2330.73
2324.94
2319.13
2313.32
2307.49
2301.64
2295.77
2289.88
2283.97
2278.03
2272.07
2266.08
2260.07
2254.02
2247.95
2241.84
2235.71
2229.56
2223.39
2217.18
2513.64
2507.35
2500.99
2494.51
2488.04
2481.63
2475.2
2468.79
2462.46
2456.14
2449.86
2443.62
2437.41
2431.23
2425.08
2418.96
2412.85
2406.77
2400.7
2394.65
2388.6
2382.57
2376.54
2370.52
2364.49
2358.47
2352.44
2346.4
2340.36
2334.3
2328.23
2322.14
2316.03
2309.91
2303.76
2297.58
2291.38
2285.16
2278.9
2272.62
2266.3
2259.96
2253.58
2247.18
2240.75
2234.29
2227.81
2221.3
2528.59
2521.84
2515.15
2508.46
2501.77
2495.16
2488.58
2482.01
2475.5
2469.02
2462.57
2456.15
2449.76
2443.39
2437.05
2430.72
2424.41
2418.11
2411.83
2405.55
2399.28
2393.02
2386.75
2380.49
2374.22
2367.94
2361.66
2355.37
2349.06
2342.74
2336.4
2330.03
2323.65
2317.25
2310.81
2304.35
2297.87
2291.35
2284.8
2278.22
2271.61
2264.97
2258.29
2251.59
2244.86
2238.1
2231.32
2224.51
2535.22
2528.33
2521.49
2514.66
2507.88
2501.14
2494.42
2487.73
2481.08
2474.45
2467.84
2461.26
2454.7
2448.15
2441.61
2435.09
2428.58
2422.07
2415.57
2409.07
2402.57
2396.06
2389.55
2383.04
2376.51
2369.97
2363.42
2356.84
2350.25
2343.64
2337
2330.34
2323.66
2316.94
2310.19
2303.42
2296.61
2289.77
2282.89
2275.99
2269.05
2262.07
2255.07
2248.04
2240.99
2233.91
2226.8
2547.76
2540.71
2533.71
2526.73
2519.79
2512.88
2505.99
2499.13
2492.3
2485.48
2478.68
2471.9
2465.13
2458.38
2451.63
2444.89
2438.16
2431.43
2424.69
2417.96
2411.22
2404.47
2397.71
2390.95
2384.16
2377.37
2370.55
2363.71
2356.85
2349.96
2343.05
2336.11
2329.14
2322.14
2315.11
2308.04
2300.95
2293.81
2286.64
2279.44
2272.21
2264.94
2257.65
2250.32
2242.97
2235.61
2228.2
2552.28
2545.13
2537.99
2530.88
2523.79
2516.73
2509.69
2502.66
2495.65
2488.66
2481.68
2474.7
2467.74
2460.77
2453.81
2446.85
2439.89
2432.93
2425.95
2418.97
2411.98
2404.97
2397.95
2390.91
2383.85
2376.77
2369.66
2362.53
2355.37
2348.18
2340.96
2333.71
2326.43
2319.11
2311.76
2304.37
2296.94
2289.49
2281.99
2274.47
2266.91
2259.32
2251.7
2244.06
2236.4
2228.72
2563.05
2555.72
2548.42
2541.13
2533.87
2526.62
2519.39
2512.18
2504.97
2497.77
2490.58
2483.4
2476.21
2469.03
2461.85
2454.66
2447.46
2440.26
2433.05
2425.82
2418.58
2411.32
2404.04
2396.74
2389.42
2382.07
2374.7
2367.3
2359.86
2352.4
2344.9
2337.37
2329.8
2322.2
2314.56
2306.89
2299.17
2291.42
2283.64
2275.83
2267.98
2260.1
2252.21
2244.3
2236.38
2228.43
2572.98
2565.49
2558.01
2550.55
2543.1
2535.67
2528.24
2520.83
2513.42
2506.02
2498.61
2491.21
2483.81
2476.41
2469
2461.58
2454.15
2446.7
2439.25
2431.77
2424.28
2416.77
2409.23
2401.67
2394.09
2386.48
2378.83
2371.16
2363.45
2355.71
2347.93
2340.12
2332.27
2324.39
2316.46
2308.5
2300.5
2292.47
2284.4
2276.31
2268.2
2260.06
2251.9
2243.72
2235.53
2227.31
2582.09
2574.42
2566.76
2559.11
2551.48
2543.85
2536.23
2528.61
2521
2513.39
2505.77
2498.15
2490.53
2482.9
2475.26
2467.6
2459.93
2452.25
2444.55
2436.83
2429.08
2421.32
2413.52
2405.7
2397.85
2389.98
2382.06
2374.12
2366.14
2358.12
2350.07
2341.98
2333.85
2325.68
2317.47
2309.23
2300.97
2292.67
2284.33
2275.98
2267.6
2259.19
2250.76
2242.31
2233.85
2225.36
2590.35
2582.5
2574.66
2566.83
2559
2551.18
2543.35
2535.53
2527.71
2519.88
2512.05
2504.21
2496.36
2488.5
2480.63
2472.74
2464.83
2456.9
2448.96
2440.99
2432.99
2424.97
2416.92
2408.84
2400.72
2392.58
2384.4
2376.18
2367.93
2359.64
2351.31
2342.94
2334.54
2326.11
2317.64
2309.14
2300.6
2292.04
2283.44
2274.81
2266.16
2257.48
2248.78
2240.07
2231.36
2222.61
2597.77
2589.74
2581.71
2573.68
2565.66
2557.64
2549.61
2541.58
2533.55
2525.5
2517.45
2509.39
2501.31
2493.22
2485.11
2476.99
2468.84
2460.67
2452.47
2444.25
2436.01
2427.73
2419.42
2411.08
2402.7
2394.29
2385.85
2377.36
2368.83
2360.28
2351.69
2343.07
2334.41
2325.71
2316.98
2308.22
2299.41
2290.57
2281.71
2272.81
2263.89
2254.96
2246.01
2237.04
2228.08
2219.09
2604.34
2596.12
2587.9
2579.68
2571.46
2563.23
2555
2546.76
2538.51
2530.25
2521.97
2513.69
2505.38
2497.06
2488.71
2480.35
2471.96
2463.55
2455.1
2446.63
2438.13
2429.6
2421.04
2412.43
2403.79
2395.12
2386.42
2377.68
2368.9
2360.09
2351.25
2342.37
2333.44
2324.48
2315.48
2306.45
2297.38
2288.28
2279.16
2270.01
2260.84
2251.65
2242.45
2233.24
2224.04
2214.81
2601.65
2593.23
2584.81
2576.39
2567.96
2559.51
2551.06
2542.6
2534.11
2525.62
2517.1
2508.57
2500.01
2491.43
2482.83
2474.2
2465.54
2456.85
2448.13
2439.38
2430.59
2421.77
2412.92
2404.04
2395.12
2386.16
2377.18
2368.15
2359.08
2349.97
2340.83
2331.64
2322.42
2313.16
2303.87
2294.55
2285.2
2275.82
2266.42
2257
2247.57
2238.13
2228.69
2219.26
2209.81
2606.31
2597.7
2589.08
2580.45
2571.81
2563.16
2554.49
2545.81
2537.11
2528.39
2519.65
2510.88
2502.09
2493.27
2484.43
2475.56
2466.65
2457.71
2448.75
2439.76
2430.74
2421.67
2412.58
2403.46
2394.29
2385.08
2375.84
2366.55
2357.23
2347.86
2338.46
2329.02
2319.55
2310.04
2300.5
2290.93
2281.33
2271.71
2262.07
2252.41
2242.75
2233.08
2223.42
2213.76
2204.1
2610.12
2601.31
2592.49
2583.65
2574.8
2565.94
2557.05
2548.15
2539.23
2530.28
2521.31
2512.31
2503.29
2494.23
2485.16
2476.05
2466.92
2457.75
2448.55
2439.33
2430.06
2420.76
2411.42
2402.04
2392.62
2383.16
2373.66
2364.13
2354.55
2344.94
2335.29
2325.61
2315.89
2306.13
2296.35
2286.54
2276.71
2266.85
2256.98
2247.1
2237.21
2227.33
2217.44
2207.58
2197.71
2604.05
2595.02
2585.98
2576.92
2567.84
2558.74
2549.62
2540.47
2531.3
2522.1
2512.88
2503.64
2494.36
2485.06
2475.73
2466.36
2456.97
2447.53
2438.06
2428.55
2419
2409.41
2399.79
2390.13
2380.43
2370.68
2360.9
2351.09
2341.23
2331.34
2321.42
2311.46
2301.47
2291.45
2281.41
2271.35
2261.27
2251.18
2241.08
2230.97
2220.88
2210.79
2200.73
2190.66
2605.92
2596.7
2587.44
2578.17
2568.87
2559.55
2550.22
2540.86
2531.48
2522.06
2512.63
2503.16
2493.67
2484.14
2474.57
2464.97
2455.34
2445.66
2435.95
2426.2
2416.42
2406.59
2396.73
2386.83
2376.89
2366.91
2356.9
2346.84
2336.76
2326.63
2316.48
2306.29
2296.07
2285.83
2275.56
2265.28
2254.98
2244.68
2234.37
2224.06
2213.77
2203.49
2193.23
2182.98
2606.93
2597.49
2588.04
2578.57
2569.07
2559.54
2550
2540.44
2530.84
2521.21
2511.55
2501.86
2492.13
2482.37
2472.58
2462.74
2452.88
2442.97
2433.03
2423.05
2413.03
2402.98
2392.88
2382.75
2372.58
2362.37
2352.13
2341.85
2331.53
2321.18
2310.8
2300.39
2289.96
2279.5
2269.02
2258.53
2248.02
2237.51
2227.01
2216.51
2206.02
2195.56
2185.12
2174.7
2607.11
2597.47
2587.82
2578.15
2568.45
2558.72
2548.96
2539.18
2529.36
2519.51
2509.63
2499.71
2489.76
2479.78
2469.76
2459.71
2449.61
2439.48
2429.32
2419.11
2408.87
2398.58
2388.26
2377.91
2367.51
2357.08
2346.61
2336.11
2325.58
2315.01
2304.42
2293.8
2283.15
2272.48
2261.8
2251.11
2240.41
2229.7
2219.01
2208.32
2197.66
2187.02
2176.42
2165.83
2596.64
2586.78
2576.9
2566.99
2557.05
2547.08
2537.08
2527.05
2516.98
2506.89
2496.75
2486.59
2476.38
2466.15
2455.87
2445.56
2435.21
2424.82
2414.39
2403.93
2393.43
2382.89
2372.32
2361.71
2351.06
2340.38
2329.67
2318.92
2308.15
2297.35
2286.52
2275.68
2264.81
2253.93
2243.05
2232.16
2221.27
2210.4
2199.54
2188.71
2177.9
2167.14
2156.4
2594.96
2584.9
2574.81
2564.7
2554.55
2544.37
2534.16
2523.92
2513.65
2503.34
2492.99
2482.61
2472.2
2461.74
2451.25
2440.73
2430.17
2419.56
2408.93
2398.25
2387.54
2376.79
2366.01
2355.19
2344.33
2333.45
2322.53
2311.58
2300.61
2289.61
2278.59
2267.55
2256.5
2245.44
2234.37
2223.31
2212.25
2201.2
2190.18
2179.19
2168.23
2157.32
2146.44
2592.44
2582.19
2571.9
2561.58
2551.24
2540.86
2530.44
2519.99
2509.51
2499
2488.45
2477.86
2467.24
2456.58
2445.88
2435.15
2424.38
2413.57
2402.72
2391.84
2380.93
2369.98
2358.99
2347.97
2336.92
2325.84
2314.72
2303.58
2292.42
2281.24
2270.03
2258.81
2247.58
2236.34
2225.1
2213.87
2202.65
2191.45
2180.27
2169.13
2158.04
2146.99
2135.98
2578.66
2568.18
2557.67
2547.12
2536.54
2525.93
2515.28
2504.6
2493.88
2483.13
2472.34
2461.52
2450.66
2439.76
2428.83
2417.86
2406.85
2395.81
2384.73
2373.62
2362.47
2351.29
2340.08
2328.84
2317.57
2306.27
2294.95
2283.61
2272.24
2260.86
2249.47
2238.07
2226.67
2215.27
2203.88
2192.51
2181.16
2169.84
2158.57
2147.35
2136.18
2125.05
2574.34
2563.67
2552.96
2542.22
2531.45
2520.64
2509.8
2498.93
2488.02
2477.07
2466.09
2455.07
2444.01
2432.92
2421.79
2410.63
2399.43
2388.2
2376.93
2365.63
2354.3
2342.94
2331.54
2320.12
2308.67
2297.2
2285.7
2274.19
2262.66
2251.11
2239.56
2228
2216.45
2204.9
2193.36
2181.85
2170.37
2158.92
2147.52
2136.17
2124.89
2113.65
2569.23
2558.37
2547.48
2536.56
2525.6
2514.6
2503.57
2492.51
2481.41
2470.27
2459.1
2447.89
2436.65
2425.38
2414.06
2402.72
2391.34
2379.92
2368.48
2357
2345.49
2333.95
2322.38
2310.79
2299.17
2287.53
2275.87
2264.2
2252.51
2240.81