/*--------------------------------*- C++ -*----------------------------------*\
| =========                 |                                                 |
| \\      /  F ield         | OpenFOAM: The Open Source CFD Toolbox           |
|  \\    /   O peration     | Version:  v1706                                 |
|   \\  /    A nd           | Web:      www.OpenFOAM.com                      |
|    \\/     M anipulation  |                                                 |
\*---------------------------------------------------------------------------*/
FoamFile
{
    version     2.0;
    format      ascii;
    class       volScalarField;
    location    "1.2e-05";
    object      Tv;
}
// * * * * * * * * * * * * * * * * * * * * * * * * * * * * * * * * * * * * * //

dimensions      [0 0 0 1 0 0 0];


internalField   nonuniform List<scalar> 
30038
(
144.4
144.4
144.4
144.4
144.4
144.4
144.4
144.4
144.4
144.4
144.4
144.4
144.4
144.4
144.4
144.4
144.4
144.4
144.4
144.4
144.4
144.4
144.4
144.4
144.4
144.4
144.4
144.4
144.4
144.4
144.4
144.4
144.4
144.4
144.4
144.4
144.4
144.4
144.4
144.4
144.4
144.4
144.4
144.4
144.4
144.4
144.4
144.4
144.4
144.4
144.4
144.4
144.4
144.4
144.4
144.4
144.4
144.4
144.4
144.4
144.4
144.4
144.4
144.4
144.4
144.4
144.4
144.4
144.4
144.4
144.4
144.4
144.4
144.4
144.4
144.4
144.4
144.4
144.4
144.4
144.4
144.4
144.4
144.4
144.4
144.4
144.4
144.4
144.4
144.4
144.4
144.4
144.4
144.4
144.4
144.4
144.4
144.4
144.4
144.4
144.4
144.4
144.4
144.4
144.4
144.4
144.4
144.4
144.4
144.4
144.4
144.4
144.4
144.4
144.4
144.4
144.4
144.4
144.4
144.4
144.4
144.4
144.4
144.4
144.4
144.4
144.4
144.4
144.4
144.4
144.4
144.4
144.4
144.4
144.4
144.4
144.4
144.4
144.4
144.4
144.4
144.4
144.4
144.4
144.4
144.4
144.4
144.4
144.4
144.4
144.4
144.4
144.4
144.4
144.4
144.4
144.4
144.4
144.4
144.4
144.4
144.4
144.4
144.4
144.4
144.4
144.4
144.4
144.4
144.4
144.4
144.4
144.4
144.4
144.4
144.4
144.4
144.4
144.4
144.4
144.4
144.4
144.4
144.4
144.4
144.4
144.4
144.4
144.4
144.4
144.4
144.4
144.4
144.4
144.4
144.4
144.4
144.4
144.4
144.4
144.4
144.4
144.4
144.4
144.4
144.4
144.4
144.4
144.4
144.4
144.4
144.4
144.4
144.4
144.4
144.4
144.4
144.4
144.4
144.4
144.4
144.4
144.4
144.4
144.4
144.4
144.4
144.4
144.4
144.4
144.4
144.4
144.4
144.4
144.4
144.4
144.4
144.4
144.4
144.4
144.4
144.4
144.4
144.4
144.4
144.4
144.4
144.4
144.4
144.4
144.4
144.4
144.4
144.4
144.4
144.4
144.4
144.4
144.4
144.4
144.4
144.4
144.4
144.4
144.4
144.4
144.4
144.4
144.4
144.4
144.4
144.4
144.4
144.4
144.4
144.4
144.4
144.4
144.4
144.4
144.4
144.4
144.4
144.4
144.4
144.4
144.4
144.4
144.4
144.4
144.4
144.4
144.4
144.4
144.4
144.4
144.4
144.4
144.4
144.4
144.4
144.4
144.4
144.4
144.4
144.4
144.4
144.4
144.4
144.4
144.4
144.4
144.4
144.4
144.4
144.4
144.4
144.4
144.4
144.4
144.4
144.4
144.4
144.4
144.4
144.4
144.4
144.4
144.4
144.4
144.4
144.4
144.4
144.4
144.4
144.4
144.4
144.4
144.4
144.4
144.4
144.4
144.4
144.4
144.4
144.4
144.4
144.4
144.4
144.4
144.4
144.4
144.4
144.4
144.4
144.4
144.4
144.4
144.4
144.4
144.4
144.4
144.4
144.4
144.4
144.4
144.4
144.4
144.4
144.4
144.4
144.4
144.4
144.4
144.4
144.4
144.4
144.4
144.4
144.4
144.4
144.4
144.4
144.4
144.4
144.4
144.4
144.4
144.4
144.4
144.4
144.4
144.4
144.4
144.4
144.4
144.4
144.4
144.4
144.4
144.4
144.4
144.4
144.4
144.4
144.4
144.4
144.4
144.4
144.4
144.4
144.4
144.4
144.4
144.4
144.4
144.4
144.4
144.4
144.4
144.4
144.4
144.4
144.4
144.4
144.4
144.4
144.4
144.4
144.4
144.4
144.4
144.4
144.4
144.4
144.4
144.4
144.4
144.4
144.4
144.4
144.4
144.4
144.4
144.4
144.4
144.4
144.4
144.4
144.4
144.4
144.4
144.4
144.4
144.4
144.4
144.4
144.4
144.4
144.4
144.4
144.4
144.4
144.4
144.4
144.4
144.4
144.4
144.4
144.4
144.4
144.4
144.4
144.4
144.4
144.4
144.4
144.4
144.4
144.4
144.4
144.4
144.4
144.4
144.4
144.4
144.4
144.4
144.4
144.4
144.4
144.4
144.4
144.4
144.4
144.4
144.4
144.4
144.4
144.4
144.4
144.4
144.4
144.4
144.4
144.4
144.4
144.4
144.4
144.4
144.4
144.4
144.4
144.4
144.4
144.4
144.4
144.4
144.4
144.4
144.4
144.4
144.4
144.4
144.4
144.4
144.4
144.4
144.4
144.4
144.4
144.4
144.4
144.4
144.4
144.4
144.4
144.4
144.4
144.4
144.4
144.4
144.4
144.4
144.4
144.4
144.4
144.4
144.4
144.4
144.4
144.4
144.4
144.4
144.4
144.4
144.4
144.4
144.4
144.4
144.4
144.4
144.4
144.4
144.4
144.4
144.4
144.4
144.4
144.4
144.4
144.4
144.4
144.4
144.4
144.4
144.4
144.4
144.4
144.4
144.4
144.4
144.4
144.4
144.4
144.4
144.4
144.4
144.4
144.4
144.4
144.4
144.4
144.4
144.4
144.4
144.4
144.4
144.4
144.4
144.4
144.4
144.4
144.4
144.4
144.4
144.4
144.4
144.4
144.4
144.4
144.4
144.4
144.4
144.4
144.4
144.4
144.4
144.4
144.4
144.4
144.4
144.4
144.4
144.4
144.4
144.4
144.4
144.4
144.4
144.4
144.4
144.4
144.4
144.4
144.4
144.4
144.4
144.4
144.4
144.4
144.4
144.4
144.4
144.4
144.4
144.4
144.4
144.4
144.4
144.4
144.4
144.4
144.4
144.4
144.4
144.4
144.4
144.4
144.4
144.4
144.4
144.4
144.4
144.4
144.4
144.4
144.4
144.4
144.4
144.4
144.4
144.4
144.4
144.4
144.4
144.4
144.4
144.4
144.4
144.4
144.4
144.4
144.4
144.4
144.4
144.4
144.4
144.4
144.4
144.4
144.4
144.4
144.4
144.4
144.4
144.4
144.4
144.4
144.4
144.4
144.4
144.4
144.4
144.4
144.4
144.4
144.4
144.4
144.4
144.4
144.4
144.4
144.4
144.4
144.4
144.4
144.4
144.4
144.4
144.4
144.4
144.4
144.4
144.4
144.4
144.4
144.4
144.4
144.4
144.4
144.4
144.4
144.4
144.4
144.4
144.4
144.4
144.4
144.4
144.4
144.4
144.4
144.4
144.4
144.4
144.4
144.4
144.4
144.4
144.4
144.4
144.4
144.4
144.4
144.4
144.4
144.4
144.4
144.4
144.4
144.4
144.4
144.4
144.4
144.4
144.4
144.4
144.4
144.4
144.4
144.4
144.4
144.4
144.4
144.4
144.4
144.4
144.4
144.4
144.4
144.4
144.4
144.4
144.4
144.4
144.4
144.4
144.4
144.4
144.4
144.4
144.4
144.4
144.4
144.4
144.4
144.4
144.4
144.4
144.4
144.4
144.4
144.4
144.4
144.4
144.4
144.4
144.4
144.4
144.4
144.4
144.4
144.4
144.4
144.4
144.4
144.4
144.4
144.4
144.4
144.4
144.4
144.4
144.4
144.4
144.4
144.4
144.4
144.4
144.4
144.4
144.4
144.4
144.4
144.4
144.4
144.4
144.4
144.4
144.4
144.4
144.4
144.4
144.4
144.4
144.4
144.4
144.4
144.4
144.4
144.4
144.4
144.4
144.4
144.4
144.4
144.4
144.4
144.4
144.4
144.4
144.4
144.4
144.4
144.4
144.4
144.4
144.4
144.4
144.4
144.4
144.4
144.4
144.4
144.4
144.4
144.4
144.4
144.4
144.4
144.4
144.4
144.4
144.4
144.4
144.4
144.4
144.4
144.4
144.4
144.4
144.4
144.4
144.4
144.4
144.4
144.4
144.4
144.4
144.4
144.4
144.4
144.4
144.4
144.4
144.4
144.4
144.4
144.4
144.4
144.4
144.4
144.4
144.4
144.4
144.4
144.4
144.4
144.4
144.4
144.4
144.4
144.4
144.4
144.4
144.4
144.4
144.4
144.4
144.4
144.4
144.4
144.4
144.4
144.4
144.4
144.4
144.4
144.4
144.4
144.4
144.4
144.4
144.4
144.4
144.4
144.4
144.4
144.4
144.4
144.4
144.4
144.4
144.4
144.4
144.4
144.4
144.4
144.4
144.4
144.4
144.4
144.4
144.4
144.4
144.4
144.4
144.4
144.4
144.4
144.4
144.4
144.4
144.4
144.4
144.4
144.4
144.4
144.4
144.4
144.4
144.4
144.4
144.4
144.4
144.4
144.4
144.4
144.4
144.4
144.4
144.4
144.4
144.4
144.4
144.4
144.4
144.4
144.4
144.4
144.4
144.4
144.4
144.4
144.4
144.4
144.4
144.4
144.4
144.4
144.4
144.4
144.4
144.4
144.4
144.4
144.4
144.4
144.4
144.4
144.4
144.4
144.4
144.4
144.4
144.4
144.4
144.4
144.4
144.4
144.4
144.4
144.4
144.4
144.4
144.4
144.4
144.4
144.4
144.4
144.4
144.4
144.4
144.4
144.4
144.4
144.4
144.4
144.4
144.4
144.4
144.4
144.4
144.4
144.4
144.4
144.4
144.4
144.4
144.4
144.4
144.4
144.4
144.4
144.4
144.4
144.4
144.4
144.4
144.4
144.4
144.4
144.4
144.4
144.4
144.4
144.4
144.4
144.4
144.4
144.4
144.4
144.4
144.4
144.4
144.4
144.4
144.4
144.4
144.4
144.4
144.4
144.4
144.4
144.4
144.4
144.4
144.4
144.4
144.4
144.4
144.4
144.4
144.4
144.4
144.4
144.4
144.4
144.4
144.4
144.4
144.4
144.4
144.4
144.4
144.4
144.4
144.4
144.4
144.4
144.4
144.4
144.4
144.4
144.4
144.4
144.4
144.4
144.4
144.4
144.4
144.4
144.4
144.4
144.4
144.4
144.4
144.4
144.4
144.4
144.4
144.4
144.4
144.4
144.4
144.4
144.4
144.4
144.4
144.4
144.4
144.4
144.4
144.4
144.4
144.4
144.4
144.4
144.4
144.4
144.4
144.4
144.4
144.4
144.4
144.4
144.4
144.4
144.4
144.4
144.4
144.4
144.4
144.4
144.4
144.4
144.4
144.4
144.4
144.4
144.4
144.4
144.4
144.4
144.4
144.4
144.4
144.4
144.4
144.4
144.4
144.4
144.4
144.4
144.4
144.4
144.4
144.4
144.4
144.4
144.4
144.4
144.4
144.4
144.4
144.4
144.4
144.4
144.4
144.4
144.4
144.4
144.4
144.4
144.4
144.4
144.4
144.4
144.4
144.4
144.4
144.4
144.4
144.4
144.4
144.4
144.4
144.4
144.4
144.4
144.4
144.4
144.4
144.4
144.4
144.4
144.4
144.4
144.4
144.4
144.4
144.4
144.4
144.4
144.4
144.4
144.4
144.4
144.4
144.4
144.4
144.4
144.4
144.4
144.4
144.4
144.4
144.4
144.4
144.4
144.4
144.4
144.4
144.4
144.4
144.4
144.4
144.4
144.4
144.4
144.4
144.4
144.4
144.4
144.4
144.4
144.4
144.4
144.4
144.4
144.4
144.4
144.4
144.4
144.4
144.4
144.4
144.4
144.401
144.401
144.403
144.4
144.4
144.4
144.4
144.4
144.4
144.4
144.4
144.4
144.4
144.4
144.4
144.4
144.4
144.4
144.4
144.4
144.4
144.4
144.4
144.4
144.4
144.4
144.4
144.4
144.4
144.4
144.4
144.4
144.4
144.4
144.4
144.4
144.4
144.4
144.4
144.4
144.4
144.4
144.4
144.4
144.4
144.4
144.4
144.401
144.401
144.403
144.406
144.413
144.432
144.4
144.4
144.4
144.4
144.4
144.4
144.4
144.4
144.4
144.4
144.4
144.4
144.4
144.4
144.4
144.4
144.4
144.4
144.4
144.4
144.4
144.4
144.4
144.4
144.4
144.4
144.4
144.4
144.4
144.4
144.4
144.4
144.4
144.4
144.4
144.4
144.4
144.4
144.4
144.4
144.4
144.401
144.401
144.403
144.406
144.413
144.427
144.458
144.523
144.686
144.4
144.4
144.4
144.4
144.4
144.4
144.4
144.4
144.4
144.4
144.4
144.4
144.4
144.4
144.4
144.4
144.4
144.4
144.4
144.4
144.4
144.4
144.4
144.4
144.4
144.4
144.4
144.4
144.4
144.4
144.4
144.4
144.4
144.4
144.4
144.4
144.4
144.4
144.401
144.402
144.403
144.407
144.414
144.428
144.458
144.519
144.647
144.909
145.444
146.605
144.4
144.4
144.4
144.4
144.4
144.4
144.4
144.4
144.4
144.4
144.4
144.4
144.4
144.4
144.4
144.4
144.4
144.4
144.4
144.4
144.4
144.4
144.4
144.4
144.4
144.4
144.4
144.4
144.4
144.4
144.4
144.4
144.4
144.4
144.4
144.401
144.402
144.404
144.407
144.415
144.43
144.46
144.522
144.648
144.902
145.401
146.339
147.976
150.576
154.516
144.4
144.4
144.4
144.4
144.4
144.4
144.4
144.4
144.4
144.4
144.4
144.4
144.4
144.4
144.4
144.4
144.4
144.4
144.4
144.4
144.4
144.4
144.4
144.4
144.4
144.4
144.4
144.4
144.4
144.4
144.4
144.401
144.401
144.402
144.404
144.408
144.416
144.433
144.465
144.53
144.659
144.915
145.409
146.325
147.9
150.348
153.748
158.027
163.076
169.031
144.4
144.4
144.4
144.4
144.4
144.4
144.4
144.4
144.4
144.4
144.4
144.4
144.4
144.4
144.4
144.4
144.4
144.4
144.4
144.4
144.4
144.4
144.4
144.4
144.4
144.4
144.4
144.4
144.401
144.401
144.403
144.405
144.41
144.419
144.437
144.472
144.542
144.679
144.945
145.451
146.371
147.93
150.324
153.627
157.766
162.601
167.995
173.839
180.056
186.704
144.4
144.4
144.4
144.4
144.4
144.4
144.4
144.4
144.4
144.4
144.4
144.4
144.4
144.4
144.4
144.4
144.4
144.4
144.4
144.4
144.4
144.4
144.4
144.4
144.4
144.401
144.402
144.403
144.406
144.412
144.423
144.443
144.484
144.561
144.711
144.998
145.531
146.481
148.059
150.444
153.697
157.748
162.465
167.721
173.408
179.423
185.659
191.995
198.329
204.628
144.4
144.4
144.4
144.4
144.4
144.4
144.4
144.4
144.4
144.4
144.4
144.4
144.4
144.4
144.4
144.4
144.4
144.4
144.4
144.4
144.4
144.401
144.401
144.402
144.404
144.408
144.415
144.428
144.453
144.5
144.589
144.759
145.077
145.655
146.662
148.295
150.712
153.955
157.952
162.583
167.728
173.291
179.178
185.288
191.503
197.701
203.771
209.629
215.242
220.626
144.4
144.4
144.4
144.4
144.4
144.4
144.4
144.4
144.4
144.4
144.4
144.4
144.4
144.4
144.4
144.4
144.4
144.401
144.401
144.402
144.403
144.406
144.41
144.419
144.435
144.466
144.523
144.63
144.828
145.191
145.836
146.929
148.652
151.138
154.406
158.382
162.951
168.009
173.465
179.237
185.232
191.341
197.448
203.444
209.241
214.78
220.036
225.011
229.739
234.269
144.4
144.4
144.4
144.4
144.4
144.4
144.4
144.4
144.4
144.4
144.4
144.4
144.4
144.4
144.401
144.401
144.402
144.404
144.408
144.414
144.426
144.447
144.486
144.557
144.688
144.927
145.352
146.09
147.301
149.151
151.739
155.063
159.044
163.575
168.564
173.93
179.599
185.485
191.488
197.499
203.416
209.15
214.642
219.862
224.804
229.477
233.906
238.121
242.168
246.098
144.4
144.4
144.4
144.4
144.4
144.4
144.4
144.4
144.4
144.4
144.401
144.401
144.402
144.404
144.406
144.411
144.42
144.436
144.464
144.515
144.607
144.773
145.068
145.581
146.442
147.808
149.817
152.538
155.943
159.95
164.462
169.399
174.689
180.266
186.05
191.947
197.858
203.684
209.341
214.772
219.944
224.848
229.491
233.892
238.075
242.066
245.892
249.579
253.168
256.716
144.4
144.4
144.4
144.4
144.4
144.4
144.401
144.401
144.402
144.403
144.405
144.409
144.416
144.429
144.451
144.49
144.559
144.682
144.897
145.271
145.903
146.925
148.484
150.685
153.561
157.065
161.114
165.622
170.521
175.749
181.243
186.93
192.723
198.529
204.254
209.822
215.176
220.283
225.134
229.733
234.096
238.245
242.205
245.999
249.649
253.177
256.604
259.947
263.237
266.535
144.4
144.4
144.4
144.401
144.401
144.402
144.403
144.405
144.409
144.415
144.425
144.443
144.475
144.531
144.627
144.794
145.082
145.566
146.357
147.585
149.374
151.793
154.839
158.452
162.553
167.069
171.941
177.115
182.534
188.129
193.819
199.515
205.132
210.598
215.86
220.887
225.669
230.209
234.521
238.625
242.544
246.299
249.912
253.404
256.792
260.093
263.32
266.484
269.59
272.654
275.738
144.401
144.402
144.403
144.405
144.408
144.414
144.423
144.44
144.467
144.515
144.596
144.734
144.968
145.36
145.997
146.995
148.475
150.527
153.18
156.403
160.128
164.286
168.817
173.67
178.798
184.148
189.654
195.239
200.821
206.321
211.673
216.829
221.761
226.459
230.925
235.173
239.22
243.086
246.794
250.362
253.811
257.156
260.415
263.6
266.722
269.786
272.796
275.75
278.646
281.489
284.344
144.405
144.408
144.414
144.423
144.439
144.464
144.507
144.58
144.701
144.904
145.239
145.78
146.625
147.886
149.66
151.996
154.886
158.281
162.116
166.332
170.881
175.721
180.808
186.092
191.509
196.986
202.448
207.822
213.049
218.086
222.909
227.508
231.887
236.058
240.035
243.839
247.49
251.005
254.403
257.7
260.912
264.05
267.126
270.146
273.114
276.031
278.892
281.694
284.433
287.109
289.729
292.359
144.44
144.465
144.507
144.576
144.69
144.877
145.18
145.664
146.414
147.531
149.108
151.204
153.829
156.947
160.502
164.439
168.711
173.279
178.108
183.155
188.372
193.697
199.062
204.396
209.635
214.725
219.631
224.332
228.82
233.098
237.178
241.076
244.807
248.39
251.844
255.185
258.428
261.587
264.674
267.699
270.671
273.594
276.468
279.291
282.059
284.768
287.416
290
292.523
294.988
297.406
299.837
144.698
144.881
145.172
145.629
146.329
147.361
148.812
150.743
153.169
156.068
159.392
163.09
167.119
171.442
176.028
180.844
185.85
190.996
196.224
201.468
206.665
211.757
216.7
221.463
226.029
230.393
234.559
238.538
242.343
245.992
249.5
252.885
256.161
259.343
262.443
265.474
268.446
271.366
274.238
277.065
279.845
282.574
285.249
287.865
290.421
292.916
295.353
297.734
300.063
302.343
304.586
306.846
146.355
147.352
148.739
150.569
152.862
155.6
158.743
162.246
166.069
170.178
174.545
179.144
183.943
188.901
193.968
199.089
204.202
209.25
214.185
218.969
223.577
227.997
232.225
236.268
240.135
243.839
247.396
250.821
254.128
257.333
260.448
263.485
266.455
269.368
272.232
275.05
277.826
280.558
283.244
285.879
288.46
290.983
293.447
295.854
298.204
300.504
302.754
304.957
307.119
309.242
311.335
313.447
152.884
155.516
158.528
161.878
165.531
169.459
173.635
178.039
182.643
187.415
192.314
197.29
202.29
207.258
212.146
216.912
221.525
225.967
230.23
234.314
238.223
241.969
245.563
249.02
252.353
255.576
258.703
261.745
264.713
267.619
270.469
273.272
276.033
278.753
281.434
284.072
286.663
289.204
291.69
294.12
296.494
298.812
301.079
303.297
305.468
307.597
309.687
311.739
313.757
315.744
317.708
319.692
165.488
169.266
173.28
177.512
181.939
186.536
191.267
196.091
200.959
205.821
210.629
215.342
219.926
224.358
228.625
232.722
236.651
240.419
244.035
247.511
250.861
254.096
257.228
260.271
263.235
266.131
268.966
271.75
274.489
277.188
279.85
282.475
285.062
287.605
290.101
292.547
294.938
297.275
299.559
301.79
303.974
306.112
308.206
310.261
312.279
314.263
316.214
318.135
320.029
321.897
323.748
325.621
181.822
186.258
190.829
195.5
200.226
204.965
209.67
214.301
218.824
223.214
227.455
231.538
235.461
239.229
242.849
246.329
249.681
252.917
256.048
259.085
262.039
264.92
267.738
270.499
273.213
275.884
278.519
281.119
283.685
286.215
288.707
291.155
293.555
295.905
298.202
300.448
302.642
304.788
306.889
308.947
310.966
312.948
314.895
316.81
318.696
320.553
322.385
324.192
325.977
327.741
329.492
331.264
204.708
209.293
213.819
218.256
222.576
226.762
230.803
234.694
238.439
242.04
245.505
248.844
252.067
255.185
258.206
261.143
264.003
266.797
269.533
272.218
274.858
277.459
280.026
282.561
285.065
287.536
289.972
292.367
294.719
297.023
299.277
301.481
303.635
305.742
307.804
309.824
311.804
313.747
315.657
317.534
319.382
321.202
322.996
324.766
326.514
328.24
329.947
331.634
333.305
334.965
336.645
222.472
226.577
230.549
234.384
238.08
241.64
245.071
248.379
251.573
254.663
257.658
260.567
263.399
266.163
268.867
271.517
274.121
276.685
279.213
281.709
284.177
286.615
289.025
291.401
293.741
296.041
298.296
300.503
302.662
304.773
306.838
308.858
310.837
312.777
314.68
316.55
318.388
320.196
321.977
323.732
325.464
327.173
328.861
330.529
332.179
333.812
335.427
337.027
338.612
340.187
341.782
238.182
241.679
245.054
248.312
251.46
254.508
257.462
260.332
263.126
265.851
268.515
271.125
273.688
276.209
278.693
281.145
283.569
285.967
288.338
290.682
292.997
295.279
297.522
299.724
301.881
303.993
306.058
308.078
310.054
311.99
313.887
315.748
317.576
319.372
321.14
322.88
324.595
326.286
327.955
329.603
331.233
332.844
334.437
336.015
337.576
339.123
340.655
342.173
343.679
345.176
346.691
254.739
257.639
260.457
263.201
265.877
268.493
271.055
273.57
276.043
278.479
280.882
283.256
285.606
287.931
290.233
292.51
294.76
296.98
299.165
301.311
303.415
305.475
307.491
309.463
311.393
313.283
315.135
316.952
318.736
320.49
322.214
323.912
325.585
327.234
328.862
330.469
332.058
333.629
335.182
336.72
338.243
339.751
341.245
342.726
344.193
345.647
347.089
348.52
349.943
351.383
266.256
268.815
271.321
273.78
276.198
278.58
280.929
283.249
285.545
287.817
290.069
292.299
294.507
296.691
298.846
300.969
303.056
305.104
307.11
309.075
310.997
312.877
314.719
316.524
318.295
320.033
321.741
323.421
325.075
326.704
328.31
329.895
331.46
333.006
334.535
336.048
337.545
339.028
340.496
341.951
343.393
344.822
346.239
347.643
349.036
350.417
351.787
353.146
354.499
355.867
276.685
279.006
281.295
283.556
285.793
288.008
290.203
292.379
294.536
296.674
298.788
300.877
302.936
304.962
306.95
308.9
310.809
312.678
314.507
316.298
318.054
319.776
321.466
323.127
324.761
326.369
327.952
329.514
331.055
332.576
334.079
335.565
337.035
338.49
339.931
341.358
342.773
344.175
345.564
346.943
348.309
349.665
351.009
352.342
353.665
354.976
356.278
357.569
358.854
360.153
286.358
288.51
290.644
292.76
294.86
296.943
299.008
301.052
303.073
305.065
307.027
308.953
310.843
312.695
314.508
316.283
318.021
319.725
321.397
323.038
324.65
326.235
327.795
329.332
330.848
332.343
333.818
335.277
336.718
338.145
339.557
340.955
342.34
343.712
345.073
346.422
347.76
349.087
350.404
351.71
353.006
354.292
355.568
356.833
358.089
359.334
360.569
361.796
363.016
364.249
295.487
297.51
299.518
301.509
303.481
305.431
307.356
309.251
311.113
312.941
314.733
316.488
318.206
319.889
321.54
323.158
324.747
326.308
327.844
329.355
330.844
332.311
333.759
335.188
336.6
337.997
339.378
340.745
342.099
343.441
344.77
346.088
347.396
348.693
349.979
351.256
352.523
353.78
355.028
356.266
357.495
358.715
359.925
361.126
362.317
363.498
364.671
365.834
366.992
368.16
304.175
306.074
307.952
309.806
311.633
313.429
315.193
316.921
318.616
320.276
321.902
323.496
325.06
326.595
328.104
329.588
331.048
332.486
333.905
335.304
336.685
338.05
339.4
340.735
342.056
343.365
344.662
345.947
347.222
348.486
349.741
350.986
352.221
353.447
354.665
355.873
357.073
358.264
359.447
360.62
361.785
362.942
364.089
365.227
366.357
367.477
368.588
369.691
370.788
371.895
312.415
314.172
315.899
317.596
319.26
320.892
322.491
324.058
325.594
327.101
328.581
330.036
331.466
332.874
334.261
335.629
336.978
338.31
339.626
340.928
342.215
343.49
344.752
346.003
347.243
348.474
349.694
350.905
352.107
353.3
354.485
355.661
356.829
357.989
359.141
360.286
361.422
362.55
363.67
364.782
365.885
366.981
368.068
369.146
370.215
371.276
372.328
373.372
374.41
375.457
321.748
323.315
324.851
326.356
327.832
329.282
330.704
332.103
333.479
334.833
336.167
337.483
338.78
340.062
341.329
342.581
343.819
345.046
346.261
347.466
348.66
349.844
351.019
352.185
353.343
354.493
355.635
356.769
357.896
359.016
360.128
361.232
362.329
363.419
364.502
365.577
366.645
367.705
368.758
369.802
370.839
371.867
372.887
373.899
374.902
375.897
376.884
377.865
378.854
328.796
330.211
331.6
332.964
334.305
335.624
336.923
338.203
339.466
340.711
341.941
343.156
344.358
345.548
346.725
347.892
349.048
350.195
351.333
352.462
353.583
354.696
355.801
356.899
357.991
359.075
360.152
361.223
362.287
363.345
364.395
365.439
366.477
367.507
368.531
369.548
370.558
371.56
372.555
373.542
374.522
375.494
376.458
377.414
378.361
379.3
380.232
381.158
382.09
335.358
336.64
337.902
339.144
340.369
341.576
342.768
343.945
345.109
346.26
347.398
348.526
349.643
350.751
351.85
352.94
354.022
355.096
356.164
357.224
358.278
359.325
360.365
361.4
362.428
363.451
364.467
365.478
366.482
367.481
368.473
369.46
370.44
371.413
372.38
373.34
374.294
375.241
376.18
377.112
378.037
378.954
379.864
380.765
381.658
382.543
383.421
384.293
385.17
342.661
343.814
344.951
346.074
347.185
348.284
349.371
350.448
351.515
352.573
353.623
354.665
355.699
356.726
357.747
358.761
359.769
360.771
361.768
362.759
363.744
364.724
365.698
366.668
367.632
368.59
369.543
370.491
371.433
372.369
373.3
374.225
375.143
376.055
376.961
377.861
378.753
379.639
380.518
381.389
382.253
383.109
383.958
384.799
385.631
386.456
387.276
388.1
348.326
349.383
350.429
351.464
352.489
353.506
354.513
355.514
356.506
357.492
358.471
359.445
360.412
361.374
362.33
363.281
364.228
365.169
366.106
367.038
367.965
368.887
369.805
370.718
371.626
372.529
373.427
374.32
375.208
376.09
376.967
377.838
378.704
379.563
380.416
381.263
382.104
382.937
383.764
384.583
385.396
386.2
386.998
387.787
388.568
389.342
390.111
390.883
354.648
355.613
356.57
357.52
358.463
359.4
360.331
361.256
362.176
363.091
364.001
364.906
365.807
366.704
367.596
368.485
369.369
370.249
371.125
371.997
372.864
373.727
374.586
375.441
376.291
377.136
377.976
378.812
379.642
380.467
381.287
382.101
382.909
383.711
384.507
385.296
386.079
386.856
387.625
388.387
389.142
389.889
390.628
391.36
392.085
392.804
393.525
359.641
360.534
361.421
362.303
363.179
364.051
364.919
365.782
366.641
367.496
368.347
369.195
370.039
370.88
371.717
372.55
373.38
374.206
375.029
375.848
376.663
377.474
378.281
379.084
379.883
380.677
381.466
382.251
383.031
383.806
384.576
385.34
386.098
386.85
387.597
388.337
389.071
389.798
390.518
391.232
391.938
392.636
393.327
394.011
394.687
395.358
396.031
365.213
366.037
366.856
367.672
368.484
369.293
370.099
370.901
371.7
372.497
373.29
374.08
374.867
375.652
376.433
377.211
377.986
378.757
379.525
380.29
381.051
381.808
382.561
383.31
384.055
384.796
385.532
386.263
386.989
387.71
388.425
389.135
389.84
390.538
391.23
391.916
392.596
393.268
393.934
394.593
395.244
395.888
396.525
397.154
397.778
398.404
369.67
370.435
371.197
371.956
372.713
373.467
374.219
374.968
375.714
376.458
377.2
377.939
378.675
379.409
380.14
380.869
381.594
382.316
383.036
383.752
384.464
385.173
385.878
386.579
387.276
387.969
388.658
389.341
390.02
390.694
391.363
392.026
392.684
393.335
393.981
394.62
395.253
395.88
396.5
397.112
397.718
398.316
398.907
399.491
400.069
400.648
373.919
374.629
375.338
376.044
376.748
377.451
378.151
378.85
379.546
380.24
380.933
381.623
382.311
382.996
383.679
384.36
385.038
385.713
386.385
387.054
387.719
388.382
389.04
389.695
390.346
390.993
391.635
392.273
392.906
393.534
394.157
394.774
395.386
395.993
396.593
397.188
397.776
398.357
398.932
399.5
400.061
400.615
401.161
401.701
402.235
402.769
377.971
378.631
379.289
379.945
380.6
381.253
381.905
382.555
383.204
383.851
384.496
385.139
385.78
386.419
387.056
387.691
388.323
388.952
389.578
390.202
390.822
391.439
392.053
392.662
393.268
393.87
394.468
395.061
395.649
396.233
396.812
397.385
397.953
398.515
399.072
399.622
400.166
400.704
401.235
401.76
402.277
402.788
403.291
403.788
404.279
404.77
381.838
382.449
383.059
383.668
384.276
384.883
385.488
386.092
386.695
387.296
387.896
388.494
389.09
389.684
390.276
390.866
391.454
392.039
392.621
393.201
393.777
394.35
394.92
395.486
396.048
396.607
397.161
397.711
398.256
398.796
399.332
399.862
400.387
400.907
401.42
401.928
402.43
402.925
403.414
403.897
404.372
404.841
405.302
405.757
406.206
406.654
385.528
386.093
386.657
387.221
387.784
388.346
388.907
389.466
390.025
390.582
391.138
391.693
392.245
392.796
393.345
393.892
394.437
394.979
395.518
396.055
396.589
397.119
397.647
398.17
398.69
399.207
399.719
400.226
400.729
401.228
401.722
402.21
402.694
403.172
403.644
404.11
404.571
405.025
405.473
405.914
406.348
406.776
407.197
407.611
408.02
408.427
389.048
389.569
390.09
390.61
391.13
391.649
392.167
392.684
393.2
393.715
394.229
394.741
395.252
395.761
396.268
396.773
397.276
397.777
398.275
398.77
399.262
399.752
400.238
400.72
401.199
401.674
402.145
402.612
403.075
403.532
403.985
404.433
404.876
405.314
405.746
406.172
406.592
407.006
407.414
407.816
408.211
408.599
408.98
409.355
409.724
410.091
392.884
393.363
393.842
394.32
394.797
395.274
395.75
396.225
396.699
397.172
397.644
398.114
398.582
399.049
399.513
399.976
400.436
400.894
401.349
401.801
402.251
402.697
403.139
403.578
404.014
404.445
404.872
405.295
405.713
406.127
406.536
406.939
407.337
407.73
408.117
408.499
408.874
409.243
409.606
409.962
410.312
410.655
410.992
411.322
411.651
396.044
396.483
396.921
397.359
397.797
398.234
398.67
399.105
399.54
399.973
400.405
400.836
401.265
401.692
402.118
402.541
402.963
403.381
403.797
404.211
404.621
405.028
405.432
405.833
406.229
406.622
407.011
407.395
407.775
408.15
408.521
408.886
409.246
409.601
409.951
410.294
410.632
410.963
411.289
411.608
411.92
412.226
412.525
412.819
413.11
399.054
399.454
399.854
400.253
400.652
401.05
401.448
401.845
402.241
402.637
403.03
403.423
403.814
404.203
404.591
404.976
405.359
405.74
406.119
406.494
406.867
407.237
407.603
407.966
408.325
408.68
409.031
409.378
409.721
410.059
410.393
410.721
411.045
411.363
411.675
411.982
412.283
412.578
412.867
413.15
413.426
413.696
413.959
414.217
414.472
402.282
402.644
403.006
403.368
403.729
404.09
404.45
404.809
405.167
405.523
405.879
406.233
406.586
406.936
407.285
407.631
407.975
408.317
408.656
408.992
409.325
409.655
409.981
410.304
410.623
410.938
411.249
411.556
411.858
412.155
412.448
412.736
413.018
413.295
413.566
413.832
414.092
414.346
414.593
414.834
415.069
415.297
415.52
415.74
404.972
405.298
405.623
405.949
406.274
406.598
406.922
407.245
407.568
407.889
408.208
408.527
408.843
409.158
409.471
409.782
410.09
410.397
410.7
411.001
411.298
411.593
411.884
412.171
412.455
412.735
413.011
413.283
413.55
413.812
414.07
414.323
414.571
414.813
415.05
415.282
415.507
415.727
415.94
416.147
416.348
416.542
416.731
416.917
407.527
407.818
408.109
408.399
408.689
408.979
409.268
409.556
409.844
410.13
410.415
410.698
410.98
411.261
411.539
411.815
412.089
412.361
412.63
412.896
413.159
413.419
413.676
413.93
414.179
414.425
414.667
414.905
415.138
415.367
415.591
415.811
416.025
416.234
416.437
416.636
416.828
417.014
417.195
417.369
417.537
417.698
417.854
418.007
409.952
410.209
410.466
410.723
410.979
411.235
411.49
411.745
411.999
412.251
412.502
412.752
413.001
413.247
413.492
413.735
413.976
414.214
414.45
414.682
414.912
415.139
415.363
415.583
415.8
416.013
416.222
416.427
416.627
416.823
417.015
417.202
417.383
417.56
417.731
417.897
418.057
418.212
418.36
418.502
418.638
418.768
418.892
419.012
412.476
412.7
412.924
413.148
413.371
413.594
413.815
414.036
414.256
414.475
414.692
414.908
415.122
415.335
415.545
415.753
415.959
416.162
416.363
416.561
416.756
416.947
417.135
417.32
417.501
417.678
417.851
418.02
418.185
418.344
418.5
418.65
418.795
418.935
419.07
419.199
419.322
419.439
419.55
419.655
419.754
419.847
419.937
414.622
414.815
415.007
415.199
415.39
415.581
415.771
415.961
416.149
416.336
416.522
416.706
416.889
417.07
417.249
417.426
417.6
417.772
417.942
418.108
418.272
418.432
418.589
418.743
418.893
419.04
419.182
419.32
419.454
419.583
419.708
419.828
419.943
420.052
420.156
420.255
420.348
420.436
420.517
420.592
420.661
420.724
420.783
416.651
416.813
416.975
417.136
417.297
417.457
417.617
417.776
417.933
418.09
418.245
418.399
418.551
418.702
418.85
418.997
419.141
419.283
419.422
419.558
419.692
419.822
419.949
420.073
420.193
420.309
420.422
420.53
420.634
420.734
420.829
420.92
421.005
421.085
421.16
421.23
421.294
421.352
421.404
421.45
421.49
421.524
421.554
418.7
418.832
418.963
419.094
419.225
419.355
419.484
419.612
419.739
419.865
419.989
420.112
420.233
420.352
420.47
420.584
420.697
420.807
420.914
421.018
421.119
421.217
421.312
421.403
421.491
421.575
421.654
421.73
421.801
421.867
421.929
421.986
422.038
422.084
422.126
422.162
422.192
422.215
422.233
422.245
422.252
422.252
420.478
420.581
420.684
420.786
420.888
420.99
421.09
421.19
421.288
421.385
421.481
421.575
421.668
421.759
421.847
421.934
422.018
422.1
422.179
422.255
422.328
422.398
422.464
422.528
422.587
422.643
422.695
422.742
422.786
422.825
422.859
422.889
422.913
422.932
422.946
422.955
422.957
422.953
422.944
422.929
422.908
422.881
422.151
422.226
422.302
422.376
422.451
422.524
422.597
422.669
422.74
422.809
422.878
422.944
423.009
423.073
423.134
423.193
423.25
423.304
423.356
423.404
423.45
423.493
423.532
423.569
423.602
423.63
423.655
423.676
423.692
423.705
423.713
423.715
423.712
423.705