/*--------------------------------*- C++ -*----------------------------------*\
| =========                 |                                                 |
| \\      /  F ield         | OpenFOAM: The Open Source CFD Toolbox           |
|  \\    /   O peration     | Version:  v1706                                 |
|   \\  /    A nd           | Web:      www.OpenFOAM.com                      |
|    \\/     M anipulation  |                                                 |
\*---------------------------------------------------------------------------*/
FoamFile
{
    version     2.0;
    format      ascii;
    class       volVectorField;
    location    "1.2e-05";
    object      U;
}
// * * * * * * * * * * * * * * * * * * * * * * * * * * * * * * * * * * * * * //

dimensions      [0 1 -1 0 0 0 0];


internalField   nonuniform List<vector> 
30038
(
(2764.5 -3.97444e-11 1.13698e-14)
(2764.5 -3.99564e-11 -4.25923e-15)
(2764.5 -3.67782e-11 1.22043e-14)
(2764.5 -3.62099e-11 2.40221e-15)
(2764.5 -3.82671e-11 4.30419e-15)
(2764.5 -3.52303e-11 4.12342e-15)
(2764.5 -3.39853e-11 8.2042e-15)
(2764.5 -3.3704e-11 9.75433e-15)
(2764.5 -3.41397e-11 5.2942e-15)
(2764.5 -3.54839e-11 4.20503e-15)
(2764.5 -3.58874e-11 8.63035e-15)
(2764.5 -3.9853e-11 8.1348e-15)
(2764.5 -3.75816e-11 4.56265e-15)
(2764.5 -4.10504e-11 4.32098e-15)
(2764.5 -4.42092e-11 3.5153e-15)
(2764.5 -4.69611e-11 1.02303e-14)
(2764.5 -4.96113e-11 6.73226e-15)
(2764.5 -4.94473e-11 3.47783e-15)
(2764.5 -4.59095e-11 7.67573e-16)
(2764.5 -4.70548e-11 8.21502e-15)
(2764.5 -4.87633e-11 7.81895e-15)
(2764.5 -5.25023e-11 9.45778e-15)
(2764.5 -5.96813e-11 -1.82762e-15)
(2764.5 -6.19024e-11 6.51258e-15)
(2764.5 -5.9014e-11 8.78815e-15)
(2764.5 -5.83915e-11 3.11158e-15)
(2764.5 -5.89156e-11 1.12258e-15)
(2764.5 -6.11158e-11 5.18133e-15)
(2764.5 -6.30808e-11 9.01861e-15)
(2764.5 -6.4711e-11 9.50391e-15)
(2764.5 -6.11084e-11 6.67123e-15)
(2764.5 -6.63769e-11 9.7346e-15)
(2764.5 -6.86591e-11 7.65285e-15)
(2764.5 -7.05582e-11 6.32799e-15)
(2764.5 -7.16731e-11 9.05671e-15)
(2764.5 -7.34229e-11 9.21078e-15)
(2764.5 -7.16116e-11 6.67867e-16)
(2764.5 -7.52255e-11 4.35456e-15)
(2764.5 -1.13107e-10 2.29566e-14)
(2764.5 -1.13129e-10 1.44824e-14)
(2764.5 -1.17777e-10 2.43558e-14)
(2764.5 -1.10349e-10 1.67111e-14)
(2764.5 -1.1814e-10 2.47903e-14)
(2764.5 -1.20288e-10 2.08637e-14)
(2764.5 -1.22538e-10 2.38147e-14)
(2764.5 -1.22813e-10 2.40064e-14)
(2764.5 -1.23805e-10 1.88565e-14)
(2764.5 -1.22991e-10 1.86885e-14)
(2764.5 -1.2345e-10 2.27444e-14)
(2764.5 -1.23294e-10 1.84126e-14)
(2764.5 -1.30823e-10 1.93747e-14)
(2764.5 -1.24588e-10 1.90615e-14)
(2764.5 -1.26651e-10 1.61678e-14)
(2764.5 -1.30153e-10 1.97083e-14)
(2764.5 -1.33248e-10 1.88268e-14)
(2764.5 -1.42693e-10 2.07419e-14)
(2764.5 -1.42328e-10 1.44337e-14)
(2764.5 -1.44922e-10 1.93671e-14)
(2764.5 -1.43624e-10 1.68749e-14)
(2764.5 -1.41015e-10 1.9098e-14)
(2764.5 -1.36068e-10 2.0493e-14)
(2764.5 -1.51276e-10 2.02022e-14)
(2764.5 -1.58486e-10 1.80071e-14)
(2764.5 -1.62035e-10 1.81768e-14)
(2764.5 -1.62114e-10 1.91808e-14)
(2764.5 -1.64567e-10 1.76186e-14)
(2764.5 -1.67598e-10 1.7288e-14)
(2764.5 -1.73917e-10 2.33796e-14)
(2764.5 -1.7594e-10 1.2742e-14)
(2764.5 -1.75493e-10 2.31957e-14)
(2764.5 -1.83722e-10 2.88468e-14)
(2764.5 -1.84743e-10 2.16649e-14)
(2764.5 -1.94151e-10 2.59393e-14)
(2764.5 -1.97364e-10 1.83494e-14)
(2764.5 -2.10111e-10 1.81558e-14)
(2764.5 -2.16243e-10 2.06712e-14)
(2764.5 -1.77661e-10 3.46215e-14)
(2764.5 -1.83082e-10 3.46987e-14)
(2764.5 -1.86823e-10 3.62609e-14)
(2764.5 -1.86146e-10 2.90723e-14)
(2764.5 -1.90301e-10 3.25919e-14)
(2764.5 -1.92168e-10 3.10228e-14)
(2764.5 -1.96455e-10 3.65148e-14)
(2764.5 -1.99538e-10 3.03599e-14)
(2764.5 -2.00242e-10 2.73011e-14)
(2764.5 -2.03407e-10 3.10211e-14)
(2764.5 -2.07767e-10 2.83447e-14)
(2764.5 -2.08608e-10 3.22443e-14)
(2764.5 -2.13413e-10 3.08681e-14)
(2764.5 -2.16068e-10 3.38871e-14)
(2764.5 -2.13872e-10 2.9981e-14)
(2764.5 -2.136e-10 3.4919e-14)
(2764.5 -2.13939e-10 3.41348e-14)
(2764.5 -2.23318e-10 3.39401e-14)
(2764.5 -2.284e-10 3.17372e-14)
(2764.5 -2.36448e-10 3.31821e-14)
(2764.5 -2.41705e-10 2.89952e-14)
(2764.5 -2.4793e-10 3.1848e-14)
(2764.5 -2.41005e-10 2.8018e-14)
(2764.5 -2.44188e-10 2.732e-14)
(2764.5 -2.49239e-10 3.40289e-14)
(2764.5 -2.55779e-10 3.44855e-14)
(2764.5 -2.58691e-10 3.10581e-14)
(2764.5 -2.67595e-10 2.62453e-14)
(2764.5 -2.75301e-10 2.72609e-14)
(2764.5 -2.81396e-10 3.26998e-14)
(2764.5 -2.87169e-10 3.04451e-14)
(2764.5 -2.85977e-10 3.38369e-14)
(2764.5 -2.91948e-10 3.23266e-14)
(2764.5 -2.93548e-10 3.23513e-14)
(2764.5 -2.99504e-10 3.35972e-14)
(2764.5 -2.99697e-10 3.64954e-14)
(2764.5 -3.09347e-10 3.0916e-14)
(2764.5 -3.1793e-10 3.25065e-14)
(2764.5 -2.47593e-10 4.75103e-14)
(2764.5 -2.55006e-10 4.53174e-14)
(2764.5 -2.56414e-10 4.57796e-14)
(2764.5 -2.56674e-10 4.0031e-14)
(2764.5 -2.58812e-10 4.71955e-14)
(2764.5 -2.63819e-10 4.29247e-14)
(2764.5 -2.70132e-10 4.36526e-14)
(2764.5 -2.75197e-10 3.89339e-14)
(2764.5 -2.76334e-10 4.63086e-14)
(2764.5 -2.7808e-10 4.13815e-14)
(2764.5 -2.80426e-10 4.41798e-14)
(2764.5 -2.83212e-10 4.35444e-14)
(2764.5 -2.88766e-10 4.70994e-14)
(2764.5 -2.9571e-10 4.26169e-14)
(2764.5 -2.98649e-10 3.92426e-14)
(2764.5 -2.99568e-10 4.22417e-14)
(2764.5 -3.00302e-10 3.54927e-14)
(2764.5 -3.04026e-10 4.27819e-14)
(2764.5 -3.1077e-10 4.76984e-14)
(2764.5 -3.17176e-10 4.48393e-14)
(2764.5 -3.2157e-10 4.20307e-14)
(2764.5 -3.29551e-10 4.04347e-14)
(2764.5 -3.30159e-10 4.42654e-14)
(2764.5 -3.33303e-10 4.8047e-14)
(2764.5 -3.39122e-10 4.4186e-14)
(2764.5 -3.42999e-10 4.48903e-14)
(2764.5 -3.45657e-10 4.39442e-14)
(2764.5 -3.51571e-10 4.132e-14)
(2764.5 -3.60909e-10 4.19815e-14)
(2764.5 -3.70268e-10 4.88044e-14)
(2764.5 -3.81203e-10 4.59847e-14)
(2764.5 -3.86322e-10 4.79587e-14)
(2764.5 -3.94238e-10 4.63438e-14)
(2764.5 -4.00044e-10 4.51663e-14)
(2764.5 -4.09157e-10 4.5845e-14)
(2764.5 -4.14626e-10 4.95697e-14)
(2764.5 -4.2343e-10 4.85903e-14)
(2764.5 -4.32795e-10 4.93366e-14)
(2764.5 -3.13244e-10 5.73862e-14)
(2764.5 -3.2075e-10 5.64721e-14)
(2764.5 -3.2301e-10 5.93069e-14)
(2764.5 -3.26993e-10 5.74094e-14)
(2764.5 -3.27469e-10 5.64812e-14)
(2764.5 -3.29728e-10 5.49649e-14)
(2764.5 -3.34823e-10 6.01308e-14)
(2764.5 -3.39936e-10 5.8766e-14)
(2764.5 -3.45501e-10 6.01914e-14)
(2764.5 -3.47805e-10 5.84418e-14)
(2764.5 -3.51309e-10 5.60163e-14)
(2764.5 -3.53599e-10 5.3315e-14)
(2764.5 -3.60578e-10 5.4533e-14)
(2764.5 -3.68468e-10 5.07185e-14)
(2764.5 -3.75766e-10 5.14695e-14)
(2764.5 -3.78292e-10 5.63756e-14)
(2764.5 -3.81362e-10 6.17866e-14)
(2764.5 -3.81424e-10 6.11379e-14)
(2764.5 -3.83078e-10 5.43579e-14)
(2764.5 -3.90114e-10 5.97897e-14)
(2764.5 -3.96179e-10 5.66077e-14)
(2764.5 -4.07582e-10 4.79206e-14)
(2764.5 -4.15471e-10 5.88974e-14)
(2764.5 -4.22927e-10 5.64927e-14)
(2764.5 -4.30878e-10 5.8835e-14)
(2764.5 -4.38549e-10 5.96604e-14)
(2764.5 -4.41273e-10 6.37297e-14)
(2764.5 -4.43662e-10 5.61835e-14)
(2764.5 -4.4781e-10 5.04969e-14)
(2764.5 -4.52951e-10 5.00705e-14)
(2764.5 -4.63489e-10 5.25729e-14)
(2764.5 -4.75382e-10 6.11023e-14)
(2764.5 -4.87817e-10 5.94049e-14)
(2764.5 -4.98694e-10 5.83811e-14)
(2764.5 -5.09276e-10 5.79285e-14)
(2764.5 -5.19696e-10 5.91611e-14)
(2764.5 -5.28823e-10 6.19126e-14)
(2764.5 -5.38489e-10 6.22743e-14)
(2764.5 -3.74666e-10 7.03712e-14)
(2764.5 -3.82033e-10 7.26409e-14)
(2764.5 -3.84139e-10 7.14799e-14)
(2764.5 -3.8782e-10 6.28619e-14)
(2764.5 -3.94437e-10 6.43938e-14)
(2764.5 -3.9828e-10 6.81589e-14)
(2764.5 -4.05158e-10 6.14826e-14)
(2764.5 -4.07837e-10 6.85439e-14)
(2764.5 -4.14597e-10 7.61445e-14)
(2764.5 -4.19145e-10 7.09762e-14)
(2764.5 -4.21854e-10 7.02239e-14)
(2764.5 -4.2256e-10 6.94419e-14)
(2764.5 -4.24704e-10 6.77715e-14)
(2764.5 -4.32335e-10 6.89554e-14)
(2764.5 -4.43781e-10 6.9117e-14)
(2764.5 -4.49062e-10 6.71333e-14)
(2764.5 -4.54701e-10 7.25925e-14)
(2764.5 -4.58928e-10 7.27789e-14)
(2764.5 -4.60284e-10 6.49294e-14)
(2764.5 -4.64861e-10 6.90935e-14)
(2764.5 -4.71947e-10 7.05793e-14)
(2764.5 -4.82353e-10 7.34527e-14)
(2764.5 -4.92449e-10 7.30952e-14)
(2764.5 -5.01838e-10 6.81028e-14)
(2764.5 -5.09692e-10 6.52343e-14)
(2764.5 -5.19849e-10 6.75631e-14)
(2764.5 -5.29982e-10 7.88153e-14)
(2764.5 -5.35294e-10 6.77184e-14)
(2764.5 -5.39113e-10 7.25639e-14)
(2764.5 -5.4113e-10 7.53938e-14)
(2764.5 -5.46477e-10 6.73468e-14)
(2764.5 -5.57445e-10 6.87391e-14)
(2764.5 -5.69309e-10 6.93291e-14)
(2764.5 -5.80288e-10 7.4979e-14)
(2764.5 -5.95366e-10 7.69639e-14)
(2764.5 -6.09617e-10 6.84893e-14)
(2764.5 -6.25109e-10 6.72835e-14)
(2764.5 -6.39449e-10 7.15153e-14)
(2764.5 -4.28552e-10 7.85545e-14)
(2764.5 -4.37021e-10 7.41899e-14)
(2764.5 -4.47103e-10 7.97998e-14)
(2764.5 -4.50514e-10 8.50618e-14)
(2764.5 -4.56595e-10 8.22445e-14)
(2764.5 -4.60872e-10 7.9512e-14)
(2764.5 -4.69963e-10 8.01875e-14)
(2764.5 -4.7911e-10 8.57847e-14)
(2764.5 -4.84858e-10 7.50721e-14)
(2764.5 -4.86565e-10 8.07427e-14)
(2764.5 -4.88663e-10 8.46041e-14)
(2764.5 -4.91036e-10 8.09536e-14)
(2764.5 -4.91786e-10 8.05361e-14)
(2764.5 -4.94527e-10 7.85233e-14)
(2764.5 -5.01762e-10 7.66805e-14)
(2764.5 -5.09487e-10 8.11043e-14)
(2764.5 -5.17002e-10 7.94708e-14)
(2764.5 -5.27421e-10 8.65123e-14)
(2764.5 -5.33915e-10 8.2111e-14)
(2764.5 -5.38002e-10 8.37823e-14)
(2764.5 -5.44147e-10 8.41227e-14)
(2764.5 -5.51845e-10 8.17843e-14)
(2764.5 -5.62425e-10 8.02877e-14)
(2764.5 -5.73623e-10 8.43613e-14)
(2764.5 -5.80891e-10 8.23614e-14)
(2764.5 -5.89703e-10 8.40503e-14)
(2764.5 -6.03164e-10 8.96046e-14)
(2764.5 -6.16792e-10 7.92511e-14)
(2764.5 -6.27904e-10 7.67584e-14)
(2764.5 -6.34752e-10 7.99235e-14)
(2764.5 -6.3809e-10 8.17114e-14)
(2764.5 -6.41162e-10 8.04732e-14)
(2764.5 -6.50462e-10 8.30612e-14)
(2764.5 -6.60743e-10 8.67535e-14)
(2764.5 -6.72838e-10 9.10127e-14)
(2764.5 -6.82629e-10 8.5111e-14)
(2764.5 -6.99919e-10 8.3159e-14)
(2764.5 -7.18516e-10 8.69685e-14)
(2764.5 -4.83394e-10 9.41782e-14)
(2764.5 -4.90033e-10 9.17354e-14)
(2764.5 -4.9815e-10 9.27408e-14)
(2764.5 -5.04989e-10 9.79665e-14)
(2764.5 -5.13082e-10 9.95392e-14)
(2764.5 -5.1555e-10 9.29473e-14)
(2764.5 -5.22498e-10 9.15087e-14)
(2764.5 -5.33446e-10 9.25101e-14)
(2764.5 -5.46413e-10 9.48063e-14)
(2764.5 -5.50975e-10 9.54463e-14)
(2764.5 -5.53102e-10 8.9474e-14)
(2764.5 -5.55097e-10 9.3829e-14)
(2764.5 -5.59471e-10 8.98494e-14)
(2764.5 -5.64811e-10 9.35402e-14)
(2764.5 -5.70691e-10 9.1248e-14)
(2764.5 -5.79287e-10 9.59159e-14)
(2764.5 -5.85011e-10 9.92992e-14)
(2764.5 -5.93121e-10 9.86759e-14)
(2764.5 -6.01061e-10 9.44678e-14)
(2764.5 -6.04651e-10 9.85235e-14)
(2764.5 -6.11173e-10 9.10031e-14)
(2764.5 -6.19796e-10 9.74539e-14)
(2764.5 -6.28873e-10 9.3024e-14)
(2764.5 -6.39077e-10 9.27032e-14)
(2764.5 -6.45226e-10 8.85041e-14)
(2764.5 -6.51594e-10 9.58607e-14)
(2764.5 -6.63258e-10 9.46037e-14)
(2764.5 -6.77963e-10 9.21533e-14)
(2764.5 -6.93618e-10 9.73328e-14)
(2764.5 -7.07787e-10 9.88428e-14)
(2764.5 -7.18589e-10 1.0307e-13)
(2764.5 -7.25343e-10 9.93592e-14)
(2764.5 -7.29541e-10 1.01579e-13)
(2764.5 -7.36241e-10 9.80675e-14)
(2764.5 -7.50085e-10 9.638e-14)
(2764.5 -7.56321e-10 1.0387e-13)
(2764.5 -7.71077e-10 9.99881e-14)
(2764.5 -7.93401e-10 9.46028e-14)
(2764.5 -5.47611e-10 1.07521e-13)
(2764.5 -5.45983e-10 1.04243e-13)
(2764.5 -5.51753e-10 1.1131e-13)
(2764.5 -5.57064e-10 1.09943e-13)
(2764.5 -5.61792e-10 1.09396e-13)
(2764.5 -5.6968e-10 1.09183e-13)
(2764.5 -5.72031e-10 1.146e-13)
(2764.5 -5.76535e-10 1.09062e-13)
(2764.5 -5.86292e-10 1.08274e-13)
(2764.5 -6.01083e-10 1.07191e-13)
(2764.5 -6.10928e-10 9.91086e-14)
(2764.5 -6.17908e-10 1.08191e-13)
(2764.5 -6.2287e-10 9.94816e-14)
(2764.5 -6.30487e-10 1.05985e-13)
(2764.5 -6.3789e-10 1.09071e-13)
(2764.5 -6.42306e-10 1.08352e-13)
(2764.5 -6.46833e-10 1.10107e-13)
(2764.5 -6.5335e-10 1.04882e-13)
(2764.5 -6.60903e-10 1.05489e-13)
(2764.5 -6.6892e-10 1.0619e-13)
(2764.5 -6.72993e-10 1.0682e-13)
(2764.5 -6.77846e-10 1.06986e-13)
(2764.5 -6.83565e-10 1.05987e-13)
(2764.5 -6.92806e-10 1.02662e-13)
(2764.5 -7.04018e-10 1.062e-13)
(2764.5 -7.10777e-10 1.07678e-13)
(2764.5 -7.1656e-10 1.10919e-13)
(2764.5 -7.24393e-10 1.06609e-13)
(2764.5 -7.36812e-10 1.08076e-13)
(2764.5 -7.50536e-10 1.07496e-13)
(2764.5 -7.6539e-10 1.10402e-13)
(2764.5 -7.79236e-10 1.10273e-13)
(2764.5 -7.92149e-10 1.12062e-13)
(2764.5 -8.02131e-10 1.08985e-13)
(2764.5 -8.07952e-10 1.15805e-13)
(2764.5 -8.20419e-10 1.15783e-13)
(2764.5 -8.3111e-10 1.11201e-13)
(2764.5 -8.48905e-10 1.10055e-13)
(2764.5 -8.6974e-10 1.08339e-13)
(2764.5 -6.0816e-10 1.22738e-13)
(2764.5 -6.09936e-10 1.15831e-13)
(2764.5 -6.13006e-10 1.15211e-13)
(2764.5 -6.17833e-10 1.22735e-13)
(2764.5 -6.18812e-10 1.23655e-13)
(2764.5 -6.25391e-10 1.24876e-13)
(2764.5 -6.31281e-10 1.27429e-13)
(2764.5 -6.36402e-10 1.18312e-13)
(2764.5 -6.44655e-10 1.16631e-13)
(2764.5 -6.58753e-10 1.14025e-13)
(2764.5 -6.69716e-10 1.19092e-13)
(2764.5 -6.79269e-10 1.16255e-13)
(2764.5 -6.85778e-10 1.09922e-13)
(2764.5 -6.93632e-10 1.20742e-13)
(2764.5 -7.01892e-10 1.19443e-13)
(2764.5 -7.09042e-10 1.20285e-13)
(2764.5 -7.13301e-10 1.1173e-13)
(2764.5 -7.20504e-10 1.19243e-13)
(2764.5 -7.26984e-10 1.19032e-13)
(2764.5 -7.35505e-10 1.20982e-13)
(2764.5 -7.41251e-10 1.17277e-13)
(2764.5 -7.45025e-10 1.16522e-13)
(2764.5 -7.51213e-10 1.16233e-13)
(2764.5 -7.59346e-10 1.18151e-13)
(2764.5 -7.70118e-10 1.22953e-13)
(2764.5 -7.80727e-10 1.20645e-13)
(2764.5 -7.89123e-10 1.23081e-13)
(2764.5 -7.95364e-10 1.17657e-13)
(2764.5 -8.06214e-10 1.15607e-13)
(2764.5 -8.15405e-10 1.22143e-13)
(2764.5 -8.27131e-10 1.22953e-13)
(2764.5 -8.42561e-10 1.2293e-13)
(2764.5 -8.58492e-10 1.23679e-13)
(2764.5 -8.71972e-10 1.2205e-13)
(2764.5 -8.82639e-10 1.24659e-13)
(2764.5 -8.9739e-10 1.23616e-13)
(2764.5 -9.06618e-10 1.18433e-13)
(2764.5 -9.21475e-10 1.23581e-13)
(2764.5 -9.428e-10 1.25288e-13)
(2764.5 -6.69464e-10 1.34503e-13)
(2764.5 -6.71256e-10 1.37624e-13)
(2764.5 -6.74998e-10 1.32335e-13)
(2764.5 -6.80305e-10 1.34413e-13)
(2764.5 -6.81891e-10 1.29354e-13)
(2764.5 -6.86211e-10 1.29885e-13)
(2764.5 -6.92119e-10 1.35261e-13)
(2764.5 -6.97682e-10 1.36628e-13)
(2764.5 -7.04681e-10 1.2837e-13)
(2764.5 -7.15077e-10 1.29954e-13)
(2764.5 -7.25825e-10 1.29148e-13)
(2764.5 -7.33599e-10 1.30842e-13)
(2764.5 -7.4093e-10 1.29269e-13)
(2764.5 -7.51263e-10 1.23625e-13)
(2764.5 -7.6186e-10 1.31928e-13)
(2764.5 -7.72364e-10 1.35848e-13)
(2764.5 -7.78639e-10 1.37892e-13)
(2764.5 -7.853e-10 1.36253e-13)
(2764.5 -7.94368e-10 1.30174e-13)
(2764.5 -8.02077e-10 1.30596e-13)
(2764.5 -8.08351e-10 1.33415e-13)
(2764.5 -8.13406e-10 1.35612e-13)
(2764.5 -8.20199e-10 1.32247e-13)
(2764.5 -8.28068e-10 1.32436e-13)
(2764.5 -8.37368e-10 1.32446e-13)
(2764.5 -8.47939e-10 1.36575e-13)
(2764.5 -8.57811e-10 1.30423e-13)
(2764.5 -8.65871e-10 1.27365e-13)
(2764.5 -8.78001e-10 1.33699e-13)
(2764.5 -8.93913e-10 1.36611e-13)
(2764.5 -9.0787e-10 1.3795e-13)
(2764.5 -9.19654e-10 1.3304e-13)
(2764.5 -9.32537e-10 1.32873e-13)
(2764.5 -9.47175e-10 1.32682e-13)
(2764.5 -9.5748e-10 1.33708e-13)
(2764.5 -9.69606e-10 1.33914e-13)
(2764.5 -9.79837e-10 1.35401e-13)
(2764.5 -9.94554e-10 1.39027e-13)
(2764.5 -1.01612e-09 1.34677e-13)
(2764.5 -7.2358e-10 1.51191e-13)
(2764.5 -7.29198e-10 1.46578e-13)
(2764.5 -7.34219e-10 1.41424e-13)
(2764.5 -7.36847e-10 1.46203e-13)
(2764.5 -7.4255e-10 1.45387e-13)
(2764.5 -7.44936e-10 1.47849e-13)
(2764.5 -7.48081e-10 1.4704e-13)
(2764.5 -7.5308e-10 1.47999e-13)
(2764.5 -7.58114e-10 1.44888e-13)
(2764.5 -7.63476e-10 1.47539e-13)
(2764.5 -7.67622e-10 1.4617e-13)
(2764.5 -7.75404e-10 1.46096e-13)
(2764.5 -7.8424e-10 1.4451e-13)
(2764.5 -7.92557e-10 1.37699e-13)
(2764.5 -8.03179e-10 1.43179e-13)
(2764.5 -8.15103e-10 1.46465e-13)
(2764.5 -8.25907e-10 1.42747e-13)
(2764.5 -8.35545e-10 1.43678e-13)
(2764.5 -8.4442e-10 1.45367e-13)
(2764.5 -8.5494e-10 1.47008e-13)
(2764.5 -8.66982e-10 1.40167e-13)
(2764.5 -8.7364e-10 1.40841e-13)
(2764.5 -8.81484e-10 1.42205e-13)
(2764.5 -8.8957e-10 1.39682e-13)
(2764.5 -8.96287e-10 1.41254e-13)
(2764.5 -9.05618e-10 1.50316e-13)
(2764.5 -9.16431e-10 1.46681e-13)
(2764.5 -9.28316e-10 1.38451e-13)
(2764.5 -9.39393e-10 1.44833e-13)
(2764.5 -9.54402e-10 1.44058e-13)
(2764.5 -9.70485e-10 1.47962e-13)
(2764.5 -9.85535e-10 1.44202e-13)
(2764.5 -9.97065e-10 1.43835e-13)
(2764.5 -1.00787e-09 1.46318e-13)
(2764.5 -1.01956e-09 1.50334e-13)
(2764.5 -1.02859e-09 1.51298e-13)
(2764.5 -1.04048e-09 1.47589e-13)
(2764.5 -1.04551e-09 1.52249e-13)
(2764.5 -1.06464e-09 1.44879e-13)
(2764.5 -1.06779e-09 1.55174e-13)
(2764.5 -7.78425e-10 1.63055e-13)
(2764.5 -7.84672e-10 1.6279e-13)
(2764.5 -7.92971e-10 1.63189e-13)
(2764.5 -7.97686e-10 1.56959e-13)
(2764.5 -8.02527e-10 1.58724e-13)
(2764.5 -8.07776e-10 1.59487e-13)
(2764.5 -8.10036e-10 1.618e-13)
(2764.5 -8.10517e-10 1.6119e-13)
(2764.5 -8.15279e-10 1.5879e-13)
(2764.5 -8.21041e-10 1.63113e-13)
(2764.5 -8.2689e-10 1.55746e-13)
(2764.5 -8.32118e-10 1.55867e-13)
(2764.5 -8.38782e-10 1.55207e-13)
(2764.5 -8.46395e-10 1.53838e-13)
(2764.5 -8.57659e-10 1.54466e-13)
(2764.5 -8.70688e-10 1.55824e-13)
(2764.5 -8.84053e-10 1.54e-13)
(2764.5 -8.93383e-10 1.49149e-13)
(2764.5 -9.0077e-10 1.53848e-13)
(2764.5 -9.09103e-10 1.50886e-13)
(2764.5 -9.20004e-10 1.53213e-13)
(2764.5 -9.28424e-10 1.56937e-13)
(2764.5 -9.38831e-10 1.59989e-13)
(2764.5 -9.53111e-10 1.59264e-13)
(2764.5 -9.66258e-10 1.55261e-13)
(2764.5 -9.74594e-10 1.56426e-13)
(2764.5 -9.82941e-10 1.55026e-13)
(2764.5 -9.95049e-10 1.54785e-13)
(2764.5 -1.00704e-09 1.53519e-13)
(2764.5 -1.01868e-09 1.55537e-13)
(2764.5 -1.03026e-09 1.58006e-13)
(2764.5 -1.04498e-09 1.58436e-13)
(2764.5 -1.05685e-09 1.58693e-13)
(2764.5 -1.06515e-09 1.59772e-13)
(2764.5 -1.07843e-09 1.64033e-13)
(2764.5 -1.09058e-09 1.55969e-13)
(2764.5 -1.10422e-09 1.56718e-13)
(2764.5 -1.10947e-09 1.60751e-13)
(2764.5 -1.12952e-09 1.58998e-13)
(2764.5 -1.13415e-09 1.60075e-13)
(2764.5 -8.29416e-10 1.77106e-13)
(2764.5 -8.38329e-10 1.70541e-13)
(2764.5 -8.47826e-10 1.69944e-13)
(2764.5 -8.55262e-10 1.72749e-13)
(2764.5 -8.60001e-10 1.75113e-13)
(2764.5 -8.65787e-10 1.80136e-13)
(2764.5 -8.72498e-10 1.7473e-13)
(2764.5 -8.75641e-10 1.66357e-13)
(2764.5 -8.73554e-10 1.7093e-13)
(2764.5 -8.72966e-10 1.76213e-13)
(2764.5 -8.7654e-10 1.68531e-13)
(2764.5 -8.82819e-10 1.73424e-13)
(2764.5 -8.92843e-10 1.74452e-13)
(2764.5 -9.01977e-10 1.69209e-13)
(2764.5 -9.14597e-10 1.71055e-13)
(2764.5 -9.28176e-10 1.64736e-13)
(2764.5 -9.42074e-10 1.6198e-13)
(2764.5 -9.55408e-10 1.63694e-13)
(2764.5 -9.63759e-10 1.65762e-13)
(2764.5 -9.69459e-10 1.64301e-13)
(2764.5 -9.7659e-10 1.75901e-13)
(2764.5 -9.83587e-10 1.7237e-13)
(2764.5 -9.92466e-10 1.69462e-13)
(2764.5 -1.00693e-09 1.69811e-13)
(2764.5 -1.02158e-09 1.70273e-13)
(2764.5 -1.03548e-09 1.67912e-13)
(2764.5 -1.04581e-09 1.68796e-13)
(2764.5 -1.05505e-09 1.61595e-13)
(2764.5 -1.06351e-09 1.74222e-13)
(2764.5 -1.07217e-09 1.75585e-13)
(2764.5 -1.08008e-09 1.68352e-13)
(2764.5 -1.09124e-09 1.66608e-13)
(2764.5 -1.10666e-09 1.64259e-13)
(2764.5 -1.122e-09 1.67537e-13)
(2764.5 -1.13763e-09 1.72582e-13)
(2764.5 -1.15162e-09 1.73189e-13)
(2764.5 -1.1675e-09 1.70206e-13)
(2764.5 -1.17434e-09 1.69245e-13)
(2764.5 -1.19244e-09 1.74351e-13)
(2764.5 -1.19991e-09 1.82458e-13)
(2764.5 -8.81398e-10 1.89483e-13)
(2764.5 -8.89015e-10 1.88963e-13)
(2764.5 -8.95656e-10 1.90594e-13)
(2764.5 -9.00766e-10 1.85974e-13)
(2764.5 -9.08737e-10 1.84596e-13)
(2764.5 -9.16812e-10 1.89188e-13)
(2764.5 -9.22933e-10 1.92674e-13)
(2764.5 -9.3085e-10 1.80411e-13)
(2764.5 -9.33026e-10 1.80199e-13)
(2764.5 -9.30835e-10 1.88295e-13)
(2764.5 -9.2855e-10 1.80889e-13)
(2764.5 -9.2976e-10 1.86907e-13)
(2764.5 -9.38266e-10 1.84611e-13)
(2764.5 -9.48373e-10 1.77907e-13)
(2764.5 -9.61044e-10 1.8136e-13)
(2764.5 -9.75069e-10 1.81841e-13)
(2764.5 -9.91142e-10 1.76225e-13)
(2764.5 -1.00525e-09 1.78468e-13)
(2764.5 -1.01734e-09 1.8023e-13)
(2764.5 -1.0252e-09 1.8258e-13)
(2764.5 -1.03295e-09 1.86167e-13)
(2764.5 -1.04062e-09 1.79836e-13)
(2764.5 -1.04844e-09 1.8369e-13)
(2764.5 -1.06138e-09 1.86294e-13)
(2764.5 -1.07452e-09 1.78498e-13)
(2764.5 -1.08706e-09 1.85423e-13)
(2764.5 -1.09819e-09 1.79813e-13)
(2764.5 -1.10663e-09 1.78187e-13)
(2764.5 -1.11413e-09 1.83233e-13)
(2764.5 -1.12312e-09 1.76712e-13)
(2764.5 -1.1362e-09 1.8065e-13)
(2764.5 -1.14826e-09 1.8343e-13)
(2764.5 -1.1599e-09 1.82458e-13)
(2764.5 -1.17468e-09 1.76455e-13)
(2764.5 -1.19453e-09 1.82457e-13)
(2764.5 -1.21322e-09 1.82738e-13)
(2764.5 -1.23195e-09 1.82749e-13)
(2764.5 -1.24102e-09 1.8492e-13)
(2764.5 -1.25563e-09 1.831e-13)
(2764.5 -1.26386e-09 1.80624e-13)
(2764.5 -9.28068e-10 2.00475e-13)
(2764.5 -9.37858e-10 2.01374e-13)
(2764.5 -9.46527e-10 1.99829e-13)
(2764.5 -9.48656e-10 2.00717e-13)
(2764.5 -9.54477e-10 2.00184e-13)
(2764.5 -9.63958e-10 1.93901e-13)
(2764.5 -9.71972e-10 1.96852e-13)
(2764.5 -9.79462e-10 1.96196e-13)
(2764.5 -9.84088e-10 1.96364e-13)
(2764.5 -9.84436e-10 1.97267e-13)
(2764.5 -9.84746e-10 1.92868e-13)
(2764.5 -9.88287e-10 1.96222e-13)
(2764.5 -9.96515e-10 1.91379e-13)
(2764.5 -1.00412e-09 1.89848e-13)
(2764.5 -1.01139e-09 1.94042e-13)
(2764.5 -1.0187e-09 1.94347e-13)
(2764.5 -1.03123e-09 1.94337e-13)
(2764.5 -1.0436e-09 1.95586e-13)
(2764.5 -1.05628e-09 1.90886e-13)
(2764.5 -1.06682e-09 1.91582e-13)
(2764.5 -1.07807e-09 1.92998e-13)
(2764.5 -1.09094e-09 1.92627e-13)
(2764.5 -1.10443e-09 1.92043e-13)
(2764.5 -1.11891e-09 1.92326e-13)
(2764.5 -1.13316e-09 1.90883e-13)
(2764.5 -1.14261e-09 1.90175e-13)
(2764.5 -1.1494e-09 1.9115e-13)
(2764.5 -1.15715e-09 1.94427e-13)
(2764.5 -1.16621e-09 1.88545e-13)
(2764.5 -1.17601e-09 1.94222e-13)
(2764.5 -1.19057e-09 1.92281e-13)
(2764.5 -1.20522e-09 1.99986e-13)
(2764.5 -1.21727e-09 1.95338e-13)
(2764.5 -1.2291e-09 1.91062e-13)
(2764.5 -1.24716e-09 1.94516e-13)
(2764.5 -1.26697e-09 1.9929e-13)
(2764.5 -1.28896e-09 1.98879e-13)
(2764.5 -1.30303e-09 1.97392e-13)
(2764.5 -1.31799e-09 1.93982e-13)
(2764.5 -1.32818e-09 1.99455e-13)
(2764.5 -9.75743e-10 2.13883e-13)
(2764.5 -9.85931e-10 2.11972e-13)
(2764.5 -9.9798e-10 2.13528e-13)
(2764.5 -1.00385e-09 2.10573e-13)
(2764.5 -1.00595e-09 2.08093e-13)
(2764.5 -1.01197e-09 2.14969e-13)
(2764.5 -1.02313e-09 2.17286e-13)
(2764.5 -1.03208e-09 2.10253e-13)
(2764.5 -1.04065e-09 2.08709e-13)
(2764.5 -1.04502e-09 2.11719e-13)
(2764.5 -1.04668e-09 2.08528e-13)
(2764.5 -1.0466e-09 2.11511e-13)
(2764.5 -1.05069e-09 2.05011e-13)
(2764.5 -1.05907e-09 2.03475e-13)
(2764.5 -1.067e-09 2.09427e-13)
(2764.5 -1.07228e-09 2.04502e-13)
(2764.5 -1.08064e-09 2.04126e-13)
(2764.5 -1.0951e-09 2.09833e-13)
(2764.5 -1.10972e-09 2.08502e-13)
(2764.5 -1.11925e-09 2.03231e-13)
(2764.5 -1.12969e-09 2.04619e-13)
(2764.5 -1.14504e-09 1.982e-13)
(2764.5 -1.16078e-09 2.03858e-13)
(2764.5 -1.17427e-09 2.06627e-13)
(2764.5 -1.18502e-09 2.09172e-13)
(2764.5 -1.19315e-09 2.09339e-13)
(2764.5 -1.1992e-09 2.03805e-13)
(2764.5 -1.20509e-09 2.04781e-13)
(2764.5 -1.21208e-09 2.01275e-13)
(2764.5 -1.22353e-09 2.06503e-13)
(2764.5 -1.23988e-09 2.05006e-13)
(2764.5 -1.25499e-09 2.02944e-13)
(2764.5 -1.26855e-09 2.05359e-13)
(2764.5 -1.28006e-09 2.0886e-13)
(2764.5 -1.29625e-09 2.02619e-13)
(2764.5 -1.31423e-09 2.0423e-13)
(2764.5 -1.33625e-09 2.05485e-13)
(2764.5 -1.35255e-09 2.0337e-13)
(2764.5 -1.37077e-09 2.03317e-13)
(2764.5 -1.38395e-09 2.09007e-13)
(2764.5 -1.01855e-09 2.30656e-13)
(2764.5 -1.02459e-09 2.28668e-13)
(2764.5 -1.03459e-09 2.2691e-13)
(2764.5 -1.0472e-09 2.2249e-13)
(2764.5 -1.05713e-09 2.26331e-13)
(2764.5 -1.06359e-09 2.2172e-13)
(2764.5 -1.07739e-09 2.24668e-13)
(2764.5 -1.08798e-09 2.23968e-13)
(2764.5 -1.09418e-09 2.27958e-13)
(2764.5 -1.09915e-09 2.26338e-13)
(2764.5 -1.09837e-09 2.17301e-13)
(2764.5 -1.09931e-09 2.21973e-13)
(2764.5 -1.10008e-09 2.18127e-13)
(2764.5 -1.10799e-09 2.22147e-13)
(2764.5 -1.11634e-09 2.21693e-13)
(2764.5 -1.12466e-09 2.23889e-13)
(2764.5 -1.13209e-09 2.26021e-13)
(2764.5 -1.14577e-09 2.20942e-13)
(2764.5 -1.16196e-09 2.22478e-13)
(2764.5 -1.17254e-09 2.26212e-13)
(2764.5 -1.1814e-09 2.20795e-13)
(2764.5 -1.19509e-09 2.16968e-13)
(2764.5 -1.20781e-09 2.18952e-13)
(2764.5 -1.2184e-09 2.14955e-13)
(2764.5 -1.23213e-09 2.17558e-13)
(2764.5 -1.24474e-09 2.15715e-13)
(2764.5 -1.25632e-09 2.15188e-13)
(2764.5 -1.26692e-09 2.17959e-13)
(2764.5 -1.27326e-09 2.11904e-13)
(2764.5 -1.2831e-09 2.13531e-13)
(2764.5 -1.29685e-09 2.18286e-13)
(2764.5 -1.30884e-09 2.1908e-13)
(2764.5 -1.31998e-09 2.21559e-13)
(2764.5 -1.33072e-09 2.17888e-13)
(2764.5 -1.34531e-09 2.15459e-13)
(2764.5 -1.3601e-09 2.1765e-13)
(2764.5 -1.38225e-09 2.20049e-13)
(2764.5 -1.40086e-09 2.19904e-13)
(2764.5 -1.42177e-09 2.19568e-13)
(2764.5 -1.43707e-09 2.22267e-13)
(2764.5 -1.03781e-09 2.41122e-13)
(2764.5 -1.05414e-09 2.44518e-13)
(2764.5 -1.06205e-09 2.4081e-13)
(2764.5 -1.07175e-09 2.39019e-13)
(2764.5 -1.08231e-09 2.42401e-13)
(2764.5 -1.09437e-09 2.34768e-13)
(2764.5 -1.10629e-09 2.40318e-13)
(2764.5 -1.12197e-09 2.39503e-13)
(2764.5 -1.13664e-09 2.3218e-13)
(2764.5 -1.14248e-09 2.3563e-13)
(2764.5 -1.14729e-09 2.35092e-13)
(2764.5 -1.15061e-09 2.31002e-13)
(2764.5 -1.15421e-09 2.29872e-13)
(2764.5 -1.15409e-09 2.34233e-13)
(2764.5 -1.15963e-09 2.34417e-13)
(2764.5 -1.16823e-09 2.30377e-13)
(2764.5 -1.17758e-09 2.37537e-13)
(2764.5 -1.18686e-09 2.3435e-13)
(2764.5 -1.19773e-09 2.30146e-13)
(2764.5 -1.21096e-09 2.29491e-13)
(2764.5 -1.22017e-09 2.32525e-13)
(2764.5 -1.22632e-09 2.29116e-13)
(2764.5 -1.23838e-09 2.30834e-13)
(2764.5 -1.25408e-09 2.30452e-13)
(2764.5 -1.26604e-09 2.25423e-13)
(2764.5 -1.28133e-09 2.3184e-13)
(2764.5 -1.29706e-09 2.31857e-13)
(2764.5 -1.3126e-09 2.28627e-13)
(2764.5 -1.3263e-09 2.28628e-13)
(2764.5 -1.33305e-09 2.30564e-13)
(2764.5 -1.33977e-09 2.36597e-13)
(2764.5 -1.35334e-09 2.25408e-13)
(2764.5 -1.36277e-09 2.26825e-13)
(2764.5 -1.37063e-09 2.35948e-13)
(2764.5 -1.37805e-09 2.29956e-13)
(2764.5 -1.38937e-09 2.29299e-13)
(2764.5 -1.39992e-09 2.33384e-13)
(2764.5 -1.42043e-09 2.35385e-13)
(2764.5 -1.44057e-09 2.30708e-13)
(2764.5 -1.46232e-09 2.3288e-13)
(2764.5 -1.47578e-09 2.307e-13)
(2764.5 -1.07338e-09 2.57431e-13)
(2764.5 -1.08728e-09 2.61265e-13)
(2764.5 -1.0987e-09 2.523e-13)
(2764.5 -1.10981e-09 2.51583e-13)
(2764.5 -1.12215e-09 2.54895e-13)
(2764.5 -1.13227e-09 2.50672e-13)
(2764.5 -1.14457e-09 2.49591e-13)
(2764.5 -1.15999e-09 2.45621e-13)
(2764.5 -1.17476e-09 2.48801e-13)
(2764.5 -1.18557e-09 2.51725e-13)
(2764.5 -1.19078e-09 2.46633e-13)
(2764.5 -1.1964e-09 2.4412e-13)
(2764.5 -1.20464e-09 2.47313e-13)
(2764.5 -1.211e-09 2.47988e-13)
(2764.5 -1.21712e-09 2.43953e-13)
(2764.5 -1.22472e-09 2.431e-13)
(2764.5 -1.23109e-09 2.46276e-13)
(2764.5 -1.23862e-09 2.4461e-13)
(2764.5 -1.24623e-09 2.43498e-13)
(2764.5 -1.25441e-09 2.43855e-13)
(2764.5 -1.26297e-09 2.41293e-13)
(2764.5 -1.26967e-09 2.47776e-13)
(2764.5 -1.27984e-09 2.45009e-13)
(2764.5 -1.29418e-09 2.30845e-13)
(2764.5 -1.30777e-09 2.39248e-13)
(2764.5 -1.32365e-09 2.45374e-13)
(2764.5 -1.34405e-09 2.3859e-13)
(2764.5 -1.36253e-09 2.39685e-13)
(2764.5 -1.37953e-09 2.39471e-13)
(2764.5 -1.39194e-09 2.41555e-13)
(2764.5 -1.39738e-09 2.38651e-13)
(2764.5 -1.40775e-09 2.38327e-13)
(2764.5 -1.41702e-09 2.45802e-13)
(2764.5 -1.42449e-09 2.45696e-13)
(2764.5 -1.43068e-09 2.48756e-13)
(2764.5 -1.43965e-09 2.47859e-13)
(2764.5 -1.4474e-09 2.44457e-13)
(2764.5 -1.46091e-09 2.44898e-13)
(2764.5 -1.47877e-09 2.52819e-13)
(2764.5 -1.50431e-09 2.47575e-13)
(2764.5 -1.52389e-09 2.44948e-13)
(2764.5 -1.12084e-09 2.72713e-13)
(2764.5 -1.12701e-09 2.7885e-13)
(2764.5 -1.13333e-09 2.6418e-13)
(2764.5 -1.14567e-09 2.65751e-13)
(2764.5 -1.15563e-09 2.68426e-13)
(2764.5 -1.16602e-09 2.66345e-13)
(2764.5 -1.17668e-09 2.61443e-13)
(2764.5 -1.18649e-09 2.64206e-13)
(2764.5 -1.20043e-09 2.6239e-13)
(2764.5 -1.21262e-09 2.66538e-13)
(2764.5 -1.22359e-09 2.6794e-13)
(2764.5 -1.231e-09 2.57832e-13)
(2764.5 -1.23705e-09 2.59299e-13)
(2764.5 -1.24466e-09 2.59493e-13)
(2764.5 -1.25469e-09 2.60024e-13)
(2764.5 -1.26524e-09 2.59779e-13)
(2764.5 -1.27437e-09 2.63349e-13)
(2764.5 -1.28041e-09 2.58567e-13)
(2764.5 -1.28605e-09 2.54246e-13)
(2764.5 -1.29262e-09 2.53179e-13)
(2764.5 -1.29812e-09 2.52269e-13)
(2764.5 -1.30316e-09 2.52942e-13)
(2764.5 -1.30873e-09 2.54142e-13)
(2764.5 -1.31945e-09 2.50793e-13)
(2764.5 -1.33303e-09 2.55948e-13)
(2764.5 -1.34813e-09 2.58016e-13)
(2764.5 -1.36229e-09 2.57056e-13)
(2764.5 -1.38184e-09 2.5632e-13)
(2764.5 -1.40243e-09 2.56878e-13)
(2764.5 -1.4196e-09 2.53569e-13)
(2764.5 -1.43503e-09 2.53112e-13)
(2764.5 -1.44634e-09 2.64681e-13)
(2764.5 -1.45765e-09 2.59822e-13)
(2764.5 -1.46758e-09 2.48564e-13)
(2764.5 -1.47576e-09 2.50361e-13)
(2764.5 -1.48339e-09 2.52673e-13)
(2764.5 -1.49179e-09 2.54805e-13)
(2764.5 -1.5009e-09 2.52966e-13)
(2764.5 -1.51702e-09 2.60018e-13)
(2764.5 -1.5336e-09 2.63823e-13)
(2764.5 -1.55585e-09 2.54809e-13)
(2764.5 -1.56929e-09 2.54232e-13)
(2764.5 -1.16844e-09 2.86717e-13)
(2764.5 -1.1689e-09 2.83151e-13)
(2764.5 -1.17264e-09 2.79375e-13)
(2764.5 -1.18468e-09 2.83673e-13)
(2764.5 -1.19385e-09 2.84861e-13)
(2764.5 -1.20322e-09 2.80966e-13)
(2764.5 -1.21093e-09 2.78856e-13)
(2764.5 -1.22107e-09 2.7932e-13)
(2764.5 -1.23119e-09 2.78468e-13)
(2764.5 -1.2428e-09 2.77692e-13)
(2764.5 -1.25305e-09 2.79654e-13)
(2764.5 -1.2627e-09 2.75125e-13)
(2764.5 -1.27032e-09 2.70792e-13)
(2764.5 -1.27779e-09 2.72861e-13)
(2764.5 -1.28589e-09 2.7322e-13)
(2764.5 -1.29671e-09 2.70277e-13)
(2764.5 -1.30742e-09 2.7233e-13)
(2764.5 -1.31732e-09 2.6793e-13)
(2764.5 -1.32535e-09 2.63783e-13)
(2764.5 -1.33267e-09 2.62147e-13)
(2764.5 -1.33846e-09 2.63909e-13)
(2764.5 -1.34258e-09 2.68255e-13)
(2764.5 -1.34672e-09 2.70931e-13)
(2764.5 -1.34968e-09 2.62473e-13)
(2764.5 -1.35892e-09 2.68924e-13)
(2764.5 -1.371e-09 2.70939e-13)
(2764.5 -1.38762e-09 2.66664e-13)
(2764.5 -1.40266e-09 2.65748e-13)
(2764.5 -1.42076e-09 2.66071e-13)
(2764.5 -1.44018e-09 2.63771e-13)
(2764.5 -1.45838e-09 2.62294e-13)
(2764.5 -1.47447e-09 2.67499e-13)
(2764.5 -1.48934e-09 2.67015e-13)
(2764.5 -1.50327e-09 2.61865e-13)
(2764.5 -1.5168e-09 2.62393e-13)
(2764.5 -1.52612e-09 2.64895e-13)
(2764.5 -1.53897e-09 2.62948e-13)
(2764.5 -1.55195e-09 2.67132e-13)