/*--------------------------------*- C++ -*----------------------------------*\
| =========                 |                                                 |
| \\      /  F ield         | OpenFOAM: The Open Source CFD Toolbox           |
|  \\    /   O peration     | Version:  v1706                                 |
|   \\  /    A nd           | Web:      www.OpenFOAM.com                      |
|    \\/     M anipulation  |                                                 |
\*---------------------------------------------------------------------------*/
FoamFile
{
    version     2.0;
    format      ascii;
    class       volScalarField;
    location    "1.2e-05";
    object      wallHeatFlux;
}
// * * * * * * * * * * * * * * * * * * * * * * * * * * * * * * * * * * * * * //

dimensions      [1 0 -3 0 0 0 0];


internalField   uniform 0;

boundaryField
{
    cone
    {
        type            calculated;
        value           nonuniform List<scalar> 
153
(
478138
472573
467031
461511
456014
450537
445083
439649
434238
428849
423482
418139
412819
407523
402252
397006
391785
386590
381421
376278
371162
366072
361010
355975
350967
345987
341035
336111
331215
326346
321505
316691
311905
307148
302417
297713
293035
288383
283758
279156
274577
270022
265473
260927
256382
251827
247243
242452
237560
232898
228442
224164
220021
215984
212035
208164
204363
200627
196952
193336
189779
186281
182841
179461
176142
172885
169692
166565
163505
160515
157596
154750
151980
149286
146670
144133
141676
139299
137002
134786
132647
130585
128595
126676
124821
123025
121282
119585
117929
116306
114712
113141
111594
110070
108572
107108
105686
104319
103020
101804
100686
99682.1
98810.5
98083.5
97487.1
97003
96629.4
96349.6
96130.4
95930.1
95700.9
95384.5
94939.1
94323.7
93488.5
92389.7
91004.4
89327.8
87373.1
85172.7
82775.7
80245.9
77656.3
75084.1
72605.1
70287.9
68190.8
66358.4
64821
63597.4
62685
62079
61777.7
61776
62063.2
62618.6
63406
64384.8
65513.8
66748.1
68043.1
69358.2
70661.8
71932.9
73164.1
74363.4
75557.8
76788
78101.9
79556.1
81213.4
83140.6
85405.1
)
;
    }
    inlet
    {
        type            calculated;
        value           uniform 0;
    }
    rWedge
    {
        type            wedge;
    }
    lWedge
    {
        type            wedge;
    }
    outlet
    {
        type            calculated;
        value           nonuniform 0();
    }
    procBoundary2to0
    {
        type            processor;
        value           uniform 0;
    }
    procBoundary2to1
    {
        type            processor;
        value           uniform 0;
    }
    procBoundary2to3
    {
        type            processor;
        value           uniform 0;
    }
}


// ************************************************************************* //
