/*--------------------------------*- C++ -*----------------------------------*\
| =========                 |                                                 |
| \\      /  F ield         | OpenFOAM: The Open Source CFD Toolbox           |
|  \\    /   O peration     | Version:  v1706                                 |
|   \\  /    A nd           | Web:      www.OpenFOAM.com                      |
|    \\/     M anipulation  |                                                 |
\*---------------------------------------------------------------------------*/
FoamFile
{
    version     2.0;
    format      ascii;
    class       volVectorField;
    location    "4e-06";
    object      U;
}
// * * * * * * * * * * * * * * * * * * * * * * * * * * * * * * * * * * * * * //

dimensions      [0 1 -1 0 0 0 0];


internalField   nonuniform List<vector> 
29987
(
(2764.5 -2.08816e-08 4.07631e-11)
(2764.5 -6.56007e-09 1.1994e-11)
(2764.5 -3.16299e-09 5.80805e-12)
(2764.5 -1.9579e-09 3.48199e-12)
(2764.5 -1.33514e-09 2.32667e-12)
(2764.5 -9.66592e-10 1.68271e-12)
(2764.5 -7.29604e-10 1.28786e-12)
(2764.5 -5.70409e-10 1.01257e-12)
(2764.5 -4.64213e-10 8.0459e-13)
(2764.5 -3.82242e-10 6.92757e-13)
(2764.5 -3.18775e-10 5.1403e-13)
(2764.5 -2.72308e-10 4.47052e-13)
(2764.5 -2.36311e-10 4.11476e-13)
(2764.5 -2.04578e-10 3.49519e-13)
(2764.5 -1.83754e-10 3.10575e-13)
(2764.5 -1.66212e-10 2.60778e-13)
(2764.5 -1.46542e-10 2.25372e-13)
(2764.5 -1.32967e-10 1.95546e-13)
(2764.5 -1.22136e-10 1.86859e-13)
(2764.5 -1.1143e-10 1.73735e-13)
(2764.5 -9.88493e-11 1.68867e-13)
(2764.5 -9.68744e-11 1.42497e-13)
(2764.5 -8.82324e-11 1.32745e-13)
(2764.5 -7.92542e-11 1.15446e-13)
(2764.5 -7.82733e-11 1.17703e-13)
(2764.5 -7.28606e-11 1.14885e-13)
(2764.5 -6.54576e-11 9.2519e-14)
(2764.5 -6.66235e-11 8.16958e-14)
(2764.5 -6.01001e-11 8.85578e-14)
(2764.5 -5.57912e-11 7.92797e-14)
(2764.5 -5.41754e-11 8.81196e-14)
(2764.5 -5.51432e-11 7.33972e-14)
(2764.5 -4.90393e-11 6.5727e-14)
(2764.5 -5.02445e-11 6.12527e-14)
(2764.5 -4.7262e-11 6.34881e-14)
(2764.5 -4.67454e-11 5.63528e-14)
(2764.5 -4.30656e-11 5.44321e-14)
(2764.5 -4.11498e-11 4.45647e-14)
(2764.5 -3.81327e-11 4.29554e-14)
(2764.5 -4.06967e-11 4.74016e-14)
(2764.5 -3.77648e-11 3.59932e-14)
(2764.5 -3.62109e-11 3.86196e-14)
(2764.5 -3.84071e-11 4.57566e-14)
(2764.5 -3.65529e-11 3.77302e-14)
(2764.5 -3.47104e-11 3.63629e-14)
(2764.5 -3.13719e-11 3.11082e-14)
(2764.5 -3.34573e-11 4.51234e-14)
(2764.5 -3.4409e-11 3.34783e-14)
(2764.5 -3.12434e-11 2.99488e-14)
(2764.5 -3.24165e-11 3.35929e-14)
(2764.5 -3.10597e-11 3.28718e-14)
(2764.5 -3.03196e-11 2.89786e-14)
(2764.5 -2.93389e-11 2.77913e-14)
(2764.5 -2.96366e-11 2.70429e-14)
(2764.5 -2.87652e-11 2.84757e-14)
(2764.5 -2.66295e-11 2.1958e-14)
(2764.5 -2.90594e-11 2.00515e-14)
(2764.5 -2.92741e-11 2.0465e-14)
(2764.5 -2.84719e-11 1.98653e-14)
(2764.5 -2.99251e-11 2.41204e-14)
(2764.5 -2.64849e-11 2.50188e-14)
(2764.5 -2.41849e-11 1.42179e-14)
(2764.5 -2.75811e-11 1.88543e-14)
(2764.5 -2.55344e-11 2.17144e-14)
(2764.5 -2.33202e-11 1.65227e-14)
(2764.5 -2.48069e-11 1.46478e-14)
(2764.5 -2.45058e-11 1.58331e-14)
(2764.5 -2.52652e-11 1.7171e-14)
(2764.5 -2.61865e-11 1.85283e-14)
(2764.5 -2.51243e-11 1.68148e-14)
(2764.5 -2.61903e-11 1.35929e-14)
(2764.5 -2.47122e-11 1.52906e-14)
(2764.5 -2.4224e-11 1.3571e-14)
(2764.5 -2.35935e-11 1.49894e-14)
(2764.5 -2.49953e-11 1.90946e-14)
(2764.5 -2.56115e-11 1.62243e-14)
(2764.5 -2.46747e-11 1.43214e-14)
(2764.5 -2.31048e-11 1.63701e-14)
(2764.5 -2.20689e-11 9.50029e-15)
(2764.5 -2.20097e-11 8.09944e-15)
(2764.5 -2.22289e-11 1.26472e-14)
(2764.5 -2.41281e-11 1.24418e-14)
(2764.5 -2.52775e-11 7.98702e-15)
(2764.5 -2.36219e-11 1.04715e-14)
(2764.5 -2.34041e-11 1.1713e-14)
(2764.5 -2.33373e-11 1.01966e-14)
(2764.5 -2.31076e-11 9.05173e-15)
(2764.5 -2.34527e-11 9.44386e-15)
(2764.5 -2.33002e-11 1.27721e-14)
(2764.5 -2.47774e-11 8.83922e-15)
(2764.5 -2.51456e-11 6.35604e-15)
(2764.5 -2.43591e-11 7.24628e-15)
(2764.5 -2.149e-11 1.02802e-14)
(2764.5 -2.27007e-11 1.23256e-14)
(2764.5 -2.45455e-11 1.27094e-14)
(2764.5 -2.30243e-11 1.22081e-14)
(2764.5 -2.16473e-11 9.03991e-15)
(2764.5 -2.26326e-11 1.08543e-14)
(2764.5 -2.36141e-11 1.22337e-14)
(2764.5 -2.37047e-11 8.79652e-15)
(2764.5 -2.52272e-11 7.42489e-15)
(2764.5 -2.55263e-11 1.29263e-14)
(2764.5 -2.60144e-11 1.35859e-14)
(2764.5 -2.58845e-11 9.64329e-15)
(2764.5 -2.63144e-11 9.9666e-15)
(2764.5 -2.64035e-11 8.4414e-15)
(2764.5 -2.61288e-11 6.20723e-15)
(2764.5 -2.55734e-11 7.04849e-15)
(2764.5 -2.42838e-11 1.03474e-14)
(2764.5 -2.394e-11 7.01095e-15)
(2764.5 -2.53479e-11 7.0445e-15)
(2764.5 -2.60303e-11 6.35719e-15)
(2764.5 -2.50119e-11 9.06701e-15)
(2764.5 -2.36705e-11 8.44509e-15)
(2764.5 -2.44006e-11 1.02317e-14)
(2764.5 -2.37807e-11 7.72388e-15)
(2764.5 -2.42218e-11 8.31746e-15)
(2764.5 -2.36639e-11 1.09692e-14)
(2764.5 -2.44157e-11 1.10714e-14)
(2764.5 -2.68452e-11 6.56287e-15)
(2764.5 -2.89866e-11 7.11579e-15)
(2764.5 -2.95917e-11 8.59172e-15)
(2764.5 -2.92647e-11 6.88378e-15)
(2764.5 -3.10679e-11 8.60414e-15)
(2764.5 -3.07316e-11 9.41655e-15)
(2764.5 -3.01617e-11 7.60134e-15)
(2764.5 -2.83972e-11 8.90675e-15)
(2764.5 -2.94903e-11 8.35002e-15)
(2764.5 -3.04646e-11 9.17676e-15)
(2764.5 -3.1148e-11 5.92894e-15)
(2764.5 -3.12852e-11 1.23926e-14)
(2764.5 -3.08062e-11 1.34446e-14)
(2764.5 -3.02536e-11 6.52082e-15)
(2764.5 -3.03995e-11 4.95445e-15)
(2764.5 -2.93461e-11 7.29476e-15)
(2764.5 -2.91126e-11 1.02347e-15)
(2764.5 -2.68113e-11 8.94185e-15)
(2764.5 -2.68515e-11 8.89557e-15)
(2764.5 -2.73827e-11 5.80401e-15)
(2764.5 -2.76538e-11 9.17062e-15)
(2764.5 -2.69058e-11 5.82622e-15)
(2764.5 -3.04295e-11 1.04375e-15)
(2764.5 -3.76872e-11 6.39538e-15)
(2764.5 -3.82264e-11 5.87744e-15)
(2764.5 -3.83436e-11 7.28246e-15)
(2764.5 -3.39159e-11 8.23165e-15)
(2764.5 -2.80206e-11 1.00475e-14)
(2764.5 -3.02948e-11 8.46918e-15)
(2764.5 -3.17196e-11 6.07572e-15)
(2764.5 -3.59771e-11 6.64388e-15)
(2764.5 -3.84281e-11 4.686e-15)
(2764.5 -3.66875e-11 4.80068e-15)
(2764.5 -3.85006e-11 2.88101e-15)
(2764.5 -3.98377e-11 8.54555e-15)
(2764.5 -3.69159e-11 6.19999e-15)
(2764.5 -4.08225e-11 6.47084e-15)
(2764.5 -6.69568e-08 1.179e-10)
(2764.5 -2.47847e-08 4.14986e-11)
(2764.5 -1.13556e-08 1.87723e-11)
(2764.5 -6.6037e-09 1.10512e-11)
(2764.5 -4.39092e-09 7.38304e-12)
(2764.5 -3.14755e-09 5.31735e-12)
(2764.5 -2.36917e-09 3.9951e-12)
(2764.5 -1.85372e-09 3.07308e-12)
(2764.5 -1.49628e-09 2.48372e-12)
(2764.5 -1.23004e-09 2.04211e-12)
(2764.5 -1.03102e-09 1.60913e-12)
(2764.5 -8.78365e-10 1.40897e-12)
(2764.5 -7.59515e-10 1.19186e-12)
(2764.5 -6.57614e-10 1.04728e-12)
(2764.5 -5.84698e-10 8.90507e-13)
(2764.5 -5.29409e-10 8.25926e-13)
(2764.5 -4.68935e-10 7.13661e-13)
(2764.5 -4.25347e-10 6.31279e-13)
(2764.5 -3.90502e-10 5.82583e-13)
(2764.5 -3.61885e-10 5.218e-13)
(2764.5 -3.25221e-10 4.84538e-13)
(2764.5 -3.01466e-10 4.15098e-13)
(2764.5 -2.76835e-10 3.93539e-13)
(2764.5 -2.60021e-10 3.54257e-13)
(2764.5 -2.47367e-10 3.43836e-13)
(2764.5 -2.27754e-10 3.34743e-13)
(2764.5 -2.07621e-10 2.91362e-13)
(2764.5 -2.12516e-10 2.66411e-13)
(2764.5 -1.92231e-10 2.65325e-13)
(2764.5 -1.79341e-10 2.4933e-13)
(2764.5 -1.7119e-10 2.18119e-13)
(2764.5 -1.6453e-10 2.17409e-13)
(2764.5 -1.60386e-10 1.78824e-13)
(2764.5 -1.53157e-10 1.69891e-13)
(2764.5 -1.43748e-10 1.71527e-13)
(2764.5 -1.45288e-10 1.75394e-13)
(2764.5 -1.40093e-10 1.60691e-13)
(2764.5 -1.34545e-10 1.52045e-13)
(2764.5 -1.25088e-10 1.4032e-13)
(2764.5 -1.22518e-10 1.28653e-13)
(2764.5 -1.20784e-10 1.10116e-13)
(2764.5 -1.13768e-10 1.17543e-13)
(2764.5 -1.14342e-10 1.28199e-13)
(2764.5 -1.10538e-10 1.10173e-13)
(2764.5 -1.0707e-10 9.0333e-14)
(2764.5 -1.01531e-10 1.07877e-13)
(2764.5 -1.00163e-10 1.10522e-13)
(2764.5 -1.02614e-10 9.08673e-14)
(2764.5 -9.33704e-11 9.00657e-14)
(2764.5 -9.47083e-11 9.84587e-14)
(2764.5 -1.00392e-10 9.56967e-14)
(2764.5 -9.45555e-11 7.83178e-14)
(2764.5 -9.2288e-11 7.91747e-14)
(2764.5 -9.25274e-11 6.42937e-14)
(2764.5 -8.95611e-11 6.98498e-14)
(2764.5 -8.19314e-11 6.29591e-14)
(2764.5 -8.11779e-11 6.48397e-14)
(2764.5 -8.27489e-11 6.4789e-14)
(2764.5 -8.28257e-11 6.91273e-14)
(2764.5 -8.99504e-11 7.03852e-14)
(2764.5 -8.57725e-11 6.1794e-14)
(2764.5 -7.89439e-11 4.47882e-14)
(2764.5 -8.04125e-11 6.28068e-14)
(2764.5 -8.09893e-11 5.84386e-14)
(2764.5 -7.624e-11 5.20081e-14)
(2764.5 -7.60092e-11 5.33412e-14)
(2764.5 -7.63064e-11 4.54448e-14)
(2764.5 -7.59165e-11 5.16924e-14)
(2764.5 -7.68497e-11 5.4765e-14)
(2764.5 -7.39305e-11 4.65055e-14)
(2764.5 -7.68769e-11 4.65406e-14)
(2764.5 -7.66311e-11 4.97419e-14)
(2764.5 -7.4319e-11 4.4792e-14)
(2764.5 -7.01464e-11 4.84058e-14)
(2764.5 -7.09988e-11 5.11991e-14)
(2764.5 -7.49591e-11 5.14021e-14)
(2764.5 -7.469e-11 4.54931e-14)
(2764.5 -7.6386e-11 4.52012e-14)
(2764.5 -7.52975e-11 3.17237e-14)
(2764.5 -7.27913e-11 3.10384e-14)
(2764.5 -6.73884e-11 3.56384e-14)
(2764.5 -6.85972e-11 3.41552e-14)
(2764.5 -7.09098e-11 2.88283e-14)
(2764.5 -7.18999e-11 3.72094e-14)
(2764.5 -6.94584e-11 4.33043e-14)
(2764.5 -7.22206e-11 3.98975e-14)
(2764.5 -7.08137e-11 3.34404e-14)
(2764.5 -7.27761e-11 3.98556e-14)
(2764.5 -6.72536e-11 3.61864e-14)
(2764.5 -6.86301e-11 2.66261e-14)
(2764.5 -7.31733e-11 3.16642e-14)
(2764.5 -7.69043e-11 2.71938e-14)
(2764.5 -7.40044e-11 3.22e-14)
(2764.5 -7.12051e-11 3.40934e-14)
(2764.5 -7.12424e-11 3.92691e-14)
(2764.5 -7.48038e-11 3.18663e-14)
(2764.5 -7.23323e-11 2.5131e-14)
(2764.5 -6.8501e-11 2.63978e-14)
(2764.5 -7.10433e-11 2.67955e-14)
(2764.5 -6.88264e-11 2.64645e-14)
(2764.5 -6.8882e-11 2.66247e-14)
(2764.5 -7.26874e-11 2.74164e-14)
(2764.5 -7.14255e-11 3.14034e-14)
(2764.5 -7.35759e-11 1.99034e-14)
(2764.5 -7.5001e-11 2.0741e-14)
(2764.5 -7.49711e-11 1.95898e-14)
(2764.5 -7.49125e-11 2.22467e-14)
(2764.5 -7.90553e-11 2.30824e-14)
(2764.5 -7.68198e-11 2.05853e-14)
(2764.5 -7.36978e-11 2.03549e-14)
(2764.5 -7.32194e-11 2.33106e-14)
(2764.5 -7.65682e-11 2.20004e-14)
(2764.5 -7.74147e-11 2.39672e-14)
(2764.5 -7.50084e-11 2.47456e-14)
(2764.5 -7.50523e-11 2.65213e-14)
(2764.5 -7.36711e-11 2.53433e-14)
(2764.5 -7.57228e-11 2.62044e-14)
(2764.5 -7.4984e-11 2.65041e-14)
(2764.5 -7.36454e-11 2.31176e-14)
(2764.5 -7.20838e-11 1.7535e-14)
(2764.5 -7.52258e-11 1.9585e-14)
(2764.5 -7.77881e-11 2.04862e-14)
(2764.5 -7.7522e-11 2.13488e-14)
(2764.5 -7.83427e-11 2.31793e-14)
(2764.5 -8.19315e-11 2.36815e-14)
(2764.5 -8.64905e-11 2.2105e-14)
(2764.5 -8.65769e-11 2.30913e-14)
(2764.5 -8.6127e-11 2.14857e-14)
(2764.5 -8.50314e-11 2.13616e-14)
(2764.5 -8.47392e-11 2.3694e-14)
(2764.5 -8.55045e-11 2.63526e-14)
(2764.5 -8.8256e-11 1.97641e-14)
(2764.5 -8.87551e-11 1.82939e-14)
(2764.5 -9.13225e-11 1.90512e-14)
(2764.5 -9.16332e-11 1.869e-14)
(2764.5 -9.15013e-11 1.87434e-14)
(2764.5 -9.06558e-11 2.2026e-14)
(2764.5 -8.91914e-11 1.60571e-14)
(2764.5 -8.96108e-11 2.31574e-14)
(2764.5 -8.94772e-11 2.56883e-14)
(2764.5 -8.688e-11 1.39836e-14)
(2764.5 -8.17614e-11 2.04687e-14)
(2764.5 -8.42209e-11 1.8901e-14)
(2764.5 -8.65581e-11 2.21655e-14)
(2764.5 -9.3432e-11 1.58805e-14)
(2764.5 -1.05375e-10 2.08871e-14)
(2764.5 -9.84745e-11 1.98226e-14)
(2764.5 -9.81682e-11 1.98661e-14)
(2764.5 -9.5673e-11 2.9688e-14)
(2764.5 -9.56087e-11 1.89161e-14)
(2764.5 -1.0166e-10 1.69523e-14)
(2764.5 -1.01798e-10 1.38585e-14)
(2764.5 -1.01877e-10 1.40087e-14)
(2764.5 -1.06276e-10 1.79188e-14)
(2764.5 -1.09146e-10 1.89879e-14)
(2764.5 -1.07762e-10 1.81525e-14)
(2764.5 -1.06278e-07 1.8205e-10)
(2764.5 -4.53316e-08 7.33474e-11)
(2764.5 -2.12532e-08 3.34594e-11)
(2764.5 -1.20326e-08 1.91587e-11)
(2764.5 -7.84167e-09 1.25011e-11)
(2764.5 -5.57066e-09 8.86154e-12)
(2764.5 -4.18144e-09 6.69537e-12)
(2764.5 -3.26353e-09 5.14609e-12)
(2764.5 -2.62072e-09 4.15105e-12)
(2764.5 -2.15626e-09 3.35696e-12)
(2764.5 -1.80559e-09 2.79119e-12)
(2764.5 -1.53544e-09 2.41123e-12)
(2764.5 -1.32299e-09 2.04806e-12)
(2764.5 -1.15166e-09 1.75571e-12)
(2764.5 -1.02204e-09 1.54498e-12)
(2764.5 -9.17136e-10 1.37016e-12)
(2764.5 -8.17847e-10 1.17746e-12)
(2764.5 -7.42133e-10 1.07611e-12)
(2764.5 -6.75594e-10 9.6716e-13)
(2764.5 -6.2252e-10 9.01103e-13)
(2764.5 -5.72045e-10 7.99976e-13)
(2764.5 -5.25357e-10 6.9385e-13)
(2764.5 -4.81467e-10 6.7078e-13)
(2764.5 -4.54134e-10 6.03505e-13)
(2764.5 -4.28409e-10 5.95898e-13)
(2764.5 -3.97467e-10 5.47551e-13)
(2764.5 -3.69393e-10 5.21114e-13)
(2764.5 -3.60685e-10 4.67848e-13)
(2764.5 -3.33422e-10 4.26949e-13)
(2764.5 -3.09813e-10 4.09948e-13)
(2764.5 -2.97393e-10 3.64069e-13)
(2764.5 -2.85556e-10 3.7314e-13)
(2764.5 -2.77011e-10 3.20262e-13)
(2764.5 -2.60691e-10 3.15237e-13)
(2764.5 -2.48264e-10 3.12636e-13)
(2764.5 -2.42488e-10 2.81204e-13)
(2764.5 -2.37534e-10 2.57802e-13)
(2764.5 -2.29722e-10 2.58898e-13)
(2764.5 -2.19275e-10 2.49027e-13)
(2764.5 -2.12539e-10 2.20243e-13)
(2764.5 -2.07517e-10 2.11286e-13)
(2764.5 -1.99226e-10 2.06399e-13)
(2764.5 -1.96777e-10 2.10979e-13)
(2764.5 -1.88945e-10 1.96211e-13)
(2764.5 -1.82148e-10 1.69076e-13)
(2764.5 -1.723e-10 1.77515e-13)
(2764.5 -1.68598e-10 1.71172e-13)
(2764.5 -1.70584e-10 1.68479e-13)
(2764.5 -1.65042e-10 1.63348e-13)
(2764.5 -1.61598e-10 1.7279e-13)
(2764.5 -1.68123e-10 1.53372e-13)
(2764.5 -1.60395e-10 1.40507e-13)
(2764.5 -1.53748e-10 1.32999e-13)
(2764.5 -1.56976e-10 1.28135e-13)
(2764.5 -1.53366e-10 1.24444e-13)
(2764.5 -1.44295e-10 1.21969e-13)
(2764.5 -1.44036e-10 1.14963e-13)
(2764.5 -1.41011e-10 1.07469e-13)
(2764.5 -1.37302e-10 1.20993e-13)
(2764.5 -1.47294e-10 1.14734e-13)
(2764.5 -1.44331e-10 1.06673e-13)
(2764.5 -1.36998e-10 1.08088e-13)
(2764.5 -1.33163e-10 1.04102e-13)
(2764.5 -1.35273e-10 8.47838e-14)
(2764.5 -1.30511e-10 9.35994e-14)
(2764.5 -1.32076e-10 8.9707e-14)
(2764.5 -1.28341e-10 7.89645e-14)
(2764.5 -1.25585e-10 9.15657e-14)
(2764.5 -1.28213e-10 8.14912e-14)
(2764.5 -1.23374e-10 7.66617e-14)
(2764.5 -1.26146e-10 7.68592e-14)
(2764.5 -1.27184e-10 7.90833e-14)
(2764.5 -1.27266e-10 7.36654e-14)
(2764.5 -1.20294e-10 7.50209e-14)
(2764.5 -1.18442e-10 8.05916e-14)
(2764.5 -1.22321e-10 8.22203e-14)
(2764.5 -1.24013e-10 6.98873e-14)
(2764.5 -1.24292e-10 7.06882e-14)
(2764.5 -1.26123e-10 6.968e-14)
(2764.5 -1.24821e-10 6.47615e-14)
(2764.5 -1.20371e-10 6.22795e-14)
(2764.5 -1.1853e-10 5.72407e-14)
(2764.5 -1.20374e-10 5.2965e-14)
(2764.5 -1.21835e-10 5.37457e-14)
(2764.5 -1.18628e-10 5.53068e-14)
(2764.5 -1.19008e-10 5.48703e-14)
(2764.5 -1.17759e-10 6.01566e-14)
(2764.5 -1.19258e-10 6.59264e-14)
(2764.5 -1.16603e-10 5.88933e-14)
(2764.5 -1.13697e-10 5.72483e-14)
(2764.5 -1.15417e-10 5.20109e-14)
(2764.5 -1.21447e-10 4.92638e-14)
(2764.5 -1.20309e-10 5.71415e-14)
(2764.5 -1.19223e-10 6.26634e-14)
(2764.5 -1.16777e-10 6.39962e-14)
(2764.5 -1.21827e-10 4.62079e-14)
(2764.5 -1.22571e-10 4.06235e-14)
(2764.5 -1.19307e-10 4.40914e-14)
(2764.5 -1.17026e-10 4.75121e-14)
(2764.5 -1.15262e-10 4.82416e-14)
(2764.5 -1.16043e-10 4.23343e-14)
(2764.5 -1.19526e-10 4.76316e-14)
(2764.5 -1.18167e-10 4.90375e-14)
(2764.5 -1.19326e-10 4.24528e-14)
(2764.5 -1.20895e-10 4.7907e-14)
(2764.5 -1.22588e-10 4.34874e-14)
(2764.5 -1.2402e-10 4.01719e-14)
(2764.5 -1.26905e-10 3.70398e-14)
(2764.5 -1.29503e-10 3.81735e-14)
(2764.5 -1.26802e-10 4.11836e-14)
(2764.5 -1.23082e-10 3.45927e-14)
(2764.5 -1.26393e-10 3.58292e-14)
(2764.5 -1.29127e-10 3.61813e-14)
(2764.5 -1.30331e-10 3.7895e-14)
(2764.5 -1.3205e-10 3.71992e-14)
(2764.5 -1.28823e-10 4.48936e-14)
(2764.5 -1.27768e-10 4.65168e-14)
(2764.5 -1.28545e-10 4.68203e-14)
(2764.5 -1.27646e-10 3.8342e-14)
(2764.5 -1.2338e-10 3.63936e-14)
(2764.5 -1.23691e-10 3.76796e-14)
(2764.5 -1.27262e-10 3.74406e-14)
(2764.5 -1.28725e-10 3.55598e-14)
(2764.5 -1.26206e-10 3.26104e-14)
(2764.5 -1.28426e-10 3.37155e-14)
(2764.5 -1.32385e-10 3.50888e-14)
(2764.5 -1.36269e-10 3.34222e-14)
(2764.5 -1.38644e-10 3.40591e-14)
(2764.5 -1.40376e-10 4.02309e-14)
(2764.5 -1.40795e-10 3.93853e-14)
(2764.5 -1.40171e-10 3.54431e-14)
(2764.5 -1.41723e-10 3.76665e-14)
(2764.5 -1.46531e-10 3.87201e-14)
(2764.5 -1.50217e-10 3.44288e-14)
(2764.5 -1.51822e-10 3.67941e-14)
(2764.5 -1.54827e-10 3.04945e-14)
(2764.5 -1.54269e-10 2.08876e-14)
(2764.5 -1.52444e-10 3.79791e-14)
(2764.5 -1.53853e-10 3.91352e-14)
(2764.5 -1.54062e-10 3.38926e-14)
(2764.5 -1.51859e-10 2.64865e-14)
(2764.5 -1.47706e-10 2.73963e-14)
(2764.5 -1.47292e-10 2.78887e-14)
(2764.5 -1.47577e-10 2.87374e-14)
(2764.5 -1.49338e-10 3.15795e-14)
(2764.5 -1.6053e-10 3.06702e-14)
(2764.5 -1.61886e-10 2.99073e-14)
(2764.5 -1.62185e-10 3.09637e-14)
(2764.5 -1.62874e-10 3.73162e-14)
(2764.5 -1.57948e-10 3.00998e-14)
(2764.5 -1.64745e-10 3.11978e-14)
(2764.5 -1.70848e-10 3.13288e-14)
(2764.5 -1.70862e-10 3.51091e-14)
(2764.5 -1.74975e-10 2.55674e-14)
(2764.5 -1.8229e-10 3.43013e-14)
(2764.5 -1.81323e-10 3.26185e-14)
(2764.5 -1.37734e-07 2.33187e-10)
(2764.5 -6.6398e-08 1.051e-10)
(2764.5 -3.25678e-08 4.94453e-11)
(2764.5 -1.8312e-08 2.76603e-11)
(2764.5 -1.17494e-08 1.77781e-11)
(2764.5 -8.25937e-09 1.25061e-11)
(2764.5 -6.1607e-09 9.40818e-12)
(2764.5 -4.79968e-09 7.30326e-12)
(2764.5 -3.85127e-09 5.83825e-12)
(2764.5 -3.161e-09 4.77431e-12)
(2764.5 -2.64223e-09 3.89623e-12)
(2764.5 -2.24354e-09 3.36561e-12)
(2764.5 -1.93493e-09 2.88078e-12)
(2764.5 -1.68655e-09 2.50157e-12)
(2764.5 -1.49544e-09 2.26073e-12)
(2764.5 -1.33198e-09 1.93355e-12)
(2764.5 -1.19468e-09 1.69107e-12)
(2764.5 -1.08075e-09 1.50899e-12)
(2764.5 -9.79145e-10 1.33592e-12)
(2764.5 -9.00173e-10 1.26494e-12)
(2764.5 -8.30021e-10 1.11979e-12)
(2764.5 -7.67167e-10 1.03628e-12)
(2764.5 -7.02861e-10 9.5347e-13)
(2764.5 -6.58498e-10 8.76216e-13)
(2764.5 -6.18634e-10 8.19005e-13)
(2764.5 -5.74576e-10 7.51749e-13)
(2764.5 -5.37376e-10 7.06961e-13)
(2764.5 -5.17689e-10 6.42054e-13)
(2764.5 -4.8768e-10 6.146e-13)
(2764.5 -4.56832e-10 5.67308e-13)
(2764.5 -4.31225e-10 5.39366e-13)
(2764.5 -4.10182e-10 5.13546e-13)
(2764.5 -3.96894e-10 4.94294e-13)
(2764.5 -3.81999e-10 4.57218e-13)
(2764.5 -3.64708e-10 4.36476e-13)
(2764.5 -3.50774e-10 3.98567e-13)
(2764.5 -3.36352e-10 3.76205e-13)
(2764.5 -3.25453e-10 3.42486e-13)
(2764.5 -3.16594e-10 3.50765e-13)
(2764.5 -3.09613e-10 3.16627e-13)
(2764.5 -2.98155e-10 3.05748e-13)
(2764.5 -2.86157e-10 2.84294e-13)
(2764.5 -2.78425e-10 2.8428e-13)
(2764.5 -2.75714e-10 2.67232e-13)
(2764.5 -2.64435e-10 2.69056e-13)
(2764.5 -2.54544e-10 2.44952e-13)
(2764.5 -2.43625e-10 2.44697e-13)
(2764.5 -2.41291e-10 2.34796e-13)
(2764.5 -2.36539e-10 2.37175e-13)
(2764.5 -2.30474e-10 2.26928e-13)
(2764.5 -2.32442e-10 2.06832e-13)
(2764.5 -2.33323e-10 2.04591e-13)
(2764.5 -2.23287e-10 1.92614e-13)
(2764.5 -2.18575e-10 1.89216e-13)
(2764.5 -2.18681e-10 1.7191e-13)
(2764.5 -2.08061e-10 1.7485e-13)
(2764.5 -2.06036e-10 1.67425e-13)
(2764.5 -2.00396e-10 1.61221e-13)
(2764.5 -1.97081e-10 1.71378e-13)
(2764.5 -2.04642e-10 1.65893e-13)
(2764.5 -2.06588e-10 1.54963e-13)
(2764.5 -2.00586e-10 1.39689e-13)
(2764.5 -1.93772e-10 1.34846e-13)
(2764.5 -1.91651e-10 1.32159e-13)
(2764.5 -1.90408e-10 1.45824e-13)
(2764.5 -1.87943e-10 1.33926e-13)
(2764.5 -1.8259e-10 1.23009e-13)
(2764.5 -1.7871e-10 1.28731e-13)
(2764.5 -1.78725e-10 1.09134e-13)
(2764.5 -1.77404e-10 1.04487e-13)
(2764.5 -1.79378e-10 1.07107e-13)
(2764.5 -1.81661e-10 1.15472e-13)
(2764.5 -1.80442e-10 1.11155e-13)
(2764.5 -1.74354e-10 1.14145e-13)
(2764.5 -1.73323e-10 1.09732e-13)
(2764.5 -1.75868e-10 1.05631e-13)
(2764.5 -1.75757e-10 1.08367e-13)
(2764.5 -1.7354e-10 1.09159e-13)
(2764.5 -1.73668e-10 1.00966e-13)
(2764.5 -1.72013e-10 9.16487e-14)
(2764.5 -1.7e-10 8.21976e-14)
(2764.5 -1.68305e-10 9.21341e-14)
(2764.5 -1.67859e-10 8.6716e-14)
(2764.5 -1.70819e-10 8.69309e-14)
(2764.5 -1.70179e-10 8.42804e-14)
(2764.5 -1.67959e-10 9.025e-14)
(2764.5 -1.6525e-10 8.71116e-14)
(2764.5 -1.68726e-10 8.14883e-14)
(2764.5 -1.67829e-10 7.65968e-14)
(2764.5 -1.64229e-10 8.10423e-14)
(2764.5 -1.63315e-10 7.85374e-14)
(2764.5 -1.66309e-10 7.84508e-14)
(2764.5 -1.6838e-10 8.12507e-14)
(2764.5 -1.66779e-10 8.80304e-14)
(2764.5 -1.62545e-10 7.60842e-14)
(2764.5 -1.63722e-10 7.28195e-14)
(2764.5 -1.68664e-10 7.65699e-14)
(2764.5 -1.69891e-10 6.75741e-14)
(2764.5 -1.6608e-10 6.60659e-14)
(2764.5 -1.62061e-10 6.56729e-14)
(2764.5 -1.62509e-10 6.02636e-14)
(2764.5 -1.65884e-10 6.44704e-14)
(2764.5 -1.67462e-10 6.79346e-14)
(2764.5 -1.66849e-10 6.76306e-14)
(2764.5 -1.67046e-10 6.54647e-14)
(2764.5 -1.66491e-10 6.34978e-14)
(2764.5 -1.6845e-10 6.0925e-14)
(2764.5 -1.73378e-10 5.92758e-14)
(2764.5 -1.7571e-10 5.56784e-14)
(2764.5 -1.78325e-10 4.77186e-14)
(2764.5 -1.75064e-10 4.99569e-14)
(2764.5 -1.73589e-10 5.11889e-14)
(2764.5 -1.73596e-10 5.58984e-14)
(2764.5 -1.76931e-10 5.72641e-14)
(2764.5 -1.7954e-10 6.31978e-14)
(2764.5 -1.81809e-10 6.15948e-14)
(2764.5 -1.8238e-10 5.95277e-14)
(2764.5 -1.81858e-10 5.58629e-14)
(2764.5 -1.81683e-10 5.09154e-14)
(2764.5 -1.79553e-10 5.38822e-14)
(2764.5 -1.76552e-10 5.45146e-14)
(2764.5 -1.78939e-10 5.33478e-14)
(2764.5 -1.82935e-10 4.88029e-14)
(2764.5 -1.81672e-10 5.0057e-14)
(2764.5 -1.79839e-10 5.39944e-14)
(2764.5 -1.81729e-10 5.13628e-14)
(2764.5 -1.85572e-10 5.56359e-14)
(2764.5 -1.88271e-10 5.72891e-14)
(2764.5 -1.90902e-10 5.25583e-14)
(2764.5 -1.92295e-10 5.05926e-14)
(2764.5 -1.93521e-10 5.01812e-14)
(2764.5 -1.94844e-10 5.12209e-14)
(2764.5 -1.98621e-10 4.8744e-14)
(2764.5 -2.02112e-10 4.82655e-14)
(2764.5 -2.04732e-10 4.93706e-14)
(2764.5 -2.08846e-10 4.5871e-14)
(2764.5 -2.13595e-10 5.48823e-14)
(2764.5 -2.16606e-10 5.37756e-14)
(2764.5 -2.17596e-10 4.77084e-14)
(2764.5 -2.19515e-10 4.59376e-14)
(2764.5 -2.17957e-10 4.33667e-14)
(2764.5 -2.18823e-10 4.8437e-14)
(2764.5 -2.17471e-10 4.05881e-14)
(2764.5 -2.12173e-10 4.34521e-14)
(2764.5 -2.09847e-10 4.84644e-14)
(2764.5 -2.15891e-10 4.73207e-14)
(2764.5 -2.19186e-10 4.55133e-14)
(2764.5 -2.24232e-10 4.76106e-14)
(2764.5 -2.30427e-10 4.61271e-14)
(2764.5 -2.26204e-10 4.35992e-14)
(2764.5 -2.28889e-10 4.55035e-14)
(2764.5 -2.37873e-10 4.66052e-14)
(2764.5 -2.39335e-10 5.48034e-14)
(2764.5 -2.36824e-10 4.08723e-14)
(2764.5 -2.44691e-10 4.38675e-14)
(2764.5 -2.46053e-10 4.07613e-14)
(2764.5 -1.62705e-07 2.73891e-10)
(2764.5 -8.68543e-08 1.35907e-10)
(2764.5 -4.48831e-08 6.63373e-11)
(2764.5 -2.54163e-08 3.67434e-11)
(2764.5 -1.61551e-08 2.34819e-11)
(2764.5 -1.12432e-08 1.6433e-11)
(2764.5 -8.3331e-09 1.21829e-11)
(2764.5 -6.46916e-09 9.48424e-12)
(2764.5 -5.18591e-09 7.61039e-12)
(2764.5 -4.2465e-09 6.25431e-12)
(2764.5 -3.54167e-09 5.14102e-12)
(2764.5 -3.00753e-09 4.34876e-12)
(2764.5 -2.59255e-09 3.69227e-12)
(2764.5 -2.25847e-09 3.22272e-12)
(2764.5 -1.99915e-09 2.86643e-12)
(2764.5 -1.78137e-09 2.50665e-12)
(2764.5 -1.59173e-09 2.19037e-12)
(2764.5 -1.43895e-09 1.9887e-12)
(2764.5 -1.30499e-09 1.7929e-12)
(2764.5 -1.19743e-09 1.62669e-12)
(2764.5 -1.10659e-09 1.48681e-12)
(2764.5 -1.02469e-09 1.36342e-12)
(2764.5 -9.4198e-10 1.22729e-12)
(2764.5 -8.7608e-10 1.14904e-12)
(2764.5 -8.18131e-10 1.03686e-12)
(2764.5 -7.62614e-10 1e-12)
(2764.5 -7.17475e-10 9.17063e-13)
(2764.5 -6.80751e-10 8.6935e-13)
(2764.5 -6.48874e-10 8.25196e-13)
(2764.5 -6.13812e-10 7.61912e-13)
(2764.5 -5.78683e-10 6.97886e-13)
(2764.5 -5.43765e-10 6.69588e-13)
(2764.5 -5.19525e-10 6.12435e-13)
(2764.5 -5.03704e-10 5.70465e-13)
(2764.5 -4.85803e-10 5.51073e-13)
(2764.5 -4.65095e-10 5.31189e-13)
(2764.5 -4.42495e-10 4.89675e-13)
(2764.5 -4.24831e-10 4.6657e-13)
(2764.5 -4.1749e-10 4.36764e-13)
(2764.5 -4.06842e-10 4.10095e-13)
(2764.5 -3.94808e-10 4.14095e-13)
(2764.5 -3.79339e-10 3.96165e-13)
(2764.5 -3.67687e-10 3.78103e-13)
(2764.5 -3.60713e-10 3.64761e-13)
(2764.5 -3.48021e-10 3.49823e-13)
(2764.5 -3.36072e-10 3.30379e-13)
(2764.5 -3.2607e-10 3.10562e-13)
(2764.5 -3.19146e-10 3.04213e-13)
(2764.5 -3.10725e-10 2.8984e-13)
(2764.5 -2.99934e-10 2.67053e-13)
(2764.5 -3.01812e-10 2.75763e-13)
(2764.5 -3.01498e-10 2.65261e-13)
(2764.5 -2.94461e-10 2.54433e-13)
(2764.5 -2.86051e-10 2.44947e-13)
(2764.5 -2.84578e-10 2.40573e-13)
(2764.5 -2.75811e-10 2.34492e-13)
(2764.5 -2.70076e-10 2.13957e-13)
(2764.5 -2.60276e-10 2.07195e-13)
(2764.5 -2.56247e-10 2.12669e-13)
(2764.5 -2.619e-10 1.96386e-13)
(2764.5 -2.62979e-10 1.87035e-13)
(2764.5 -2.61554e-10 1.78491e-13)
(2764.5 -2.56266e-10 1.82709e-13)
(2764.5 -2.53084e-10 1.90661e-13)
(2764.5 -2.48073e-10 1.72865e-13)
(2764.5 -2.45997e-10 1.76334e-13)
(2764.5 -2.37818e-10 1.69518e-13)
(2764.5 -2.34241e-10 1.55509e-13)
(2764.5 -2.29132e-10 1.60595e-13)
(2764.5 -2.29133e-10 1.58216e-13)
(2764.5 -2.31476e-10 1.49474e-13)
(2764.5 -2.31284e-10 1.51019e-13)
(2764.5 -2.33445e-10 1.43218e-13)
(2764.5 -2.28891e-10 1.41918e-13)
(2764.5 -2.22759e-10 1.43685e-13)
(2764.5 -2.27776e-10 1.40025e-13)
(2764.5 -2.29132e-10 1.40503e-13)
(2764.5 -2.25523e-10 1.30925e-13)
(2764.5 -2.23639e-10 1.1989e-13)
(2764.5 -2.21033e-10 1.21615e-13)
(2764.5 -2.2131e-10 1.27009e-13)
(2764.5 -2.19176e-10 1.19724e-13)
(2764.5 -2.15418e-10 1.1336e-13)
(2764.5 -2.17092e-10 1.15304e-13)
(2764.5 -2.18599e-10 1.15119e-13)
(2764.5 -2.2001e-10 1.10591e-13)
(2764.5 -2.15672e-10 1.02197e-13)
(2764.5 -2.16844e-10 1.08151e-13)
(2764.5 -2.16413e-10 1.15049e-13)
(2764.5 -2.13402e-10 1.13807e-13)
(2764.5 -2.1169e-10 1.02979e-13)
(2764.5 -2.12882e-10 1.01265e-13)
(2764.5 -2.18784e-10 9.94473e-14)
(2764.5 -2.16567e-10 9.52654e-14)
(2764.5 -2.12572e-10 9.50121e-14)
(2764.5 -2.09968e-10 9.89775e-14)
(2764.5 -2.11519e-10 9.02878e-14)
(2764.5 -2.14314e-10 8.7568e-14)
(2764.5 -2.13749e-10 9.08633e-14)
(2764.5 -2.10668e-10 8.55679e-14)
(2764.5 -2.11758e-10 7.94755e-14)
(2764.5 -2.12218e-10 8.36269e-14)
(2764.5 -2.13019e-10 8.65844e-14)
(2764.5 -2.16027e-10 7.88691e-14)
(2764.5 -2.16909e-10 7.94683e-14)
(2764.5 -2.17414e-10 8.3169e-14)
(2764.5 -2.17283e-10 8.02285e-14)
(2764.5 -2.18099e-10 7.84628e-14)
(2764.5 -2.20474e-10 7.32212e-14)
(2764.5 -2.26479e-10 7.50935e-14)
(2764.5 -2.28156e-10 7.60335e-14)
(2764.5 -2.25677e-10 7.44341e-14)
(2764.5 -2.22288e-10 7.7649e-14)
(2764.5 -2.24236e-10 6.61152e-14)
(2764.5 -2.24706e-10 6.38805e-14)
(2764.5 -2.2755e-10 6.73222e-14)
(2764.5 -2.31314e-10 7.44358e-14)
(2764.5 -2.33456e-10 7.18615e-14)
(2764.5 -2.35125e-10 7.49266e-14)
(2764.5 -2.34985e-10 7.57926e-14)
(2764.5 -2.32209e-10 6.94627e-14)
(2764.5 -2.31156e-10 6.66386e-14)
(2764.5 -2.32957e-10 6.94282e-14)
(2764.5 -2.34319e-10 7.15195e-14)
(2764.5 -2.34025e-10 6.52475e-14)
(2764.5 -2.35607e-10 6.88268e-14)
(2764.5 -2.37013e-10 7.16586e-14)
(2764.5 -2.4052e-10 6.33213e-14)
(2764.5 -2.42024e-10 6.21237e-14)
(2764.5 -2.43676e-10 6.0735e-14)
(2764.5 -2.4455e-10 6.15366e-14)
(2764.5 -2.46865e-10 6.57727e-14)
(2764.5 -2.51176e-10 6.45489e-14)
(2764.5 -2.54689e-10 6.62829e-14)
(2764.5 -2.58583e-10 6.76004e-14)
(2764.5 -2.61088e-10 6.82507e-14)
(2764.5 -2.66775e-10 6.7093e-14)
(2764.5 -2.70453e-10 5.95614e-14)
(2764.5 -2.71793e-10 5.94386e-14)
(2764.5 -2.74856e-10 5.7023e-14)
(2764.5 -2.77337e-10 6.00238e-14)
(2764.5 -2.79572e-10 5.79506e-14)
(2764.5 -2.80661e-10 6.1206e-14)
(2764.5 -2.79594e-10 5.98183e-14)
(2764.5 -2.7925e-10 6.14195e-14)
(2764.5 -2.73151e-10 6.17418e-14)
(2764.5 -2.71711e-10 5.94359e-14)
(2764.5 -2.77304e-10 5.5671e-14)
(2764.5 -2.86604e-10 5.67753e-14)
(2764.5 -2.89803e-10 5.80258e-14)
(2764.5 -2.91852e-10 5.20588e-14)
(2764.5 -2.9836e-10 6.13718e-14)
(2764.5 -3.01916e-10 5.82777e-14)
(2764.5 -3.01893e-10 5.18983e-14)
(2764.5 -3.05859e-10 6.15049e-14)
(2764.5 -3.07955e-10 6.08607e-14)
(2764.5 -1.8279e-07 3.07161e-10)
(2764.5 -1.06085e-07 1.64698e-10)
(2764.5 -5.78154e-08 8.35128e-11)
(2764.5 -3.32654e-08 4.65238e-11)
(2764.5 -2.10614e-08 2.94642e-11)
(2764.5 -1.45427e-08 2.04507e-11)
(2764.5 -1.07139e-08 1.52446e-11)
(2764.5 -8.2818e-09 1.17253e-11)
(2764.5 -6.62179e-09 9.33999e-12)
(2764.5 -5.41188e-09 7.64322e-12)
(2764.5 -4.51012e-09 6.34704e-12)
(2764.5 -3.82505e-09 5.34973e-12)
(2764.5 -3.29113e-09 4.58566e-12)
(2764.5 -2.86768e-09 4.01098e-12)
(2764.5 -2.53344e-09 3.46891e-12)
(2764.5 -2.25634e-09 3.05208e-12)
(2764.5 -2.0196e-09 2.72987e-12)
(2764.5 -1.82198e-09 2.42088e-12)
(2764.5 -1.65555e-09 2.20382e-12)
(2764.5 -1.51822e-09 1.97209e-12)
(2764.5 -1.39774e-09 1.81472e-12)
(2764.5 -1.2908e-09 1.65824e-12)
(2764.5 -1.1919e-09 1.5121e-12)
(2764.5 -1.10562e-09 1.36347e-12)
(2764.5 -1.03309e-09 1.28757e-12)
(2764.5 -9.64548e-10 1.22148e-12)
(2764.5 -9.07035e-10 1.12787e-12)
(2764.5 -8.56795e-10 1.06802e-12)
(2764.5 -8.13531e-10 9.83469e-13)
(2764.5 -7.73828e-10 8.93103e-13)
(2764.5 -7.36229e-10 8.5891e-13)
(2764.5 -6.89065e-10 8.01708e-13)
(2764.5 -6.52091e-10 7.53388e-13)
(2764.5 -6.29747e-10 7.21821e-13)
(2764.5 -6.05743e-10 6.77335e-13)
(2764.5 -5.82483e-10 6.11211e-13)
(2764.5 -5.60723e-10 6.17542e-13)
(2764.5 -5.39998e-10 5.78012e-13)
(2764.5 -5.23253e-10 5.51637e-13)
(2764.5 -5.0648e-10 5.32853e-13)
(2764.5 -4.92476e-10 4.97726e-13)
(2764.5 -4.76041e-10 4.7382e-13)
(2764.5 -4.60491e-10 4.5325e-13)
(2764.5 -4.50721e-10 4.42479e-13)
(2764.5 -4.32341e-10 4.20393e-13)
(2764.5 -4.22127e-10 4.19095e-13)
(2764.5 -4.1025e-10 3.82259e-13)
(2764.5 -3.98522e-10 3.72614e-13)
(2764.5 -3.89494e-10 3.65566e-13)
(2764.5 -3.75409e-10 3.42022e-13)
(2764.5 -3.70233e-10 3.31221e-13)
(2764.5 -3.73363e-10 3.1932e-13)
(2764.5 -3.69935e-10 3.06713e-13)
(2764.5 -3.58952e-10 3.05174e-13)
(2764.5 -3.50744e-10 2.88007e-13)
(2764.5 -3.41453e-10 2.75576e-13)
(2764.5 -3.36023e-10 2.64929e-13)
(2764.5 -3.26652e-10 2.64674e-13)
(2764.5 -3.17885e-10 2.51106e-13)
(2764.5 -3.17104e-10 2.40741e-13)
(2764.5 -3.22643e-10 2.41221e-13)
(2764.5 -3.24395e-10 2.30736e-13)
(2764.5 -3.17273e-10 2.26249e-13)
(2764.5 -3.14003e-10 2.15731e-13)
(2764.5 -3.11356e-10 2.11588e-13)
(2764.5 -3.06309e-10 2.15807e-13)
(2764.5 -2.94323e-10 2.01555e-13)
(2764.5 -2.90541e-10 1.8821e-13)
(2764.5 -2.88614e-10 1.982e-13)
(2764.5 -2.84448e-10 1.89656e-13)
(2764.5 -2.84341e-10 1.78695e-13)
(2764.5 -2.81847e-10 1.77303e-13)
(2764.5 -2.85329e-10 1.77376e-13)
(2764.5 -2.83863e-10 1.66096e-13)
(2764.5 -2.75858e-10 1.72704e-13)
(2764.5 -2.71439e-10 1.69667e-13)
(2764.5 -2.78337e-10 1.63227e-13)
(2764.5 -2.75682e-10 1.54479e-13)
(2764.5 -2.71851e-10 1.67308e-13)
(2764.5 -2.70885e-10 1.59431e-13)
(2764.5 -2.71412e-10 1.54575e-13)
(2764.5 -2.70942e-10 1.4177e-13)