/*--------------------------------*- C++ -*----------------------------------*\
| =========                 |                                                 |
| \\      /  F ield         | OpenFOAM: The Open Source CFD Toolbox           |
|  \\    /   O peration     | Version:  v1706                                 |
|   \\  /    A nd           | Web:      www.OpenFOAM.com                      |
|    \\/     M anipulation  |                                                 |
\*---------------------------------------------------------------------------*/
FoamFile
{
    version     2.0;
    format      ascii;
    class       volScalarField;
    location    "4e-06";
    object      wallHeatFlux;
}
// * * * * * * * * * * * * * * * * * * * * * * * * * * * * * * * * * * * * * //

dimensions      [1 0 -3 0 0 0 0];


internalField   uniform 0;

boundaryField
{
    cone
    {
        type            calculated;
        value           nonuniform List<scalar> 
147
(
1.62456e+06
1.6242e+06
1.62374e+06
1.62339e+06
1.62314e+06
1.62264e+06
1.62193e+06
1.62103e+06
1.61998e+06
1.61876e+06
1.61742e+06
1.61593e+06
1.61432e+06
1.61257e+06
1.61071e+06
1.60872e+06
1.6066e+06
1.60436e+06
1.602e+06
1.59953e+06
1.59694e+06
1.59425e+06
1.59144e+06
1.58853e+06
1.58551e+06
1.58239e+06
1.57916e+06
1.57583e+06
1.5724e+06
1.56887e+06
1.56525e+06
1.56154e+06
1.55774e+06
1.55385e+06
1.54988e+06
1.54582e+06
1.54169e+06
1.53747e+06
1.53318e+06
1.52883e+06
1.5244e+06
1.51991e+06
1.51535e+06
1.51073e+06
1.50606e+06
1.50134e+06
1.49657e+06
1.49175e+06
1.48689e+06
1.48199e+06
1.47706e+06
1.4721e+06
1.46711e+06
1.46211e+06
1.4571e+06
1.45208e+06
1.44706e+06
1.44204e+06
1.43703e+06
1.43203e+06
1.42705e+06
1.42209e+06
1.41716e+06
1.41226e+06
1.4074e+06
1.40258e+06
1.3978e+06
1.39308e+06
1.38842e+06
1.38383e+06
1.3793e+06
1.37486e+06
1.37049e+06
1.36621e+06
1.36203e+06
1.35795e+06
1.35398e+06
1.35012e+06
1.34639e+06
1.34278e+06
1.3393e+06
1.33596e+06
1.33276e+06
1.32972e+06
1.32683e+06
1.32411e+06
1.32155e+06
1.31918e+06
1.31698e+06
1.31498e+06
1.31317e+06
1.31156e+06
1.31017e+06
1.30899e+06
1.30804e+06
1.30733e+06
1.30685e+06
1.30661e+06
1.30662e+06
1.30688e+06
1.30739e+06
1.30817e+06
1.30921e+06
1.31053e+06
1.31213e+06
1.31401e+06
1.31619e+06
1.31868e+06
1.32147e+06
1.32457e+06
1.32799e+06
1.33174e+06
1.33581e+06
1.34022e+06
1.34496e+06
1.35006e+06
1.3555e+06
1.36128e+06
1.36741e+06
1.3739e+06
1.38077e+06
1.38802e+06
1.39566e+06
1.4037e+06
1.41213e+06
1.42097e+06
1.43021e+06
1.43987e+06
1.44995e+06
1.46045e+06
1.47139e+06
1.48276e+06
1.49458e+06
1.50684e+06
1.51954e+06
1.5327e+06
1.5463e+06
1.56036e+06
1.57487e+06
1.58983e+06
1.60525e+06
1.62113e+06
1.6375e+06
1.65436e+06
1.67171e+06
1.68956e+06
1.62616e+06
)
;
    }
    inlet
    {
        type            calculated;
        value           uniform 0;
    }
    rWedge
    {
        type            wedge;
    }
    lWedge
    {
        type            wedge;
    }
    outlet
    {
        type            calculated;
        value           nonuniform 0();
    }
    procBoundary3to2
    {
        type            processor;
        value           uniform 0;
    }
}


// ************************************************************************* //
