/*--------------------------------*- C++ -*----------------------------------*\
| =========                 |                                                 |
| \\      /  F ield         | OpenFOAM: The Open Source CFD Toolbox           |
|  \\    /   O peration     | Version:  v1706                                 |
|   \\  /    A nd           | Web:      www.OpenFOAM.com                      |
|    \\/     M anipulation  |                                                 |
\*---------------------------------------------------------------------------*/
FoamFile
{
    version     2.0;
    format      ascii;
    class       volVectorField;
    location    "8e-06";
    object      U;
}
// * * * * * * * * * * * * * * * * * * * * * * * * * * * * * * * * * * * * * //

dimensions      [0 1 -1 0 0 0 0];


internalField   nonuniform List<vector> 
29987
(
(2764.5 -2.08799e-08 4.08442e-11)
(2764.5 -6.56328e-09 1.19902e-11)
(2764.5 -3.16088e-09 5.81376e-12)
(2764.5 -1.95516e-09 3.50605e-12)
(2764.5 -1.33514e-09 2.32908e-12)
(2764.5 -9.68027e-10 1.69111e-12)
(2764.5 -7.30643e-10 1.28697e-12)
(2764.5 -5.70468e-10 1.00958e-12)
(2764.5 -4.63302e-10 8.13211e-13)
(2764.5 -3.81531e-10 6.88195e-13)
(2764.5 -3.18248e-10 5.12295e-13)
(2764.5 -2.72045e-10 4.53367e-13)
(2764.5 -2.35998e-10 4.17987e-13)
(2764.5 -2.05173e-10 3.50082e-13)
(2764.5 -1.83575e-10 3.1147e-13)
(2764.5 -1.66048e-10 2.62568e-13)
(2764.5 -1.45062e-10 2.21205e-13)
(2764.5 -1.35599e-10 1.93773e-13)
(2764.5 -1.19864e-10 1.84678e-13)
(2764.5 -1.11e-10 1.72911e-13)
(2764.5 -1.00824e-10 1.67068e-13)
(2764.5 -9.61014e-11 1.38737e-13)
(2764.5 -8.7761e-11 1.32169e-13)
(2764.5 -8.20868e-11 1.14306e-13)
(2764.5 -7.57634e-11 1.17414e-13)
(2764.5 -7.21777e-11 1.13736e-13)
(2764.5 -6.4921e-11 9.06384e-14)
(2764.5 -6.7076e-11 7.85343e-14)
(2764.5 -6.07676e-11 8.82733e-14)
(2764.5 -5.78356e-11 8.00194e-14)
(2764.5 -5.44917e-11 8.44349e-14)
(2764.5 -5.09641e-11 7.40669e-14)
(2764.5 -4.97206e-11 6.45605e-14)
(2764.5 -5.00078e-11 5.92104e-14)
(2764.5 -4.7205e-11 6.28766e-14)
(2764.5 -4.8484e-11 5.61687e-14)
(2764.5 -4.41065e-11 5.42675e-14)
(2764.5 -3.90604e-11 4.35184e-14)
(2764.5 -4.04701e-11 4.15558e-14)
(2764.5 -4.07384e-11 4.66196e-14)
(2764.5 -3.92166e-11 3.73243e-14)
(2764.5 -3.64305e-11 3.89034e-14)
(2764.5 -3.83162e-11 4.59127e-14)
(2764.5 -3.45761e-11 3.98714e-14)
(2764.5 -3.4198e-11 3.85796e-14)
(2764.5 -3.31236e-11 3.27531e-14)
(2764.5 -3.14319e-11 4.4348e-14)
(2764.5 -3.3475e-11 3.13365e-14)
(2764.5 -2.98959e-11 2.86856e-14)
(2764.5 -3.16879e-11 3.17265e-14)
(2764.5 -2.87719e-11 3.1395e-14)
(2764.5 -2.99696e-11 2.92028e-14)
(2764.5 -2.8704e-11 2.78752e-14)
(2764.5 -3.04502e-11 2.69706e-14)
(2764.5 -2.70792e-11 2.83345e-14)
(2764.5 -2.81183e-11 2.19946e-14)
(2764.5 -2.96759e-11 2.12494e-14)
(2764.5 -2.90986e-11 2.12261e-14)
(2764.5 -2.97376e-11 2.04787e-14)
(2764.5 -2.92279e-11 2.43535e-14)
(2764.5 -2.65589e-11 2.54292e-14)
(2764.5 -2.66545e-11 1.39736e-14)
(2764.5 -2.76576e-11 1.94686e-14)
(2764.5 -2.53551e-11 2.19946e-14)
(2764.5 -2.38286e-11 1.74688e-14)
(2764.5 -2.57564e-11 1.32092e-14)
(2764.5 -2.58921e-11 1.35328e-14)
(2764.5 -2.44602e-11 1.9175e-14)
(2764.5 -2.63038e-11 1.8469e-14)
(2764.5 -2.59569e-11 1.57396e-14)
(2764.5 -2.61918e-11 1.42553e-14)
(2764.5 -2.44271e-11 1.49387e-14)
(2764.5 -2.60571e-11 1.52125e-14)
(2764.5 -2.35514e-11 1.50414e-14)
(2764.5 -2.18072e-11 1.85903e-14)
(2764.5 -2.36893e-11 1.63735e-14)
(2764.5 -2.49882e-11 1.43816e-14)
(2764.5 -2.63905e-11 1.56567e-14)
(2764.5 -2.62054e-11 1.17592e-14)
(2764.5 -2.43418e-11 7.369e-15)
(2764.5 -2.5293e-11 1.12023e-14)
(2764.5 -2.53129e-11 1.19346e-14)
(2764.5 -2.51053e-11 7.995e-15)
(2764.5 -2.43363e-11 1.07399e-14)
(2764.5 -2.43402e-11 1.15401e-14)
(2764.5 -2.41348e-11 9.89374e-15)
(2764.5 -2.50559e-11 8.85011e-15)
(2764.5 -2.55689e-11 9.35703e-15)
(2764.5 -2.43153e-11 1.28887e-14)
(2764.5 -2.52455e-11 8.14259e-15)
(2764.5 -2.55744e-11 5.58749e-15)
(2764.5 -2.44462e-11 6.50552e-15)
(2764.5 -2.32483e-11 1.01335e-14)
(2764.5 -2.4393e-11 1.19642e-14)
(2764.5 -2.47699e-11 1.23207e-14)
(2764.5 -2.57454e-11 1.06433e-14)
(2764.5 -2.33018e-11 7.98183e-15)
(2764.5 -2.20697e-11 1.00327e-14)
(2764.5 -2.31156e-11 1.15894e-14)
(2764.5 -2.32467e-11 9.39548e-15)
(2764.5 -2.4318e-11 7.21819e-15)
(2764.5 -2.49212e-11 1.33873e-14)
(2764.5 -2.43785e-11 1.44925e-14)
(2764.5 -2.37818e-11 1.01312e-14)
(2764.5 -2.36203e-11 9.44522e-15)
(2764.5 -2.47119e-11 8.81174e-15)
(2764.5 -2.50777e-11 6.75865e-15)
(2764.5 -2.60299e-11 7.17593e-15)
(2764.5 -2.53357e-11 9.95009e-15)
(2764.5 -2.4773e-11 7.43839e-15)
(2764.5 -2.59121e-11 7.87858e-15)
(2764.5 -2.53558e-11 7.11545e-15)
(2764.5 -2.4499e-11 9.40414e-15)
(2764.5 -2.39535e-11 8.05185e-15)
(2764.5 -2.52235e-11 9.51477e-15)
(2764.5 -2.49563e-11 6.5126e-15)
(2764.5 -2.53116e-11 8.02852e-15)
(2764.5 -2.50592e-11 1.21857e-14)
(2764.5 -2.48923e-11 1.12679e-14)
(2764.5 -2.68853e-11 6.08373e-15)
(2764.5 -2.82286e-11 7.88438e-15)
(2764.5 -2.86003e-11 9.52596e-15)
(2764.5 -2.83785e-11 7.94733e-15)
(2764.5 -2.9968e-11 8.38695e-15)
(2764.5 -2.94828e-11 9.2138e-15)
(2764.5 -2.96176e-11 7.00209e-15)
(2764.5 -2.88632e-11 8.84538e-15)
(2764.5 -2.87093e-11 8.66227e-15)
(2764.5 -2.91985e-11 9.83139e-15)
(2764.5 -3.23394e-11 7.03423e-15)
(2764.5 -3.10333e-11 1.00239e-14)
(2764.5 -3.11875e-11 1.11652e-14)
(2764.5 -3.23477e-11 9.15924e-15)
(2764.5 -3.0167e-11 4.06605e-15)
(2764.5 -2.86354e-11 6.20177e-15)
(2764.5 -2.71287e-11 4.47859e-15)
(2764.5 -2.76508e-11 8.38582e-15)
(2764.5 -2.77509e-11 1.09057e-14)
(2764.5 -2.89332e-11 2.92349e-15)
(2764.5 -2.61356e-11 1.15713e-14)
(2764.5 -2.94599e-11 5.03732e-16)
(2764.5 -3.43721e-11 3.29032e-15)
(2764.5 -3.60502e-11 7.23847e-15)
(2764.5 -3.65416e-11 3.88634e-15)
(2764.5 -3.68785e-11 6.35759e-15)
(2764.5 -3.50555e-11 8.55612e-15)
(2764.5 -3.07724e-11 1.07406e-14)
(2764.5 -3.12583e-11 7.09852e-15)
(2764.5 -3.35212e-11 5.48214e-15)
(2764.5 -3.68872e-11 1.06959e-14)
(2764.5 -3.70974e-11 3.34459e-15)
(2764.5 -3.91576e-11 4.28082e-15)
(2764.5 -3.93071e-11 2.81183e-15)
(2764.5 -3.89576e-11 1.06431e-14)
(2764.5 -3.74915e-11 6.84718e-15)
(2764.5 -4.08845e-11 4.59376e-15)
(2764.5 -6.69596e-08 1.17759e-10)
(2764.5 -2.47876e-08 4.14516e-11)
(2764.5 -1.13549e-08 1.87802e-11)
(2764.5 -6.60502e-09 1.10844e-11)
(2764.5 -4.38797e-09 7.39541e-12)
(2764.5 -3.14722e-09 5.31734e-12)
(2764.5 -2.37466e-09 4.00044e-12)
(2764.5 -1.85481e-09 3.09127e-12)
(2764.5 -1.49409e-09 2.51387e-12)
(2764.5 -1.22904e-09 2.01693e-12)
(2764.5 -1.03556e-09 1.59633e-12)
(2764.5 -8.79928e-10 1.41086e-12)
(2764.5 -7.5315e-10 1.19241e-12)
(2764.5 -6.56888e-10 1.04808e-12)
(2764.5 -5.85859e-10 8.91912e-13)
(2764.5 -5.269e-10 8.26617e-13)
(2764.5 -4.7054e-10 7.00603e-13)
(2764.5 -4.28674e-10 6.31298e-13)
(2764.5 -3.89837e-10 5.86368e-13)
(2764.5 -3.57117e-10 5.28266e-13)
(2764.5 -3.24243e-10 4.91704e-13)
(2764.5 -3.06224e-10 4.16227e-13)
(2764.5 -2.78947e-10 3.94221e-13)
(2764.5 -2.61846e-10 3.4861e-13)
(2764.5 -2.41662e-10 3.4321e-13)
(2764.5 -2.29294e-10 3.33515e-13)
(2764.5 -2.12345e-10 2.96153e-13)
(2764.5 -2.06818e-10 2.6878e-13)
(2764.5 -1.90841e-10 2.7515e-13)
(2764.5 -1.79941e-10 2.51099e-13)
(2764.5 -1.73654e-10 2.18807e-13)
(2764.5 -1.63819e-10 2.18203e-13)
(2764.5 -1.55206e-10 1.73771e-13)
(2764.5 -1.53961e-10 1.67537e-13)
(2764.5 -1.45016e-10 1.73927e-13)
(2764.5 -1.46486e-10 1.71405e-13)
(2764.5 -1.38396e-10 1.57538e-13)
(2764.5 -1.25764e-10 1.49098e-13)
(2764.5 -1.26408e-10 1.40313e-13)
(2764.5 -1.24635e-10 1.28985e-13)
(2764.5 -1.2207e-10 1.13732e-13)
(2764.5 -1.13531e-10 1.18667e-13)
(2764.5 -1.15989e-10 1.2811e-13)
(2764.5 -1.0802e-10 1.11581e-13)
(2764.5 -1.10459e-10 8.8817e-14)
(2764.5 -1.05321e-10 1.05285e-13)
(2764.5 -1.02093e-10 1.0543e-13)
(2764.5 -1.02146e-10 8.45915e-14)
(2764.5 -9.82694e-11 8.63109e-14)
(2764.5 -9.93005e-11 9.56808e-14)
(2764.5 -9.63083e-11 9.71702e-14)
(2764.5 -9.27332e-11 8.25261e-14)
(2764.5 -8.52458e-11 8.14576e-14)
(2764.5 -8.72637e-11 6.54973e-14)
(2764.5 -8.80239e-11 6.97937e-14)
(2764.5 -8.38841e-11 6.43193e-14)
(2764.5 -8.26259e-11 6.5652e-14)
(2764.5 -8.37817e-11 6.4819e-14)
(2764.5 -8.67764e-11 6.97677e-14)
(2764.5 -8.89924e-11 7.11426e-14)
(2764.5 -8.37472e-11 6.20608e-14)
(2764.5 -7.95551e-11 4.54506e-14)
(2764.5 -8.26342e-11 6.3804e-14)
(2764.5 -8.33715e-11 5.75804e-14)
(2764.5 -7.79083e-11 5.20708e-14)
(2764.5 -7.54441e-11 5.29411e-14)
(2764.5 -7.59378e-11 4.54261e-14)
(2764.5 -7.34994e-11 5.48547e-14)
(2764.5 -7.35413e-11 5.38761e-14)
(2764.5 -7.57626e-11 4.77174e-14)
(2764.5 -7.71613e-11 4.8022e-14)
(2764.5 -7.53384e-11 5.01087e-14)
(2764.5 -7.75389e-11 4.71461e-14)
(2764.5 -7.70786e-11 4.51072e-14)
(2764.5 -7.0269e-11 4.93936e-14)
(2764.5 -7.10493e-11 5.09379e-14)
(2764.5 -6.96009e-11 4.54225e-14)
(2764.5 -6.86439e-11 4.56251e-14)
(2764.5 -7.28428e-11 3.14631e-14)
(2764.5 -7.0142e-11 2.8095e-14)
(2764.5 -6.94323e-11 3.46117e-14)
(2764.5 -7.14642e-11 3.32863e-14)
(2764.5 -7.6006e-11 2.96532e-14)
(2764.5 -7.12948e-11 3.76961e-14)
(2764.5 -7.32176e-11 4.40436e-14)
(2764.5 -6.92174e-11 4.09198e-14)
(2764.5 -6.87185e-11 3.40415e-14)
(2764.5 -7.2076e-11 3.98744e-14)
(2764.5 -6.82875e-11 3.57547e-14)
(2764.5 -6.86379e-11 2.54918e-14)
(2764.5 -7.31199e-11 3.10305e-14)
(2764.5 -7.54482e-11 2.62998e-14)
(2764.5 -7.29874e-11 3.2669e-14)
(2764.5 -6.87675e-11 3.37801e-14)
(2764.5 -7.08275e-11 3.98228e-14)
(2764.5 -7.25257e-11 3.13682e-14)
(2764.5 -7.61691e-11 2.48265e-14)
(2764.5 -7.13423e-11 2.67944e-14)
(2764.5 -7.12866e-11 2.83201e-14)
(2764.5 -6.85468e-11 2.7807e-14)
(2764.5 -6.93412e-11 2.67249e-14)
(2764.5 -7.10683e-11 2.81009e-14)
(2764.5 -7.10681e-11 3.19049e-14)
(2764.5 -7.16746e-11 1.97587e-14)
(2764.5 -6.99946e-11 2.08165e-14)
(2764.5 -7.12419e-11 2.07423e-14)
(2764.5 -7.1289e-11 2.23716e-14)
(2764.5 -7.60311e-11 2.21395e-14)
(2764.5 -7.56774e-11 1.97184e-14)
(2764.5 -7.30071e-11 2.09272e-14)
(2764.5 -7.3948e-11 2.44075e-14)
(2764.5 -7.57915e-11 2.31496e-14)
(2764.5 -7.59738e-11 2.21877e-14)
(2764.5 -7.32447e-11 2.35738e-14)
(2764.5 -7.41537e-11 2.71757e-14)
(2764.5 -7.51054e-11 2.60147e-14)
(2764.5 -7.73906e-11 2.83337e-14)
(2764.5 -7.82101e-11 2.85419e-14)
(2764.5 -7.66058e-11 2.27616e-14)
(2764.5 -7.69161e-11 1.75985e-14)
(2764.5 -8.00659e-11 2.04093e-14)
(2764.5 -8.24532e-11 2.08961e-14)
(2764.5 -8.18477e-11 2.14359e-14)
(2764.5 -8.38626e-11 2.20069e-14)
(2764.5 -8.55388e-11 2.37414e-14)
(2764.5 -8.72741e-11 2.24564e-14)
(2764.5 -8.66326e-11 2.27543e-14)
(2764.5 -8.57736e-11 2.15108e-14)
(2764.5 -8.47121e-11 2.08707e-14)
(2764.5 -8.77701e-11 2.52558e-14)
(2764.5 -8.74629e-11 2.42505e-14)
(2764.5 -8.7449e-11 1.83955e-14)
(2764.5 -8.98833e-11 1.86966e-14)
(2764.5 -9.17615e-11 2.268e-14)
(2764.5 -9.4227e-11 1.35802e-14)
(2764.5 -9.1313e-11 2.11537e-14)
(2764.5 -8.91819e-11 2.11125e-14)
(2764.5 -8.63044e-11 1.89937e-14)
(2764.5 -9.05936e-11 1.79826e-14)
(2764.5 -8.39299e-11 2.1562e-14)
(2764.5 -8.1124e-11 1.89048e-14)
(2764.5 -8.32662e-11 1.9581e-14)
(2764.5 -8.60663e-11 1.75743e-14)
(2764.5 -9.05953e-11 2.32115e-14)
(2764.5 -9.40365e-11 1.63339e-14)
(2764.5 -1.03936e-10 2.26911e-14)
(2764.5 -1.04752e-10 2.06994e-14)
(2764.5 -1.02438e-10 2.13709e-14)
(2764.5 -9.48184e-11 2.77181e-14)
(2764.5 -9.89814e-11 1.92442e-14)
(2764.5 -1.00709e-10 1.83641e-14)
(2764.5 -1.02013e-10 1.45514e-14)
(2764.5 -1.06719e-10 1.45671e-14)
(2764.5 -1.12743e-10 1.84582e-14)
(2764.5 -1.11581e-10 1.73268e-14)
(2764.5 -1.1345e-10 1.67995e-14)
(2764.5 -1.0628e-07 1.81947e-10)
(2764.5 -4.53329e-08 7.33953e-11)
(2764.5 -2.12521e-08 3.3454e-11)
(2764.5 -1.20342e-08 1.91628e-11)
(2764.5 -7.84289e-09 1.24952e-11)
(2764.5 -5.56916e-09 8.82553e-12)
(2764.5 -4.18301e-09 6.68958e-12)
(2764.5 -3.26476e-09 5.14968e-12)
(2764.5 -2.61882e-09 4.16333e-12)
(2764.5 -2.1555e-09 3.35314e-12)
(2764.5 -1.80706e-09 2.78811e-12)
(2764.5 -1.53868e-09 2.40502e-12)
(2764.5 -1.32236e-09 2.03676e-12)
(2764.5 -1.1495e-09 1.74905e-12)
(2764.5 -1.01642e-09 1.53447e-12)
(2764.5 -9.14498e-10 1.36098e-12)
(2764.5 -8.2153e-10 1.16636e-12)
(2764.5 -7.43173e-10 1.08185e-12)
(2764.5 -6.79487e-10 9.65844e-13)
(2764.5 -6.1942e-10 8.98033e-13)
(2764.5 -5.64843e-10 8.00399e-13)
(2764.5 -5.33016e-10 6.94317e-13)
(2764.5 -4.87923e-10 6.69373e-13)
(2764.5 -4.51653e-10 6.00232e-13)
(2764.5 -4.2109e-10 5.92403e-13)
(2764.5 -3.97441e-10 5.48564e-13)
(2764.5 -3.73974e-10 5.23805e-13)
(2764.5 -3.5456e-10 4.68243e-13)
(2764.5 -3.33509e-10 4.31279e-13)
(2764.5 -3.1647e-10 4.09739e-13)
(2764.5 -2.98853e-10 3.67204e-13)
(2764.5 -2.83946e-10 3.69834e-13)
(2764.5 -2.74523e-10 3.18227e-13)
(2764.5 -2.62522e-10 3.21086e-13)
(2764.5 -2.48832e-10 3.1371e-13)
(2764.5 -2.50059e-10 2.76209e-13)
(2764.5 -2.36687e-10 2.53904e-13)
(2764.5 -2.19092e-10 2.58424e-13)
(2764.5 -2.14803e-10 2.52983e-13)
(2764.5 -2.15199e-10 2.24323e-13)
(2764.5 -2.09012e-10 2.12588e-13)
(2764.5 -1.98622e-10 2.06864e-13)
(2764.5 -1.9176e-10 2.09302e-13)
(2764.5 -1.8846e-10 1.93467e-13)
(2764.5 -1.84049e-10 1.64894e-13)
(2764.5 -1.73936e-10 1.75154e-13)
(2764.5 -1.72361e-10 1.70434e-13)
(2764.5 -1.71563e-10 1.65871e-13)
(2764.5 -1.69925e-10 1.59672e-13)
(2764.5 -1.68828e-10 1.75887e-13)
(2764.5 -1.63531e-10 1.56413e-13)
(2764.5 -1.63185e-10 1.44161e-13)
(2764.5 -1.51652e-10 1.35254e-13)
(2764.5 -1.46051e-10 1.28243e-13)
(2764.5 -1.44583e-10 1.22212e-13)
(2764.5 -1.43311e-10 1.22255e-13)
(2764.5 -1.37684e-10 1.1326e-13)
(2764.5 -1.37286e-10 1.06538e-13)
(2764.5 -1.42525e-10 1.19792e-13)
(2764.5 -1.44061e-10 1.13424e-13)
(2764.5 -1.4619e-10 1.05497e-13)
(2764.5 -1.39623e-10 1.0705e-13)
(2764.5 -1.37596e-10 1.01257e-13)
(2764.5 -1.36429e-10 8.26534e-14)
(2764.5 -1.33466e-10 9.50478e-14)
(2764.5 -1.28234e-10 9.11426e-14)
(2764.5 -1.3166e-10 8.04809e-14)
(2764.5 -1.28593e-10 9.35556e-14)
(2764.5 -1.24003e-10 8.48439e-14)
(2764.5 -1.22541e-10 7.89084e-14)
(2764.5 -1.27978e-10 7.57868e-14)
(2764.5 -1.27e-10 7.9121e-14)
(2764.5 -1.27651e-10 7.22945e-14)
(2764.5 -1.28148e-10 7.39405e-14)
(2764.5 -1.25199e-10 8.03022e-14)
(2764.5 -1.2348e-10 8.04669e-14)
(2764.5 -1.20355e-10 6.80015e-14)
(2764.5 -1.19301e-10 6.79587e-14)
(2764.5 -1.1815e-10 6.92908e-14)
(2764.5 -1.20393e-10 6.5145e-14)
(2764.5 -1.14978e-10 6.23719e-14)
(2764.5 -1.1516e-10 5.76078e-14)
(2764.5 -1.21897e-10 5.47521e-14)
(2764.5 -1.223e-10 5.41227e-14)
(2764.5 -1.23968e-10 5.72422e-14)
(2764.5 -1.22872e-10 5.48692e-14)
(2764.5 -1.18031e-10 5.99119e-14)
(2764.5 -1.21172e-10 6.59241e-14)
(2764.5 -1.18813e-10 5.79399e-14)
(2764.5 -1.15072e-10 5.74677e-14)
(2764.5 -1.15776e-10 5.18383e-14)
(2764.5 -1.21318e-10 5.12456e-14)
(2764.5 -1.18623e-10 5.83899e-14)
(2764.5 -1.15844e-10 6.37252e-14)
(2764.5 -1.16637e-10 6.44972e-14)
(2764.5 -1.19291e-10 4.53124e-14)
(2764.5 -1.25087e-10 4.03622e-14)
(2764.5 -1.21961e-10 4.664e-14)
(2764.5 -1.21771e-10 4.88553e-14)
(2764.5 -1.1995e-10 4.87077e-14)
(2764.5 -1.19284e-10 4.19714e-14)
(2764.5 -1.21266e-10 4.68828e-14)
(2764.5 -1.21264e-10 4.87056e-14)
(2764.5 -1.20501e-10 4.20927e-14)
(2764.5 -1.15865e-10 4.89791e-14)
(2764.5 -1.16978e-10 4.44967e-14)
(2764.5 -1.16268e-10 4.01309e-14)
(2764.5 -1.21383e-10 3.57746e-14)
(2764.5 -1.27342e-10 3.75518e-14)
(2764.5 -1.26522e-10 4.19864e-14)
(2764.5 -1.25294e-10 3.59661e-14)
(2764.5 -1.2495e-10 3.51609e-14)
(2764.5 -1.26646e-10 3.45958e-14)
(2764.5 -1.24375e-10 3.97213e-14)
(2764.5 -1.21892e-10 3.84009e-14)
(2764.5 -1.23496e-10 4.50767e-14)
(2764.5 -1.25349e-10 4.63434e-14)
(2764.5 -1.26399e-10 4.6473e-14)
(2764.5 -1.25865e-10 3.85664e-14)
(2764.5 -1.25175e-10 3.72151e-14)
(2764.5 -1.25345e-10 3.74796e-14)
(2764.5 -1.2703e-10 3.7393e-14)
(2764.5 -1.30204e-10 3.5021e-14)
(2764.5 -1.33615e-10 3.30325e-14)
(2764.5 -1.36812e-10 3.46444e-14)
(2764.5 -1.39346e-10 3.53195e-14)
(2764.5 -1.41579e-10 3.43756e-14)
(2764.5 -1.4096e-10 3.54281e-14)
(2764.5 -1.40453e-10 4.01273e-14)
(2764.5 -1.4292e-10 3.81624e-14)
(2764.5 -1.44311e-10 3.38977e-14)
(2764.5 -1.45389e-10 3.76257e-14)
(2764.5 -1.46944e-10 3.91878e-14)
(2764.5 -1.49023e-10 3.31707e-14)
(2764.5 -1.56532e-10 4.02285e-14)
(2764.5 -1.55716e-10 2.83967e-14)
(2764.5 -1.54138e-10 2.71393e-14)
(2764.5 -1.54074e-10 3.13382e-14)
(2764.5 -1.54411e-10 3.54583e-14)
(2764.5 -1.55029e-10 3.58072e-14)
(2764.5 -1.46841e-10 2.78705e-14)
(2764.5 -1.43828e-10 2.83369e-14)
(2764.5 -1.43327e-10 3.0177e-14)
(2764.5 -1.4824e-10 2.79437e-14)
(2764.5 -1.46413e-10 3.4305e-14)
(2764.5 -1.56345e-10 3.00104e-14)
(2764.5 -1.60922e-10 2.84812e-14)
(2764.5 -1.65489e-10 3.04071e-14)
(2764.5 -1.64836e-10 3.57e-14)
(2764.5 -1.65231e-10 3.15061e-14)
(2764.5 -1.64348e-10 3.44334e-14)
(2764.5 -1.67405e-10 3.16122e-14)
(2764.5 -1.69915e-10 3.00328e-14)
(2764.5 -1.72115e-10 2.57059e-14)
(2764.5 -1.74702e-10 3.4917e-14)
(2764.5 -1.77122e-10 3.18258e-14)
(2764.5 -1.37734e-07 2.33373e-10)
(2764.5 -6.63945e-08 1.05192e-10)
(2764.5 -3.25607e-08 4.94604e-11)
(2764.5 -1.83136e-08 2.76724e-11)
(2764.5 -1.17501e-08 1.77714e-11)
(2764.5 -8.26061e-09 1.25032e-11)
(2764.5 -6.16821e-09 9.41043e-12)
(2764.5 -4.80338e-09 7.29367e-12)
(2764.5 -3.84636e-09 5.84179e-12)
(2764.5 -3.15666e-09 4.78259e-12)
(2764.5 -2.646e-09 3.90877e-12)
(2764.5 -2.25001e-09 3.37452e-12)
(2764.5 -1.93304e-09 2.89492e-12)
(2764.5 -1.68272e-09 2.50431e-12)
(2764.5 -1.48842e-09 2.25015e-12)
(2764.5 -1.3334e-09 1.9323e-12)
(2764.5 -1.19227e-09 1.68712e-12)
(2764.5 -1.07841e-09 1.50472e-12)
(2764.5 -9.87345e-10 1.33042e-12)
(2764.5 -9.03151e-10 1.26065e-12)
(2764.5 -8.24035e-10 1.11387e-12)
(2764.5 -7.67026e-10 1.02931e-12)
(2764.5 -7.14068e-10 9.49572e-13)
(2764.5 -6.60781e-10 8.71758e-13)
(2764.5 -6.13563e-10 8.06644e-13)
(2764.5 -5.71032e-10 7.4709e-13)
(2764.5 -5.39294e-10 6.97367e-13)
(2764.5 -5.15707e-10 6.38297e-13)
(2764.5 -4.82185e-10 6.15093e-13)
(2764.5 -4.54641e-10 5.66798e-13)
(2764.5 -4.36854e-10 5.37558e-13)
(2764.5 -4.12847e-10 5.1139e-13)
(2764.5 -3.99328e-10 4.95629e-13)
(2764.5 -3.77727e-10 4.61254e-13)
(2764.5 -3.59664e-10 4.3374e-13)
(2764.5 -3.58666e-10 3.93852e-13)
(2764.5 -3.43796e-10 3.77056e-13)
(2764.5 -3.20774e-10 3.45111e-13)
(2764.5 -3.13041e-10 3.48914e-13)
(2764.5 -3.07955e-10 3.14163e-13)
(2764.5 -2.98752e-10 3.03531e-13)
(2764.5 -2.89502e-10 2.83603e-13)
(2764.5 -2.81505e-10 2.82341e-13)
(2764.5 -2.68596e-10 2.63e-13)
(2764.5 -2.59802e-10 2.64834e-13)
(2764.5 -2.5495e-10 2.41938e-13)
(2764.5 -2.45938e-10 2.44857e-13)
(2764.5 -2.41244e-10 2.36112e-13)
(2764.5 -2.37567e-10 2.38743e-13)
(2764.5 -2.40967e-10 2.32999e-13)
(2764.5 -2.36724e-10 2.07946e-13)
(2764.5 -2.32461e-10 2.05007e-13)
(2764.5 -2.2274e-10 1.92236e-13)
(2764.5 -2.15398e-10 1.86321e-13)
(2764.5 -2.07886e-10 1.69088e-13)
(2764.5 -2.04973e-10 1.7456e-13)
(2764.5 -1.97772e-10 1.67387e-13)
(2764.5 -1.96583e-10 1.61273e-13)
(2764.5 -1.98397e-10 1.69514e-13)
(2764.5 -2.02184e-10 1.65298e-13)
(2764.5 -2.07035e-10 1.5345e-13)
(2764.5 -2.00707e-10 1.39657e-13)
(2764.5 -1.95581e-10 1.34391e-13)
(2764.5 -1.92788e-10 1.34426e-13)
(2764.5 -1.90906e-10 1.47869e-13)
(2764.5 -1.86312e-10 1.34632e-13)
(2764.5 -1.85956e-10 1.24669e-13)
(2764.5 -1.82653e-10 1.31804e-13)
(2764.5 -1.79422e-10 1.10873e-13)
(2764.5 -1.72854e-10 1.05511e-13)
(2764.5 -1.78417e-10 1.06525e-13)
(2764.5 -1.7963e-10 1.15465e-13)
(2764.5 -1.80498e-10 1.10434e-13)
(2764.5 -1.79482e-10 1.15092e-13)
(2764.5 -1.76482e-10 1.07662e-13)
(2764.5 -1.75123e-10 1.03031e-13)
(2764.5 -1.70607e-10 1.05189e-13)
(2764.5 -1.71924e-10 1.07942e-13)
(2764.5 -1.68902e-10 1.03706e-13)
(2764.5 -1.72081e-10 9.30733e-14)
(2764.5 -1.68552e-10 8.24085e-14)
(2764.5 -1.64024e-10 9.1638e-14)
(2764.5 -1.64485e-10 8.54428e-14)
(2764.5 -1.64772e-10 8.68779e-14)
(2764.5 -1.66517e-10 8.42176e-14)
(2764.5 -1.70006e-10 8.77252e-14)
(2764.5 -1.67432e-10 8.62812e-14)
(2764.5 -1.6776e-10 7.96844e-14)
(2764.5 -1.6814e-10 7.53633e-14)
(2764.5 -1.65019e-10 8.03754e-14)
(2764.5 -1.64585e-10 7.89202e-14)
(2764.5 -1.71086e-10 7.96284e-14)
(2764.5 -1.68663e-10 8.00726e-14)
(2764.5 -1.64669e-10 8.73992e-14)
(2764.5 -1.61191e-10 7.51726e-14)
(2764.5 -1.63094e-10 7.22402e-14)
(2764.5 -1.71374e-10 7.75349e-14)
(2764.5 -1.70341e-10 6.87027e-14)
(2764.5 -1.6836e-10 6.63997e-14)
(2764.5 -1.67938e-10 6.4143e-14)
(2764.5 -1.66118e-10 5.84634e-14)
(2764.5 -1.67363e-10 6.24077e-14)
(2764.5 -1.69994e-10 6.5703e-14)
(2764.5 -1.72871e-10 6.68028e-14)
(2764.5 -1.67132e-10 6.64126e-14)
(2764.5 -1.6487e-10 6.4755e-14)
(2764.5 -1.64732e-10 6.14038e-14)
(2764.5 -1.65163e-10 5.95175e-14)
(2764.5 -1.69864e-10 5.68821e-14)
(2764.5 -1.7614e-10 5.03144e-14)
(2764.5 -1.76214e-10 5.06515e-14)
(2764.5 -1.77524e-10 4.99787e-14)
(2764.5 -1.77993e-10 5.61471e-14)
(2764.5 -1.7846e-10 5.74388e-14)
(2764.5 -1.75581e-10 6.18996e-14)
(2764.5 -1.75185e-10 6.13122e-14)
(2764.5 -1.76322e-10 5.92317e-14)
(2764.5 -1.75251e-10 5.55868e-14)
(2764.5 -1.74762e-10 5.17702e-14)
(2764.5 -1.761e-10 5.37967e-14)
(2764.5 -1.78805e-10 5.40526e-14)
(2764.5 -1.79333e-10 5.28363e-14)
(2764.5 -1.78044e-10 4.88515e-14)
(2764.5 -1.81103e-10 5.06571e-14)
(2764.5 -1.84982e-10 5.34672e-14)
(2764.5 -1.87794e-10 5.257e-14)
(2764.5 -1.90813e-10 5.6747e-14)
(2764.5 -1.91912e-10 5.73708e-14)
(2764.5 -1.91566e-10 5.15507e-14)
(2764.5 -1.92649e-10 5.03782e-14)
(2764.5 -1.94659e-10 5.07505e-14)
(2764.5 -1.97612e-10 5.17404e-14)
(2764.5 -2.00194e-10 4.90423e-14)
(2764.5 -2.03152e-10 4.80561e-14)
(2764.5 -2.08701e-10 4.98207e-14)
(2764.5 -2.125e-10 4.4759e-14)
(2764.5 -2.142e-10 5.41217e-14)
(2764.5 -2.14492e-10 5.3816e-14)
(2764.5 -2.15158e-10 4.98573e-14)
(2764.5 -2.18029e-10 4.70344e-14)
(2764.5 -2.14478e-10 4.55184e-14)
(2764.5 -2.11013e-10 4.59315e-14)
(2764.5 -2.08836e-10 4.30168e-14)
(2764.5 -2.09842e-10 4.41381e-14)
(2764.5 -2.06721e-10 4.66264e-14)
(2764.5 -2.10812e-10 4.51691e-14)
(2764.5 -2.1537e-10 4.81387e-14)
(2764.5 -2.20996e-10 4.97337e-14)
(2764.5 -2.26093e-10 4.65887e-14)
(2764.5 -2.29118e-10 4.22916e-14)
(2764.5 -2.25951e-10 4.63411e-14)
(2764.5 -2.31793e-10 4.72473e-14)
(2764.5 -2.34527e-10 4.90573e-14)
(2764.5 -2.32457e-10 4.21815e-14)
(2764.5 -2.35946e-10 4.46369e-14)
(2764.5 -2.37119e-10 3.92444e-14)
(2764.5 -1.62706e-07 2.73975e-10)
(2764.5 -8.68531e-08 1.35915e-10)
(2764.5 -4.48811e-08 6.63589e-11)
(2764.5 -2.54144e-08 3.67836e-11)
(2764.5 -1.61537e-08 2.34893e-11)
(2764.5 -1.1244e-08 1.64506e-11)
(2764.5 -8.33946e-09 1.21794e-11)
(2764.5 -6.47424e-09 9.47623e-12)
(2764.5 -5.18093e-09 7.61213e-12)
(2764.5 -4.2407e-09 6.27367e-12)
(2764.5 -3.54401e-09 5.1619e-12)
(2764.5 -3.01331e-09 4.3649e-12)
(2764.5 -2.58624e-09 3.71e-12)
(2764.5 -2.24939e-09 3.23046e-12)
(2764.5 -1.99426e-09 2.88218e-12)
(2764.5 -1.78323e-09 2.51466e-12)
(2764.5 -1.59291e-09 2.18816e-12)
(2764.5 -1.43763e-09 1.97396e-12)
(2764.5 -1.31238e-09 1.79308e-12)
(2764.5 -1.20005e-09 1.62425e-12)
(2764.5 -1.10459e-09 1.47996e-12)
(2764.5 -1.02366e-09 1.35629e-12)
(2764.5 -9.47383e-10 1.22472e-12)
(2764.5 -8.79525e-10 1.14407e-12)
(2764.5 -8.16097e-10 1.0356e-12)
(2764.5 -7.61467e-10 1.00423e-12)
(2764.5 -7.18936e-10 9.13735e-13)
(2764.5 -6.81195e-10 8.70712e-13)
(2764.5 -6.37957e-10 8.24343e-13)
(2764.5 -6.03093e-10 7.63027e-13)
(2764.5 -5.78006e-10 6.95955e-13)
(2764.5 -5.49486e-10 6.70431e-13)
(2764.5 -5.29213e-10 6.14296e-13)
(2764.5 -5.00426e-10 5.6667e-13)
(2764.5 -4.78932e-10 5.49804e-13)
(2764.5 -4.69503e-10 5.31952e-13)
(2764.5 -4.55192e-10 4.94714e-13)
(2764.5 -4.29606e-10 4.66946e-13)
(2764.5 -4.13434e-10 4.31169e-13)
(2764.5 -4.05668e-10 4.0729e-13)
(2764.5 -3.93177e-10 4.13251e-13)
(2764.5 -3.79296e-10 3.93261e-13)
(2764.5 -3.68531e-10 3.75142e-13)
(2764.5 -3.58642e-10 3.6156e-13)
(2764.5 -3.48095e-10 3.48883e-13)
(2764.5 -3.38299e-10 3.30749e-13)
(2764.5 -3.24382e-10 3.12821e-13)
(2764.5 -3.1523e-10 3.06079e-13)
(2764.5 -3.13255e-10 2.92887e-13)
(2764.5 -3.10771e-10 2.67742e-13)
(2764.5 -3.05811e-10 2.75901e-13)
(2764.5 -3.00814e-10 2.64839e-13)
(2764.5 -2.9e-10 2.544e-13)
(2764.5 -2.84979e-10 2.45465e-13)
(2764.5 -2.79545e-10 2.4161e-13)
(2764.5 -2.70996e-10 2.35776e-13)
(2764.5 -2.5744e-10 2.13488e-13)
(2764.5 -2.54944e-10 2.05777e-13)
(2764.5 -2.55057e-10 2.1475e-13)
(2764.5 -2.64126e-10 1.96883e-13)
(2764.5 -2.68614e-10 1.88908e-13)
(2764.5 -2.63099e-10 1.80674e-13)
(2764.5 -2.55566e-10 1.82338e-13)
(2764.5 -2.53422e-10 1.92979e-13)
(2764.5 -2.51392e-10 1.7339e-13)
(2764.5 -2.46649e-10 1.75836e-13)
(2764.5 -2.42204e-10 1.70335e-13)
(2764.5 -2.37181e-10 1.54281e-13)
(2764.5 -2.36993e-10 1.5974e-13)
(2764.5 -2.28729e-10 1.59407e-13)
(2764.5 -2.33285e-10 1.50676e-13)
(2764.5 -2.32508e-10 1.5143e-13)
(2764.5 -2.30743e-10 1.44536e-13)
(2764.5 -2.30638e-10 1.41657e-13)
(2764.5 -2.27311e-10 1.43639e-13)
(2764.5 -2.27046e-10 1.39236e-13)
(2764.5 -2.24191e-10 1.39601e-13)
(2764.5 -2.22587e-10 1.32301e-13)
(2764.5 -2.20169e-10 1.20767e-13)
(2764.5 -2.21211e-10 1.2013e-13)
(2764.5 -2.20059e-10 1.27076e-13)
(2764.5 -2.19358e-10 1.18654e-13)
(2764.5 -2.16418e-10 1.14361e-13)
(2764.5 -2.14525e-10 1.17295e-13)
(2764.5 -2.13174e-10 1.13004e-13)
(2764.5 -2.14688e-10 1.09556e-13)
(2764.5 -2.13561e-10 1.02343e-13)
(2764.5 -2.14568e-10 1.08026e-13)
(2764.5 -2.16806e-10 1.14848e-13)
(2764.5 -2.15109e-10 1.13032e-13)
(2764.5 -2.13426e-10 1.04664e-13)
(2764.5 -2.16505e-10 1.01228e-13)
(2764.5 -2.17981e-10 1.00194e-13)
(2764.5 -2.16165e-10 9.72217e-14)
(2764.5 -2.13208e-10 9.56948e-14)
(2764.5 -2.11663e-10 9.84083e-14)
(2764.5 -2.15919e-10 8.99918e-14)
(2764.5 -2.16929e-10 8.73856e-14)
(2764.5 -2.14363e-10 8.91837e-14)
(2764.5 -2.15523e-10 8.23301e-14)
(2764.5 -2.13877e-10 7.74474e-14)
(2764.5 -2.13076e-10 8.22902e-14)
(2764.5 -2.14013e-10 8.60687e-14)
(2764.5 -2.14544e-10 7.96765e-14)
(2764.5 -2.15474e-10 7.97345e-14)
(2764.5 -2.15091e-10 8.39355e-14)
(2764.5 -2.13733e-10 8.09889e-14)
(2764.5 -2.139e-10 7.94106e-14)
(2764.5 -2.16057e-10 7.54374e-14)
(2764.5 -2.21346e-10 7.53143e-14)
(2764.5 -2.21849e-10 7.62437e-14)
(2764.5 -2.25783e-10 7.4754e-14)
(2764.5 -2.26253e-10 7.74046e-14)
(2764.5 -2.25866e-10 6.46434e-14)
(2764.5 -2.26556e-10 6.56532e-14)
(2764.5 -2.26002e-10 6.88006e-14)
(2764.5 -2.28299e-10 7.24312e-14)
(2764.5 -2.29485e-10 7.08115e-14)
(2764.5 -2.26763e-10 7.44343e-14)
(2764.5 -2.23775e-10 7.43384e-14)
(2764.5 -2.25607e-10 6.93876e-14)
(2764.5 -2.29658e-10 6.5263e-14)
(2764.5 -2.31674e-10 6.89923e-14)
(2764.5 -2.3172e-10 7.12059e-14)
(2764.5 -2.34381e-10 6.67634e-14)
(2764.5 -2.3603e-10 7.06582e-14)
(2764.5 -2.40666e-10 7.26332e-14)
(2764.5 -2.43994e-10 6.3136e-14)
(2764.5 -2.45973e-10 6.19076e-14)
(2764.5 -2.46138e-10 6.07488e-14)
(2764.5 -2.45938e-10 6.1613e-14)
(2764.5 -2.47525e-10 6.57677e-14)
(2764.5 -2.50019e-10 6.43033e-14)
(2764.5 -2.54683e-10 6.59942e-14)
(2764.5 -2.58716e-10 6.70747e-14)
(2764.5 -2.62762e-10 6.56324e-14)
(2764.5 -2.68347e-10 6.74153e-14)
(2764.5 -2.70877e-10 6.02953e-14)
(2764.5 -2.7549e-10 6.03005e-14)
(2764.5 -2.79174e-10 5.65249e-14)
(2764.5 -2.7884e-10 6.15911e-14)
(2764.5 -2.77207e-10 5.89793e-14)
(2764.5 -2.72062e-10 6.07895e-14)
(2764.5 -2.70356e-10 6.10574e-14)
(2764.5 -2.7137e-10 6.18352e-14)
(2764.5 -2.72126e-10 6.12202e-14)
(2764.5 -2.72177e-10 6.01395e-14)
(2764.5 -2.76994e-10 5.46658e-14)
(2764.5 -2.79507e-10 5.44266e-14)
(2764.5 -2.82885e-10 5.71512e-14)
(2764.5 -2.86921e-10 5.34943e-14)
(2764.5 -2.90002e-10 6.27726e-14)
(2764.5 -2.9746e-10 5.58249e-14)
(2764.5 -2.98901e-10 5.2945e-14)
(2764.5 -2.9828e-10 6.08314e-14)
(2764.5 -2.98697e-10 5.92468e-14)
(2764.5 -1.82796e-07 3.07117e-10)
(2764.5 -1.06085e-07 1.64656e-10)
(2764.5 -5.78171e-08 8.35013e-11)
(2764.5 -3.32676e-08 4.65449e-11)
(2764.5 -2.10613e-08 2.94752e-11)
(2764.5 -1.45327e-08 2.04581e-11)
(2764.5 -1.07112e-08 1.52439e-11)
(2764.5 -8.28965e-09 1.1721e-11)
(2764.5 -6.6197e-09 9.34166e-12)
(2764.5 -5.40806e-09 7.66703e-12)
(2764.5 -4.51268e-09 6.36244e-12)
(2764.5 -3.82897e-09 5.35821e-12)
(2764.5 -3.28476e-09 4.5827e-12)
(2764.5 -2.85926e-09 4.01354e-12)
(2764.5 -2.53084e-09 3.48383e-12)
(2764.5 -2.25807e-09 3.05157e-12)
(2764.5 -2.01743e-09 2.72628e-12)
(2764.5 -1.82278e-09 2.41683e-12)
(2764.5 -1.66057e-09 2.20106e-12)
(2764.5 -1.51716e-09 1.97051e-12)
(2764.5 -1.39457e-09 1.8158e-12)
(2764.5 -1.29263e-09 1.6584e-12)
(2764.5 -1.19897e-09 1.51318e-12)
(2764.5 -1.1154e-09 1.3647e-12)
(2764.5 -1.03289e-09 1.29633e-12)
(2764.5 -9.61174e-10 1.22865e-12)
(2764.5 -9.06324e-10 1.13012e-12)
(2764.5 -8.56753e-10 1.06965e-12)
(2764.5 -8.05578e-10 9.80778e-13)
(2764.5 -7.62433e-10 8.91724e-13)
(2764.5 -7.26592e-10 8.57232e-13)
(2764.5 -6.9006e-10 8.03604e-13)
(2764.5 -6.6413e-10 7.54072e-13)
(2764.5 -6.32576e-10 7.20782e-13)
(2764.5 -6.0449e-10 6.79108e-13)
(2764.5 -5.84282e-10 6.17194e-13)
(2764.5 -5.67471e-10 6.21854e-13)
(2764.5 -5.38919e-10 5.7963e-13)
(2764.5 -5.21635e-10 5.52464e-13)
(2764.5 -5.06286e-10 5.32132e-13)
(2764.5 -4.91499e-10 4.91715e-13)
(2764.5 -4.73783e-10 4.70542e-13)
(2764.5 -4.60728e-10 4.5364e-13)
(2764.5 -4.48641e-10 4.43728e-13)
(2764.5 -4.38564e-10 4.22458e-13)
(2764.5 -4.22134e-10 4.20463e-13)
(2764.5 -4.0582e-10 3.84804e-13)
(2764.5 -3.94718e-10 3.7331e-13)
(2764.5 -3.93946e-10 3.65958e-13)
(2764.5 -3.83771e-10 3.41688e-13)
(2764.5 -3.76577e-10 3.3275e-13)
(2764.5 -3.72886e-10 3.19974e-13)
(2764.5 -3.64263e-10 3.08564e-13)
(2764.5 -3.56021e-10 3.07246e-13)
(2764.5 -3.45924e-10 2.89994e-13)
(2764.5 -3.36365e-10 2.76609e-13)
(2764.5 -3.2318e-10 2.64753e-13)
(2764.5 -3.19055e-10 2.65948e-13)
(2764.5 -3.13556e-10 2.53403e-13)
(2764.5 -3.19959e-10 2.40552e-13)
(2764.5 -3.28224e-10 2.42509e-13)
(2764.5 -3.24512e-10 2.2804e-13)
(2764.5 -3.17379e-10 2.24123e-13)
(2764.5 -3.17436e-10 2.17096e-13)
(2764.5 -3.13778e-10 2.11106e-13)
(2764.5 -3.07152e-10 2.13963e-13)
(2764.5 -3.01874e-10 2.00086e-13)
(2764.5 -2.94033e-10 1.8509e-13)
(2764.5 -2.92262e-10 1.988e-13)
(2764.5 -2.89786e-10 1.90369e-13)
(2764.5 -2.89054e-10 1.80107e-13)
(2764.5 -2.90534e-10 1.78301e-13)
(2764.5 -2.87753e-10 1.79022e-13)
(2764.5 -2.86577e-10 1.65885e-13)
(2764.5 -2.81861e-10 1.73803e-13)
(2764.5 -2.76711e-10 1.677e-13)
(2764.5 -2.75597e-10 1.62541e-13)
(2764.5 -2.7647e-10 1.552e-13)
(2764.5 -2.71633e-10 1.66057e-13)
(2764.5 -2.70923e-10 1.59935e-13)
(2764.5 -2.69973e-10 1.55975e-13)
(2764.5 -2.70122e-10 1.43553e-13)
(2764.5 -2.67853e-10 1.43055e-13)