/*--------------------------------*- C++ -*----------------------------------*\
| =========                 |                                                 |
| \\      /  F ield         | OpenFOAM: The Open Source CFD Toolbox           |
|  \\    /   O peration     | Version:  v1706                                 |
|   \\  /    A nd           | Web:      www.OpenFOAM.com                      |
|    \\/     M anipulation  |                                                 |
\*---------------------------------------------------------------------------*/
FoamFile
{
    version     2.0;
    format      ascii;
    class       volScalarField;
    location    "8e-06";
    object      wallHeatFlux;
}
// * * * * * * * * * * * * * * * * * * * * * * * * * * * * * * * * * * * * * //

dimensions      [1 0 -3 0 0 0 0];


internalField   uniform 0;

boundaryField
{
    cone
    {
        type            calculated;
        value           nonuniform List<scalar> 
147
(
870878
870560
870231
869834
869375
868843
868239
867563
866815
865997
865107
864148
863119
862021
860854
859618
858313
856939
855498
853988
852407
850756
849035
847244
845382
843451
841449
839378
837237
835027
832747
830399
827982
825498
822947
820329
817642
814889
812069
809184
806233
803218
800139
796996
793791
790523
787194
783804
780354
776845
773277
769651
765968
762228
758432
754581
750675
746714
742702
738637
734521
730355
726139
721875
717563
713203
708798
704349
699855
695318
690738
686117
681456
676756
672017
667241
662427
657578
652694
647777
642828
637846
632833
627791
622720
617622
612498
607348
602174
596976
591755
586514
581252
575971
570673
565358
560026
554680
549321
543949
538566
533172
527770
522360
516943
511520
506091
500658
495222
489784
484345
478905
473467
468030
462597
457168
451743
446325
440915
435516
430131
424755
419389
414035
408693
403366
398055
392759
387480
382220
376980
371760
366563
361389
356241
351119
346025
340961
335927
330927
325962
321032
316142
311291
306482
301717
871831
)
;
    }
    inlet
    {
        type            calculated;
        value           uniform 0;
    }
    rWedge
    {
        type            wedge;
    }
    lWedge
    {
        type            wedge;
    }
    outlet
    {
        type            calculated;
        value           nonuniform 0();
    }
    procBoundary3to2
    {
        type            processor;
        value           uniform 0;
    }
}


// ************************************************************************* //
