/*--------------------------------*- C++ -*----------------------------------*\
| =========                 |                                                 |
| \\      /  F ield         | OpenFOAM: The Open Source CFD Toolbox           |
|  \\    /   O peration     | Version:  v1706                                 |
|   \\  /    A nd           | Web:      www.OpenFOAM.com                      |
|    \\/     M anipulation  |                                                 |
\*---------------------------------------------------------------------------*/
FoamFile
{
    version     2.0;
    format      ascii;
    class       volScalarField;
    location    "6e-06";
    object      alpha;
}
// * * * * * * * * * * * * * * * * * * * * * * * * * * * * * * * * * * * * * //

dimensions      [1 -1 -1 0 0 0 0];


internalField   nonuniform List<scalar> 
30038
(
1.40478e-05
1.40478e-05
1.40478e-05
1.40478e-05
1.40478e-05
1.40478e-05
1.40478e-05
1.40478e-05
1.40478e-05
1.40478e-05
1.40478e-05
1.40478e-05
1.40478e-05
1.40478e-05
1.40478e-05
1.40478e-05
1.40478e-05
1.40478e-05
1.40478e-05
1.40478e-05
1.40478e-05
1.40478e-05
1.40478e-05
1.40478e-05
1.40478e-05
1.40478e-05
1.40478e-05
1.40478e-05
1.40478e-05
1.40478e-05
1.40478e-05
1.40478e-05
1.40478e-05
1.40478e-05
1.40478e-05
1.40478e-05
1.40478e-05
1.40478e-05
1.40478e-05
1.40478e-05
1.40478e-05
1.40478e-05
1.40478e-05
1.40478e-05
1.40478e-05
1.40478e-05
1.40478e-05
1.40478e-05
1.40478e-05
1.40478e-05
1.40478e-05
1.40478e-05
1.40478e-05
1.40478e-05
1.40478e-05
1.40478e-05
1.40478e-05
1.40478e-05
1.40478e-05
1.40478e-05
1.40478e-05
1.40478e-05
1.40478e-05
1.40478e-05
1.40478e-05
1.40478e-05
1.40478e-05
1.40478e-05
1.40478e-05
1.40478e-05
1.40478e-05
1.40478e-05
1.40478e-05
1.40478e-05
1.40478e-05
1.40478e-05
1.40478e-05
1.40478e-05
1.40478e-05
1.40478e-05
1.40478e-05
1.40478e-05
1.40478e-05
1.40478e-05
1.40478e-05
1.40478e-05
1.40478e-05
1.40478e-05
1.40478e-05
1.40478e-05
1.40478e-05
1.40478e-05
1.40478e-05
1.40478e-05
1.40478e-05
1.40478e-05
1.40478e-05
1.40478e-05
1.40478e-05
1.40478e-05
1.40478e-05
1.40478e-05
1.40478e-05
1.40478e-05
1.40478e-05
1.40478e-05
1.40478e-05
1.40478e-05
1.40478e-05
1.40478e-05
1.40478e-05
1.40478e-05
1.40478e-05
1.40478e-05
1.40478e-05
1.40478e-05
1.40478e-05
1.40478e-05
1.40478e-05
1.40478e-05
1.40478e-05
1.40478e-05
1.40478e-05
1.40478e-05
1.40478e-05
1.40478e-05
1.40478e-05
1.40478e-05
1.40478e-05
1.40478e-05
1.40478e-05
1.40478e-05
1.40478e-05
1.40478e-05
1.40478e-05
1.40478e-05
1.40478e-05
1.40478e-05
1.40478e-05
1.40478e-05
1.40478e-05
1.40478e-05
1.40478e-05
1.40478e-05
1.40478e-05
1.40478e-05
1.40478e-05
1.40478e-05
1.40478e-05
1.40478e-05
1.40478e-05
1.40478e-05
1.40478e-05
1.40478e-05
1.40478e-05
1.40478e-05
1.40478e-05
1.40478e-05
1.40478e-05
1.40478e-05
1.40478e-05
1.40478e-05
1.40478e-05
1.40478e-05
1.40478e-05
1.40478e-05
1.40478e-05
1.40478e-05
1.40478e-05
1.40478e-05
1.40478e-05
1.40478e-05
1.40478e-05
1.40478e-05
1.40478e-05
1.40478e-05
1.40478e-05
1.40478e-05
1.40478e-05
1.40478e-05
1.40478e-05
1.40478e-05
1.40478e-05
1.40478e-05
1.40478e-05
1.40478e-05
1.40478e-05
1.40478e-05
1.40478e-05
1.40478e-05
1.40478e-05
1.40478e-05
1.40478e-05
1.40478e-05
1.40478e-05
1.40478e-05
1.40478e-05
1.40478e-05
1.40478e-05
1.40478e-05
1.40478e-05
1.40478e-05
1.40478e-05
1.40478e-05
1.40478e-05
1.40478e-05
1.40478e-05
1.40478e-05
1.40478e-05
1.40478e-05
1.40478e-05
1.40478e-05
1.40478e-05
1.40478e-05
1.40478e-05
1.40478e-05
1.40478e-05
1.40478e-05
1.40478e-05
1.40478e-05
1.40478e-05
1.40478e-05
1.40478e-05
1.40478e-05
1.40478e-05
1.40478e-05
1.40478e-05
1.40478e-05
1.40478e-05
1.40478e-05
1.40478e-05
1.40478e-05
1.40478e-05
1.40478e-05
1.40478e-05
1.40478e-05
1.40478e-05
1.40478e-05
1.40478e-05
1.40478e-05
1.40478e-05
1.40478e-05
1.40478e-05
1.40478e-05
1.40478e-05
1.40478e-05
1.40478e-05
1.40478e-05
1.40478e-05
1.40478e-05
1.40478e-05
1.40478e-05
1.40478e-05
1.40478e-05
1.40478e-05
1.40478e-05
1.40478e-05
1.40478e-05
1.40478e-05
1.40478e-05
1.40478e-05
1.40478e-05
1.40478e-05
1.40478e-05
1.40478e-05
1.40478e-05
1.40478e-05
1.40478e-05
1.40478e-05
1.40478e-05
1.40478e-05
1.40478e-05
1.40478e-05
1.40478e-05
1.40478e-05
1.40478e-05
1.40478e-05
1.40478e-05
1.40478e-05
1.40478e-05
1.40478e-05
1.40478e-05
1.40478e-05
1.40478e-05
1.40478e-05
1.40478e-05
1.40478e-05
1.40478e-05
1.40478e-05
1.40478e-05
1.40478e-05
1.40478e-05
1.40478e-05
1.40478e-05
1.40478e-05
1.40478e-05
1.40478e-05
1.40478e-05
1.40478e-05
1.40478e-05
1.40478e-05
1.40478e-05
1.40478e-05
1.40478e-05
1.40478e-05
1.40478e-05
1.40478e-05
1.40478e-05
1.40478e-05
1.40478e-05
1.40478e-05
1.40478e-05
1.40478e-05
1.40478e-05
1.40478e-05
1.40478e-05
1.40478e-05
1.40478e-05
1.40478e-05
1.40478e-05
1.40478e-05
1.40478e-05
1.40478e-05
1.40478e-05
1.40478e-05
1.40478e-05
1.40478e-05
1.40478e-05
1.40478e-05
1.40478e-05
1.40478e-05
1.40478e-05
1.40478e-05
1.40478e-05
1.40478e-05
1.40478e-05
1.40478e-05
1.40478e-05
1.40478e-05
1.40478e-05
1.40478e-05
1.40478e-05
1.40478e-05
1.40478e-05
1.40478e-05
1.40478e-05
1.40478e-05
1.40478e-05
1.40478e-05
1.40478e-05
1.40478e-05
1.40478e-05
1.40478e-05
1.40478e-05
1.40478e-05
1.40478e-05
1.40478e-05
1.40478e-05
1.40478e-05
1.40478e-05
1.40478e-05
1.40478e-05
1.40478e-05
1.40478e-05
1.40478e-05
1.40478e-05
1.40478e-05
1.40478e-05
1.40478e-05
1.40478e-05
1.40478e-05
1.40478e-05
1.40478e-05
1.40478e-05
1.40478e-05
1.40478e-05
1.40478e-05
1.40478e-05
1.40478e-05
1.40478e-05
1.40478e-05
1.40478e-05
1.40478e-05
1.40478e-05
1.40478e-05
1.40478e-05
1.40478e-05
1.40478e-05
1.40478e-05
1.40478e-05
1.40478e-05
1.40478e-05
1.40478e-05
1.40478e-05
1.40478e-05
1.40478e-05
1.40478e-05
1.40478e-05
1.40478e-05
1.40478e-05
1.40478e-05
1.40478e-05
1.40478e-05
1.40478e-05
1.40478e-05
1.40478e-05
1.40478e-05
1.40478e-05
1.40478e-05
1.40478e-05
1.40478e-05
1.40478e-05
1.40478e-05
1.40478e-05
1.40478e-05
1.40478e-05
1.40478e-05
1.40478e-05
1.40478e-05
1.40478e-05
1.40478e-05
1.40478e-05
1.40478e-05
1.40478e-05
1.40478e-05
1.40478e-05
1.40478e-05
1.40478e-05
1.40478e-05
1.40478e-05
1.40478e-05
1.40478e-05
1.40478e-05
1.40478e-05
1.40478e-05
1.40478e-05
1.40478e-05
1.40478e-05
1.40478e-05
1.40478e-05
1.40478e-05
1.40478e-05
1.40478e-05
1.40478e-05
1.40478e-05
1.40478e-05
1.40478e-05
1.40478e-05
1.40478e-05
1.40478e-05
1.40478e-05
1.40478e-05
1.40478e-05
1.40478e-05
1.40478e-05
1.40478e-05
1.40478e-05
1.40478e-05
1.40478e-05
1.40478e-05
1.40478e-05
1.40478e-05
1.40478e-05
1.40478e-05
1.40478e-05
1.40478e-05
1.40478e-05
1.40478e-05
1.40478e-05
1.40478e-05
1.40478e-05
1.40478e-05
1.40478e-05
1.40478e-05
1.40478e-05
1.40478e-05
1.40478e-05
1.40478e-05
1.40478e-05
1.40478e-05
1.40478e-05
1.40478e-05
1.40478e-05
1.40478e-05
1.40478e-05
1.40478e-05
1.40478e-05
1.40478e-05
1.40478e-05
1.40478e-05
1.40478e-05
1.40478e-05
1.40478e-05
1.40478e-05
1.40478e-05
1.40478e-05
1.40478e-05
1.40478e-05
1.40478e-05
1.40478e-05
1.40478e-05
1.40478e-05
1.40478e-05
1.40478e-05
1.40478e-05
1.40478e-05
1.40478e-05
1.40478e-05
1.40478e-05
1.40478e-05
1.40478e-05
1.40478e-05
1.40478e-05
1.40478e-05
1.40478e-05
1.40478e-05
1.40478e-05
1.40478e-05
1.40478e-05
1.40478e-05
1.40478e-05
1.40478e-05
1.40478e-05
1.40478e-05
1.40478e-05
1.40478e-05
1.40478e-05
1.40478e-05
1.40478e-05
1.40478e-05
1.40478e-05
1.40478e-05
1.40478e-05
1.40478e-05
1.40478e-05
1.40478e-05
1.40478e-05
1.40478e-05
1.40478e-05
1.40478e-05
1.40478e-05
1.40478e-05
1.40478e-05
1.40478e-05
1.40478e-05
1.40478e-05
1.40478e-05
1.40478e-05
1.40478e-05
1.40478e-05
1.40478e-05
1.40478e-05
1.40478e-05
1.40478e-05
1.40478e-05
1.40478e-05
1.40478e-05
1.40478e-05
1.40478e-05
1.40478e-05
1.40478e-05
1.40478e-05
1.40478e-05
1.40478e-05
1.40478e-05
1.40478e-05
1.40478e-05
1.40478e-05
1.40478e-05
1.40478e-05
1.40478e-05
1.40478e-05
1.40478e-05
1.40478e-05
1.40478e-05
1.40478e-05
1.40478e-05
1.40478e-05
1.40478e-05
1.40478e-05
1.40478e-05
1.40478e-05
1.40478e-05
1.40478e-05
1.40478e-05
1.40478e-05
1.40478e-05
1.40478e-05
1.40478e-05
1.40478e-05
1.40478e-05
1.40478e-05
1.40478e-05
1.40478e-05
1.40478e-05
1.40478e-05
1.40478e-05
1.40478e-05
1.40478e-05
1.40478e-05
1.40478e-05
1.40478e-05
1.40478e-05
1.40478e-05
1.40478e-05
1.40478e-05
1.40478e-05
1.40478e-05
1.40478e-05
1.40478e-05
1.40478e-05
1.40478e-05
1.40478e-05
1.40478e-05
1.40478e-05
1.40478e-05
1.40478e-05
1.40478e-05
1.40478e-05
1.40478e-05
1.40478e-05
1.40478e-05
1.40478e-05
1.40478e-05
1.40478e-05
1.40478e-05
1.40478e-05
1.40478e-05
1.40478e-05
1.40478e-05
1.40478e-05
1.40478e-05
1.40478e-05
1.40478e-05
1.40478e-05
1.40478e-05
1.40478e-05
1.40478e-05
1.40478e-05
1.40478e-05
1.40478e-05
1.40478e-05
1.40478e-05
1.40478e-05
1.40478e-05
1.40478e-05
1.40478e-05
1.40478e-05
1.40478e-05
1.40478e-05
1.40478e-05
1.40478e-05
1.40478e-05
1.40478e-05
1.40478e-05
1.40478e-05
1.40478e-05
1.40478e-05
1.40478e-05
1.40478e-05
1.40478e-05
1.40478e-05
1.40478e-05
1.40478e-05
1.40478e-05
1.40478e-05
1.40478e-05
1.40478e-05
1.40478e-05
1.40478e-05
1.40478e-05
1.40478e-05
1.40478e-05
1.40478e-05
1.40478e-05
1.40478e-05
1.40478e-05
1.40478e-05
1.40478e-05
1.40478e-05
1.40478e-05
1.40478e-05
1.40478e-05
1.40478e-05
1.40478e-05
1.40478e-05
1.40478e-05
1.40478e-05
1.40478e-05
1.40478e-05
1.40478e-05
1.40478e-05
1.40478e-05
1.40478e-05
1.40478e-05
1.40478e-05
1.40478e-05
1.40478e-05
1.40478e-05
1.40478e-05
1.40478e-05
1.40478e-05
1.40478e-05
1.40478e-05
1.40478e-05
1.40478e-05
1.40478e-05
1.40478e-05
1.40478e-05
1.40478e-05
1.40478e-05
1.40478e-05
1.40478e-05
1.40478e-05
1.40478e-05
1.40478e-05
1.40478e-05
1.40478e-05
1.40478e-05
1.40478e-05
1.40478e-05
1.40478e-05
1.40478e-05
1.40478e-05
1.40478e-05
1.40478e-05
1.40478e-05
1.40478e-05
1.40478e-05
1.40478e-05
1.40478e-05
1.40478e-05
1.40478e-05
1.40478e-05
1.40478e-05
1.40478e-05
1.40478e-05
1.40478e-05
1.40478e-05
1.40478e-05
1.40478e-05
1.40478e-05
1.40478e-05
1.40478e-05
1.40478e-05
1.40478e-05
1.40478e-05
1.40478e-05
1.40478e-05
1.40478e-05
1.40478e-05
1.40478e-05
1.40478e-05
1.40478e-05
1.40478e-05
1.40478e-05
1.40478e-05
1.40478e-05
1.40478e-05
1.40478e-05
1.40478e-05
1.40478e-05
1.40478e-05
1.40478e-05
1.40478e-05
1.40478e-05
1.40478e-05
1.40478e-05
1.40478e-05
1.40478e-05
1.40478e-05
1.40478e-05
1.40478e-05
1.40478e-05
1.40478e-05
1.40478e-05
1.40478e-05
1.40478e-05
1.40478e-05
1.40478e-05
1.40478e-05
1.40478e-05
1.40478e-05
1.40478e-05
1.40478e-05
1.40478e-05
1.40478e-05
1.40478e-05
1.40478e-05
1.40478e-05
1.40478e-05
1.40478e-05
1.40478e-05
1.40478e-05
1.40478e-05
1.40478e-05
1.40478e-05
1.40478e-05
1.40478e-05
1.40478e-05
1.40478e-05
1.40478e-05
1.40478e-05
1.40478e-05
1.40478e-05
1.40478e-05
1.40478e-05
1.40478e-05
1.40478e-05
1.40478e-05
1.40478e-05
1.40478e-05
1.40478e-05
1.40478e-05
1.40478e-05
1.40478e-05
1.40478e-05
1.40478e-05
1.40478e-05
1.40478e-05
1.40478e-05
1.40478e-05
1.40478e-05
1.40478e-05
1.40478e-05
1.40478e-05
1.40478e-05
1.40478e-05
1.40478e-05
1.40478e-05
1.40478e-05
1.40478e-05
1.40478e-05
1.40478e-05
1.40478e-05
1.40478e-05
1.40478e-05
1.40478e-05
1.40478e-05
1.40478e-05
1.40478e-05
1.40478e-05
1.40478e-05
1.40478e-05
1.40478e-05
1.40478e-05
1.40478e-05
1.40478e-05
1.40478e-05
1.40478e-05
1.40478e-05
1.40478e-05
1.40478e-05
1.40478e-05
1.40478e-05
1.40478e-05
1.40478e-05
1.40478e-05
1.40478e-05
1.40478e-05
1.40478e-05
1.40478e-05
1.40478e-05
1.40478e-05
1.40478e-05
1.40478e-05
1.40478e-05
1.40478e-05
1.40478e-05
1.40478e-05
1.40478e-05
1.40478e-05
1.40478e-05
1.40478e-05
1.40478e-05
1.40478e-05
1.40478e-05
1.40478e-05
1.40478e-05
1.40478e-05
1.40478e-05
1.40478e-05
1.40478e-05
1.40478e-05
1.40478e-05
1.40478e-05
1.40478e-05
1.40478e-05
1.40478e-05
1.40478e-05
1.40478e-05
1.40478e-05
1.40478e-05
1.40478e-05
1.40478e-05
1.40478e-05
1.40478e-05
1.40478e-05
1.40478e-05
1.40478e-05
1.40478e-05
1.40478e-05
1.40478e-05
1.40478e-05
1.40478e-05
1.40478e-05
1.40478e-05
1.40478e-05
1.40478e-05
1.40478e-05
1.40478e-05
1.40478e-05
1.40478e-05
1.40478e-05
1.40478e-05
1.40478e-05
1.40478e-05
1.40478e-05
1.40478e-05
1.40478e-05
1.40478e-05
1.40478e-05
1.40478e-05
1.40478e-05
1.40478e-05
1.40478e-05
1.40478e-05
1.40478e-05
1.40478e-05
1.40478e-05
1.40478e-05
1.40478e-05
1.40478e-05
1.40478e-05
1.40478e-05
1.40478e-05
1.40478e-05
1.40478e-05
1.40478e-05
1.40478e-05
1.40478e-05
1.40478e-05
1.40478e-05
1.40478e-05
1.40478e-05
1.40478e-05
1.40478e-05
1.40478e-05
1.40478e-05
1.40478e-05
1.40478e-05
1.40478e-05
1.40478e-05
1.40478e-05
1.40478e-05
1.40478e-05
1.40478e-05
1.40478e-05
1.40478e-05
1.40478e-05
1.40478e-05
1.40478e-05
1.40478e-05
1.40478e-05
1.40478e-05
1.40478e-05
1.40478e-05
1.40478e-05
1.40478e-05
1.40478e-05
1.40478e-05
1.40478e-05
1.40478e-05
1.40478e-05
1.40478e-05
1.40478e-05
1.40478e-05
1.40478e-05
1.40478e-05
1.40478e-05
1.40478e-05
1.40478e-05
1.40478e-05
1.40478e-05
1.40478e-05
1.40478e-05
1.40478e-05
1.40478e-05
1.40478e-05
1.40478e-05
1.40478e-05
1.40478e-05
1.40478e-05
1.40478e-05
1.40478e-05
1.40478e-05
1.40478e-05
1.40478e-05
1.40478e-05
1.40478e-05
1.40478e-05
1.40478e-05
1.40478e-05
1.40478e-05
1.40478e-05
1.40478e-05
1.40478e-05
1.40478e-05
1.40478e-05
1.40478e-05
1.40478e-05
1.40478e-05
1.40478e-05
1.40478e-05
1.40478e-05
1.40478e-05
1.40478e-05
1.40478e-05
1.40478e-05
1.40478e-05
1.40478e-05
1.40478e-05
1.40478e-05
1.40478e-05
1.40478e-05
1.40478e-05
1.40478e-05
1.40478e-05
1.40478e-05
1.40478e-05
1.40478e-05
1.40478e-05
1.40478e-05
1.40478e-05
1.40478e-05
1.40478e-05
1.40478e-05
1.40478e-05
1.40478e-05
1.40478e-05
1.40478e-05
1.40478e-05
1.40478e-05
1.40478e-05
1.40478e-05
1.40478e-05
1.40478e-05
1.40478e-05
1.40478e-05
1.40478e-05
1.40478e-05
1.40478e-05
1.40478e-05
1.40478e-05
1.40478e-05
1.40478e-05
1.40478e-05
1.40478e-05
1.40478e-05
1.40478e-05
1.40478e-05
1.40478e-05
1.40478e-05
1.40478e-05
1.40478e-05
1.40478e-05
1.40478e-05
1.40478e-05
1.40478e-05
1.40478e-05
1.40478e-05
1.40478e-05
1.40478e-05
1.40478e-05
1.40478e-05
1.40478e-05
1.40478e-05
1.40478e-05
1.40478e-05
1.40478e-05
1.40478e-05
1.40478e-05
1.40478e-05
1.40478e-05
1.40478e-05
1.40478e-05
1.40478e-05
1.40478e-05
1.40478e-05
1.40478e-05
1.40478e-05
1.40478e-05
1.40478e-05
1.40478e-05
1.40478e-05
1.40478e-05
1.40478e-05
1.40478e-05
1.40478e-05
1.40478e-05
1.40478e-05
1.40478e-05
1.40478e-05
1.40478e-05
1.40478e-05
1.40478e-05
1.40478e-05
1.40478e-05
1.40478e-05
1.40478e-05
1.40478e-05
1.40478e-05
1.40478e-05
1.40478e-05
1.40478e-05
1.40478e-05
1.40478e-05
1.40478e-05
1.40478e-05
1.40478e-05
1.40478e-05
1.40478e-05
1.40478e-05
1.40478e-05
1.40478e-05
1.40478e-05
1.40478e-05
1.40478e-05
1.40478e-05
1.40478e-05
1.40478e-05
1.40478e-05
1.40478e-05
1.40478e-05
1.40478e-05
1.40478e-05
1.40478e-05
1.40478e-05
1.40478e-05
1.40478e-05
1.40478e-05
1.40478e-05
1.40478e-05
1.40478e-05
1.40478e-05
1.40478e-05
1.40478e-05
1.40478e-05
1.40478e-05
1.40478e-05
1.40478e-05
1.40478e-05
1.40478e-05
1.40478e-05
1.40478e-05
1.40478e-05
1.40478e-05
1.40478e-05
1.40478e-05
1.40478e-05
1.40478e-05
1.40478e-05
1.40478e-05
1.40478e-05
1.40478e-05
1.40478e-05
1.40478e-05
1.40478e-05
1.40478e-05
1.40478e-05
1.40478e-05
1.40478e-05
1.40478e-05
1.40478e-05
1.40478e-05
1.40478e-05
1.40478e-05
1.40478e-05
1.40478e-05
1.40478e-05
1.40478e-05
1.40478e-05
1.40478e-05
1.40478e-05
1.40478e-05
1.40478e-05
1.40478e-05
1.40478e-05
1.40478e-05
1.40478e-05
1.40478e-05
1.40478e-05
1.40478e-05
1.40478e-05
1.40478e-05
1.40478e-05
1.40478e-05
1.40478e-05
1.40478e-05
1.40478e-05
1.40478e-05
1.40478e-05
1.40478e-05
1.40478e-05
1.40478e-05
1.40478e-05
1.40478e-05
1.40478e-05
1.40478e-05
1.40478e-05
1.40478e-05
1.40478e-05
1.40478e-05
1.40478e-05
1.40478e-05
1.40478e-05
1.40478e-05
1.40478e-05
1.40478e-05
1.40478e-05
1.40478e-05
1.40478e-05
1.40478e-05
1.40478e-05
1.40478e-05
1.40478e-05
1.40478e-05
1.40478e-05
1.40478e-05
1.40478e-05
1.40478e-05
1.40478e-05
1.40478e-05
1.40478e-05
1.40478e-05
1.40478e-05
1.40478e-05
1.40478e-05
1.40478e-05
1.40478e-05
1.40478e-05
1.40478e-05
1.40478e-05
1.40478e-05
1.40478e-05
1.40478e-05
1.40478e-05
1.40478e-05
1.40478e-05
1.40478e-05
1.40478e-05
1.40478e-05
1.40478e-05
1.40478e-05
1.40478e-05
1.40478e-05
1.40478e-05
1.40478e-05
1.40478e-05
1.40478e-05
1.40478e-05
1.40478e-05
1.40478e-05
1.40478e-05
1.40478e-05
1.40478e-05
1.40478e-05
1.40478e-05
1.40478e-05
1.40478e-05
1.40478e-05
1.40478e-05
1.40478e-05
1.40478e-05
1.40478e-05
1.40478e-05
1.40478e-05
1.40478e-05
1.40478e-05
1.40478e-05
1.40478e-05
1.40478e-05
1.40478e-05
1.40478e-05
1.40478e-05
1.40478e-05
1.40478e-05
1.40478e-05
1.40478e-05
1.40478e-05
1.40478e-05
1.40478e-05
1.40478e-05
1.40478e-05
1.40478e-05
1.40478e-05
1.40478e-05
1.40478e-05
1.40478e-05
1.40478e-05
1.40478e-05
1.40478e-05
1.40478e-05
1.40478e-05
1.40478e-05
1.40478e-05
1.40478e-05
1.40478e-05
1.40478e-05
1.40478e-05
1.40478e-05
1.40478e-05
1.40478e-05
1.40478e-05
1.40478e-05
1.40478e-05
1.40478e-05
1.40478e-05
1.40478e-05
1.40478e-05
1.40478e-05
1.40478e-05
1.40478e-05
1.40478e-05
1.40478e-05
1.40478e-05
1.40478e-05
1.40478e-05
1.40478e-05
1.40478e-05
1.40478e-05
1.40478e-05
1.40478e-05
1.40478e-05
1.40478e-05
1.40478e-05
1.40478e-05
1.40478e-05
1.40478e-05
1.40478e-05
1.40478e-05
1.40478e-05
1.40478e-05
1.40478e-05
1.40478e-05
1.40478e-05
1.40478e-05
1.40478e-05
1.40478e-05
1.40478e-05
1.40478e-05
1.40478e-05
1.40478e-05
1.40478e-05
1.40478e-05
1.40478e-05
1.40478e-05
1.40478e-05
1.40478e-05
1.40478e-05
1.40478e-05
1.40478e-05
1.40478e-05
1.40478e-05
1.40478e-05
1.40478e-05
1.40478e-05
1.40478e-05
1.40478e-05
1.40478e-05
1.40478e-05
1.40478e-05
1.40478e-05
1.40478e-05
1.40478e-05
1.40478e-05
1.40478e-05
1.40478e-05
1.40478e-05
1.40478e-05
1.40478e-05
1.40478e-05
1.40478e-05
1.40478e-05
1.40478e-05
1.40478e-05
1.40478e-05
1.40478e-05
1.40478e-05
1.40478e-05
1.40478e-05
1.40478e-05
1.40478e-05
1.40478e-05
1.40478e-05
1.40478e-05
1.40478e-05
1.40478e-05
1.40478e-05
1.40478e-05
1.40478e-05
1.40478e-05
1.40478e-05
1.40478e-05
1.40478e-05
1.40478e-05
1.40478e-05
1.40478e-05
1.40478e-05
1.40478e-05
1.40478e-05
1.40478e-05
1.40478e-05
1.40478e-05
1.40478e-05
1.40478e-05
1.40478e-05
1.40478e-05
1.40478e-05
1.40478e-05
1.40478e-05
1.40478e-05
1.40478e-05
1.40478e-05
1.40478e-05
1.40478e-05
1.40478e-05
1.40478e-05
1.40478e-05
1.40478e-05
1.40478e-05
1.40478e-05
1.40478e-05
1.40478e-05
1.40478e-05
1.40478e-05
1.40478e-05
1.40478e-05
1.40478e-05
1.40478e-05
1.40478e-05
1.40478e-05
1.40478e-05
1.40478e-05
1.40478e-05
1.40478e-05
1.40478e-05
1.40478e-05
1.40478e-05
1.40478e-05
1.40478e-05
1.40478e-05
1.40478e-05
1.40478e-05
1.40478e-05
1.40478e-05
1.40478e-05
1.40478e-05
1.40478e-05
1.40478e-05
1.40478e-05
1.40478e-05
1.40478e-05
1.40478e-05
1.40478e-05
1.40478e-05
1.40478e-05
1.40478e-05
1.40478e-05
1.40478e-05
1.40478e-05
1.40478e-05
1.40478e-05
1.40478e-05
1.40478e-05
1.40478e-05
1.40478e-05
1.40478e-05
1.40478e-05
1.40478e-05
1.40478e-05
1.40478e-05
1.40478e-05
1.40478e-05
1.40478e-05
1.40478e-05
1.40478e-05
1.40478e-05
1.40478e-05
1.40478e-05
1.40478e-05
1.40478e-05
1.40478e-05
1.40478e-05
1.40478e-05
1.40478e-05
1.40478e-05
1.40478e-05
1.40478e-05
1.40478e-05
1.40478e-05
1.40478e-05
1.40478e-05
1.40478e-05
1.40478e-05
1.40478e-05
1.40478e-05
1.40478e-05
1.40478e-05
1.40478e-05
1.40478e-05
1.40478e-05
1.40478e-05
1.40478e-05
1.40478e-05
1.40478e-05
1.40478e-05
1.40478e-05
1.40478e-05
1.40478e-05
1.40478e-05
1.40478e-05
1.40478e-05
1.40478e-05
1.40478e-05
1.40478e-05
1.40478e-05
1.40478e-05
1.40478e-05
1.40478e-05
1.40478e-05
1.40478e-05
1.40478e-05
1.40478e-05
1.40478e-05
1.40478e-05
1.40478e-05
1.40478e-05
1.40478e-05
1.40478e-05
1.40478e-05
1.40478e-05
1.40478e-05
1.40478e-05
1.40478e-05
1.40478e-05
1.40478e-05
1.40478e-05
1.40478e-05
1.40478e-05
1.40478e-05
1.40478e-05
1.40478e-05
1.40478e-05
1.40478e-05
1.40478e-05
1.40478e-05
1.40478e-05
1.40478e-05
1.40478e-05
1.40478e-05
1.40478e-05
1.40478e-05
1.40478e-05
1.40478e-05
1.40478e-05
1.40478e-05
1.40478e-05
1.40478e-05
1.40478e-05
1.40478e-05
1.40478e-05
1.40478e-05
1.40478e-05
1.40478e-05
1.40478e-05
1.40478e-05
1.40478e-05
1.40478e-05
1.40478e-05
1.40478e-05
1.40478e-05
1.40478e-05
1.40478e-05
1.40478e-05
1.40478e-05
1.40478e-05
1.40478e-05
1.40478e-05
1.40478e-05
1.40479e-05
1.40479e-05
1.40478e-05
1.40478e-05
1.40478e-05
1.40478e-05
1.40478e-05
1.40478e-05
1.40478e-05
1.40478e-05
1.40478e-05
1.40478e-05
1.40478e-05
1.40478e-05
1.40478e-05
1.40478e-05
1.40478e-05
1.40478e-05
1.40478e-05
1.40478e-05
1.40478e-05
1.40478e-05
1.40478e-05
1.40478e-05
1.40478e-05
1.40478e-05
1.40478e-05
1.40478e-05
1.40478e-05
1.40478e-05
1.40478e-05
1.40478e-05
1.40478e-05
1.40478e-05
1.40478e-05
1.40478e-05
1.40478e-05
1.40478e-05
1.40478e-05
1.40478e-05
1.40478e-05
1.40478e-05
1.40478e-05
1.40479e-05
1.40479e-05
1.40479e-05
1.4048e-05
1.4048e-05
1.40481e-05
1.40481e-05
1.40483e-05
1.40484e-05
1.40478e-05
1.40478e-05
1.40478e-05
1.40478e-05
1.40478e-05
1.40478e-05
1.40478e-05
1.40478e-05
1.40478e-05
1.40478e-05
1.40478e-05
1.40478e-05
1.40478e-05
1.40478e-05
1.40478e-05
1.40478e-05
1.40478e-05
1.40478e-05
1.40478e-05
1.40478e-05
1.40478e-05
1.40478e-05
1.40478e-05
1.40478e-05
1.40478e-05
1.40478e-05
1.40478e-05
1.40478e-05
1.40478e-05
1.40478e-05
1.40478e-05
1.40478e-05
1.40478e-05
1.40478e-05
1.40479e-05
1.40479e-05
1.40479e-05
1.40479e-05
1.4048e-05
1.40481e-05
1.40481e-05
1.40482e-05
1.40484e-05
1.40486e-05
1.40488e-05
1.40491e-05
1.40495e-05
1.40499e-05
1.40506e-05
1.40515e-05
1.40478e-05
1.40478e-05
1.40478e-05
1.40478e-05
1.40478e-05
1.40478e-05
1.40478e-05
1.40478e-05
1.40478e-05
1.40478e-05
1.40478e-05
1.40478e-05
1.40478e-05
1.40478e-05
1.40478e-05
1.40478e-05
1.40478e-05
1.40478e-05
1.40478e-05
1.40478e-05
1.40478e-05
1.40478e-05
1.40478e-05
1.40478e-05
1.40478e-05
1.40478e-05
1.40478e-05
1.40478e-05
1.40479e-05
1.40479e-05
1.40479e-05
1.4048e-05
1.4048e-05
1.40481e-05
1.40482e-05
1.40483e-05
1.40485e-05
1.40487e-05
1.4049e-05
1.40494e-05
1.40499e-05
1.40505e-05
1.40513e-05
1.40524e-05
1.40537e-05
1.40554e-05
1.40576e-05
1.40604e-05
1.40639e-05
1.40691e-05
1.40478e-05
1.40478e-05
1.40478e-05
1.40478e-05
1.40478e-05
1.40478e-05
1.40478e-05
1.40478e-05
1.40478e-05
1.40478e-05
1.40478e-05
1.40478e-05
1.40478e-05
1.40478e-05
1.40478e-05
1.40478e-05
1.40478e-05
1.40478e-05
1.40478e-05
1.40478e-05
1.40478e-05
1.40479e-05
1.40479e-05
1.40479e-05
1.40479e-05
1.4048e-05
1.40481e-05
1.40481e-05
1.40482e-05
1.40484e-05
1.40486e-05
1.40488e-05
1.40492e-05
1.40496e-05
1.40502e-05
1.40509e-05
1.40519e-05
1.40532e-05
1.40548e-05
1.4057e-05
1.40598e-05
1.40634e-05
1.4068e-05
1.40739e-05
1.40815e-05
1.40912e-05
1.41035e-05
1.41191e-05
1.4139e-05
1.41673e-05
1.40478e-05
1.40478e-05
1.40478e-05
1.40478e-05
1.40478e-05
1.40478e-05
1.40478e-05
1.40478e-05
1.40478e-05
1.40478e-05
1.40478e-05
1.40478e-05
1.40478e-05
1.40478e-05
1.40478e-05
1.40479e-05
1.40479e-05
1.40479e-05
1.4048e-05
1.4048e-05
1.40481e-05
1.40482e-05
1.40483e-05
1.40485e-05
1.40487e-05
1.4049e-05
1.40493e-05
1.40498e-05
1.40504e-05
1.40513e-05
1.40524e-05
1.40538e-05
1.40557e-05
1.40582e-05
1.40614e-05
1.40656e-05
1.40711e-05
1.40783e-05
1.40875e-05
1.40995e-05
1.41149e-05
1.41348e-05
1.41603e-05
1.41928e-05
1.42342e-05
1.42867e-05
1.43528e-05
1.44359e-05
1.45406e-05
1.46839e-05
1.40478e-05
1.40478e-05
1.40478e-05
1.40478e-05
1.40478e-05
1.40478e-05
1.40478e-05
1.40478e-05
1.40479e-05
1.40479e-05
1.40479e-05
1.40479e-05
1.4048e-05
1.40481e-05
1.40481e-05
1.40482e-05
1.40484e-05
1.40486e-05
1.40488e-05
1.40491e-05
1.40495e-05
1.405e-05
1.40507e-05
1.40516e-05
1.40528e-05
1.40544e-05
1.40565e-05
1.40592e-05
1.40628e-05
1.40674e-05
1.40735e-05
1.40815e-05
1.40919e-05
1.41056e-05
1.41234e-05
1.41465e-05
1.41764e-05
1.42151e-05
1.42648e-05
1.43287e-05
1.44103e-05
1.45142e-05
1.46457e-05
1.48111e-05
1.50177e-05
1.52735e-05
1.55874e-05
1.59689e-05
1.64319e-05
1.70194e-05
1.40478e-05
1.40478e-05
1.40479e-05
1.40479e-05
1.40479e-05
1.40479e-05
1.4048e-05
1.4048e-05
1.40481e-05
1.40482e-05
1.40483e-05
1.40485e-05
1.40487e-05
1.4049e-05
1.40493e-05
1.40498e-05
1.40504e-05
1.40511e-05
1.40521e-05
1.40534e-05
1.40552e-05
1.40574e-05
1.40604e-05
1.40642e-05
1.40692e-05
1.40759e-05
1.40845e-05
1.40958e-05
1.41106e-05
1.413e-05
1.41552e-05
1.41881e-05
1.42307e-05
1.42862e-05
1.4358e-05
1.44509e-05
1.457e-05
1.47218e-05
1.49142e-05
1.51565e-05
1.54593e-05
1.58343e-05
1.62939e-05
1.68506e-05
1.75163e-05
1.83013e-05
1.92129e-05
2.02555e-05
2.14309e-05
2.27473e-05
2.42437e-05
1.40481e-05
1.40481e-05
1.40482e-05
1.40483e-05
1.40485e-05
1.40487e-05
1.40489e-05
1.40492e-05
1.40497e-05
1.40502e-05
1.40509e-05
1.40517e-05
1.40529e-05
1.40544e-05
1.40563e-05
1.40588e-05
1.4062e-05
1.40662e-05
1.40717e-05
1.40789e-05
1.40882e-05
1.41004e-05
1.41163e-05
1.41369e-05
1.41639e-05
1.41991e-05
1.42449e-05
1.43042e-05
1.43813e-05
1.4481e-05
1.46094e-05
1.47737e-05
1.4983e-05
1.52481e-05
1.55823e-05
1.60003e-05
1.65158e-05
1.71414e-05
1.78901e-05
1.87748e-05
1.98056e-05
2.09892e-05
2.23281e-05
2.38202e-05
2.54582e-05
2.72303e-05
2.91199e-05
3.11092e-05
3.31819e-05
3.53356e-05
3.75799e-05
1.4049e-05
1.40493e-05
1.40497e-05
1.40502e-05
1.40508e-05
1.40517e-05
1.40527e-05
1.40541e-05
1.40558e-05
1.40581e-05
1.40609e-05
1.40646e-05
1.40694e-05
1.40756e-05
1.40836e-05
1.40939e-05
1.41073e-05
1.41246e-05
1.4147e-05
1.41761e-05
1.42137e-05
1.42626e-05
1.43259e-05
1.44076e-05
1.45128e-05
1.46484e-05
1.48222e-05
1.50434e-05
1.53232e-05
1.56755e-05
1.61163e-05
1.66605e-05
1.73225e-05
1.81173e-05
1.90594e-05
2.01645e-05
2.1439e-05
2.28801e-05
2.44791e-05
2.62282e-05
2.81187e-05
3.0138e-05
3.22719e-05
3.45028e-05
3.68111e-05
3.91763e-05
4.15772e-05
4.39911e-05
4.64029e-05
4.88031e-05
5.11948e-05
5.3587e-05
1.40543e-05
1.4056e-05
1.40581e-05
1.40609e-05
1.40644e-05
1.40689e-05
1.40746e-05
1.40819e-05
1.40912e-05
1.41031e-05
1.41184e-05
1.4138e-05
1.41632e-05
1.41956e-05
1.42371e-05
1.42904e-05
1.4359e-05
1.44471e-05
1.456e-05
1.4704e-05
1.48873e-05
1.51203e-05
1.54142e-05
1.57816e-05
1.62371e-05
1.6799e-05
1.74849e-05
1.83085e-05
1.92813e-05
2.04192e-05
2.17302e-05
2.32137e-05
2.48639e-05
2.66735e-05
2.86306e-05
3.07391e-05
3.29971e-05
3.53823e-05
3.78305e-05
4.03198e-05
4.28461e-05
4.54031e-05
4.79838e-05
5.05724e-05
5.31526e-05
5.57095e-05
5.82274e-05
6.06841e-05
6.30798e-05
6.54139e-05
6.76938e-05
6.99195e-05
1.40826e-05
1.40917e-05
1.41031e-05
1.41177e-05
1.41361e-05
1.41595e-05
1.41892e-05
1.4227e-05
1.4275e-05
1.4336e-05
1.44132e-05
1.45114e-05
1.46362e-05
1.47943e-05
1.49933e-05
1.52427e-05
1.55551e-05
1.59436e-05
1.64221e-05
1.70046e-05
1.7708e-05
1.85515e-05
1.95493e-05
2.07075e-05
2.20318e-05
2.35334e-05
2.52065e-05
2.70407e-05
2.90182e-05
3.11467e-05
3.34278e-05
3.58416e-05
3.83299e-05
4.08692e-05
4.34529e-05
4.60942e-05
4.87467e-05
5.1355e-05
5.39443e-05
5.65238e-05
5.90849e-05
6.16249e-05
6.4142e-05
6.66141e-05
6.9027e-05
7.13712e-05
7.36403e-05
7.5833e-05
7.79429e-05
7.99678e-05
8.1911e-05
8.37756e-05
1.42299e-05
1.42762e-05
1.43345e-05
1.44078e-05
1.44997e-05
1.46147e-05
1.47588e-05
1.49394e-05
1.51645e-05
1.54431e-05
1.57858e-05
1.62065e-05
1.672e-05
1.73399e-05
1.80786e-05
1.89489e-05
1.9968e-05
2.11502e-05
2.24991e-05
2.40088e-05
2.5683e-05
2.75214e-05
2.95079e-05
3.16224e-05
3.38523e-05
3.62165e-05
3.87126e-05
4.12939e-05
4.38989e-05
4.65494e-05
4.92116e-05
5.18468e-05
5.44807e-05
5.71057e-05
5.97148e-05
6.23369e-05
6.50523e-05
6.7793e-05
7.03875e-05
7.28478e-05
7.52156e-05
7.75025e-05
7.97038e-05
8.18186e-05
8.38429e-05
8.57728e-05
8.76042e-05
8.93316e-05
9.09498e-05
9.24564e-05
9.38503e-05
9.51455e-05
1.49481e-05
1.51633e-05
1.54281e-05
1.57523e-05
1.61461e-05
1.66201e-05
1.71885e-05
1.78658e-05
1.86631e-05
1.95892e-05
2.06524e-05
2.18652e-05
2.32406e-05
2.47792e-05
2.64671e-05
2.82954e-05
3.0272e-05
3.23767e-05
3.45912e-05
3.68933e-05
3.92905e-05
4.18028e-05
4.44246e-05
4.70701e-05
4.9717e-05
5.23886e-05
5.5032e-05
5.76271e-05
6.02205e-05
6.28449e-05
6.55686e-05
6.83259e-05
7.09562e-05
7.34612e-05
7.58992e-05
7.82554e-05
8.04809e-05
8.25954e-05
8.46789e-05
8.67154e-05
8.86782e-05
9.05498e-05
9.23202e-05
9.39806e-05
9.55231e-05
9.694e-05
9.82251e-05
9.93737e-05
0.000100384
0.000101258
0.000101999
0.000102632
1.78786e-05
1.86389e-05
1.95202e-05
2.05307e-05
2.16741e-05
2.29518e-05
2.43717e-05
2.59446e-05
2.76656e-05
2.95137e-05
3.14759e-05
3.35589e-05
3.57501e-05
3.80252e-05
4.03674e-05
4.27681e-05
4.52574e-05
4.78484e-05
5.05023e-05
5.31276e-05
5.5754e-05
5.83791e-05
6.09385e-05
6.34603e-05
6.59934e-05
6.85748e-05
7.12757e-05
7.39207e-05
7.64325e-05
7.88229e-05
8.10765e-05
8.3221e-05
8.53408e-05
8.74282e-05
8.94576e-05
9.14292e-05
9.33693e-05
9.51983e-05
9.68846e-05
9.84121e-05
9.97952e-05
0.000101048
0.000102172
0.000103164
0.000104024
0.000104753
0.000105355
0.000105833
0.000106196
0.000106456
0.000106614
0.000106695
2.59462e-05
2.75717e-05
2.93249e-05
3.12065e-05
3.31968e-05
3.52733e-05
3.74402e-05
3.96856e-05
4.19867e-05
4.4334e-05
4.67195e-05
4.91648e-05
5.16992e-05
5.43083e-05
5.6889e-05
5.94349e-05
6.1992e-05
6.45088e-05
6.69402e-05
6.93617e-05
7.18057e-05
7.43337e-05
7.6939e-05
7.9433e-05
8.18022e-05
8.40242e-05
8.61112e-05
8.81406e-05
9.01573e-05
9.21591e-05
9.41605e-05
9.60589e-05
9.78163e-05
9.94287e-05
0.000100919
0.000102278
0.000103517
0.000104644
0.00010565
0.000106517
0.000107244
0.000107843
0.00010832
0.000108684
0.000108948
0.000109117
0.000109201
0.000109197
0.00010913
0.000109
0.000108808
0.000108568
4.18724e-05
4.41569e-05
4.6468e-05
4.88e-05
5.11522e-05
5.35473e-05
5.60227e-05
5.8559e-05
6.10578e-05
6.35103e-05
6.59647e-05
6.83925e-05
7.07313e-05
7.3039e-05
7.53503e-05
7.76972e-05
8.0159e-05
8.25964e-05
8.49116e-05
8.71015e-05
8.91426e-05
9.10758e-05
9.29833e-05
9.48683e-05
9.67517e-05
9.85872e-05
0.000100316
0.000101916
0.000103359
0.000104678
0.000105892
0.000106994
0.000107973
0.000108824
0.000109547
0.000110154
0.000110652
0.000111038
0.000111316
0.000111493
0.000111583
0.000111591
0.000111535
0.000111422
0.000111254
0.000111036
0.000110769
0.00011046
0.000110114
0.000109728
0.000109306
5.83851e-05
6.07492e-05
6.31717e-05
6.55904e-05
6.79652e-05
7.03198e-05
7.26284e-05
7.48513e-05
7.70453e-05
7.92346e-05
8.14418e-05
8.37381e-05
8.60597e-05
8.82738e-05
9.03794e-05
9.23539e-05
9.42053e-05
9.59951e-05
9.77619e-05
9.95018e-05
0.000101231
0.000102879
0.000104422
0.000105832
0.0001071