/*--------------------------------*- C++ -*----------------------------------*\
| =========                 |                                                 |
| \\      /  F ield         | OpenFOAM: The Open Source CFD Toolbox           |
|  \\    /   O peration     | Version:  v1706                                 |
|   \\  /    A nd           | Web:      www.OpenFOAM.com                      |
|    \\/     M anipulation  |                                                 |
\*---------------------------------------------------------------------------*/
FoamFile
{
    version     2.0;
    format      ascii;
    class       volScalarField;
    location    "6e-06";
    object      kappatr;
}
// * * * * * * * * * * * * * * * * * * * * * * * * * * * * * * * * * * * * * //

dimensions      [1 1 -3 -1 0 0 0];


internalField   nonuniform List<scalar> 
30038
(
0.014593
0.014593
0.014593
0.014593
0.014593
0.014593
0.014593
0.014593
0.014593
0.014593
0.014593
0.014593
0.014593
0.014593
0.014593
0.014593
0.014593
0.014593
0.014593
0.014593
0.014593
0.014593
0.014593
0.014593
0.014593
0.014593
0.014593
0.014593
0.014593
0.014593
0.014593
0.014593
0.014593
0.014593
0.014593
0.014593
0.014593
0.014593
0.014593
0.014593
0.014593
0.014593
0.014593
0.014593
0.014593
0.014593
0.014593
0.014593
0.014593
0.014593
0.014593
0.014593
0.014593
0.014593
0.014593
0.014593
0.014593
0.014593
0.014593
0.014593
0.014593
0.014593
0.014593
0.014593
0.014593
0.014593
0.014593
0.014593
0.014593
0.014593
0.014593
0.014593
0.014593
0.014593
0.014593
0.014593
0.014593
0.014593
0.014593
0.014593
0.014593
0.014593
0.014593
0.014593
0.014593
0.014593
0.014593
0.014593
0.014593
0.014593
0.014593
0.014593
0.014593
0.014593
0.014593
0.014593
0.014593
0.014593
0.014593
0.014593
0.014593
0.014593
0.014593
0.014593
0.014593
0.014593
0.014593
0.014593
0.014593
0.014593
0.014593
0.014593
0.014593
0.014593
0.014593
0.014593
0.014593
0.014593
0.014593
0.014593
0.014593
0.014593
0.014593
0.014593
0.014593
0.014593
0.014593
0.014593
0.014593
0.014593
0.014593
0.014593
0.014593
0.014593
0.014593
0.014593
0.014593
0.014593
0.014593
0.014593
0.014593
0.014593
0.014593
0.014593
0.014593
0.014593
0.014593
0.014593
0.014593
0.014593
0.014593
0.014593
0.014593
0.014593
0.014593
0.014593
0.014593
0.014593
0.014593
0.014593
0.014593
0.014593
0.014593
0.014593
0.014593
0.014593
0.014593
0.014593
0.014593
0.014593
0.014593
0.014593
0.014593
0.014593
0.014593
0.014593
0.014593
0.014593
0.014593
0.014593
0.014593
0.014593
0.014593
0.014593
0.014593
0.014593
0.014593
0.014593
0.014593
0.014593
0.014593
0.014593
0.014593
0.014593
0.014593
0.014593
0.014593
0.014593
0.014593
0.014593
0.014593
0.014593
0.014593
0.014593
0.014593
0.014593
0.014593
0.014593
0.014593
0.014593
0.014593
0.014593
0.014593
0.014593
0.014593
0.014593
0.014593
0.014593
0.014593
0.014593
0.014593
0.014593
0.014593
0.014593
0.014593
0.014593
0.014593
0.014593
0.014593
0.014593
0.014593
0.014593
0.014593
0.014593
0.014593
0.014593
0.014593
0.014593
0.014593
0.014593
0.014593
0.014593
0.014593
0.014593
0.014593
0.014593
0.014593
0.014593
0.014593
0.014593
0.014593
0.014593
0.014593
0.014593
0.014593
0.014593
0.014593
0.014593
0.014593
0.014593
0.014593
0.014593
0.014593
0.014593
0.014593
0.014593
0.014593
0.014593
0.014593
0.014593
0.014593
0.014593
0.014593
0.014593
0.014593
0.014593
0.014593
0.014593
0.014593
0.014593
0.014593
0.014593
0.014593
0.014593
0.014593
0.014593
0.014593
0.014593
0.014593
0.014593
0.014593
0.014593
0.014593
0.014593
0.014593
0.014593
0.014593
0.014593
0.014593
0.014593
0.014593
0.014593
0.014593
0.014593
0.014593
0.014593
0.014593
0.014593
0.014593
0.014593
0.014593
0.014593
0.014593
0.014593
0.014593
0.014593
0.014593
0.014593
0.014593
0.014593
0.014593
0.014593
0.014593
0.014593
0.014593
0.014593
0.014593
0.014593
0.014593
0.014593
0.014593
0.014593
0.014593
0.014593
0.014593
0.014593
0.014593
0.014593
0.014593
0.014593
0.014593
0.014593
0.014593
0.014593
0.014593
0.014593
0.014593
0.014593
0.014593
0.014593
0.014593
0.014593
0.014593
0.014593
0.014593
0.014593
0.014593
0.014593
0.014593
0.014593
0.014593
0.014593
0.014593
0.014593
0.014593
0.014593
0.014593
0.014593
0.014593
0.014593
0.014593
0.014593
0.014593
0.014593
0.014593
0.014593
0.014593
0.014593
0.014593
0.014593
0.014593
0.014593
0.014593
0.014593
0.014593
0.014593
0.014593
0.014593
0.014593
0.014593
0.014593
0.014593
0.014593
0.014593
0.014593
0.014593
0.014593
0.014593
0.014593
0.014593
0.014593
0.014593
0.014593
0.014593
0.014593
0.014593
0.014593
0.014593
0.014593
0.014593
0.014593
0.014593
0.014593
0.014593
0.014593
0.014593
0.014593
0.014593
0.014593
0.014593
0.014593
0.014593
0.014593
0.014593
0.014593
0.014593
0.014593
0.014593
0.014593
0.014593
0.014593
0.014593
0.014593
0.014593
0.014593
0.014593
0.014593
0.014593
0.014593
0.014593
0.014593
0.014593
0.014593
0.014593
0.014593
0.014593
0.014593
0.014593
0.014593
0.014593
0.014593
0.014593
0.014593
0.014593
0.014593
0.014593
0.014593
0.014593
0.014593
0.014593
0.014593
0.014593
0.014593
0.014593
0.014593
0.014593
0.014593
0.014593
0.014593
0.014593
0.014593
0.014593
0.014593
0.014593
0.014593
0.014593
0.014593
0.014593
0.014593
0.014593
0.014593
0.014593
0.014593
0.014593
0.014593
0.014593
0.014593
0.014593
0.014593
0.014593
0.014593
0.014593
0.014593
0.014593
0.014593
0.014593
0.014593
0.014593
0.014593
0.014593
0.014593
0.014593
0.014593
0.014593
0.014593
0.014593
0.014593
0.014593
0.014593
0.014593
0.014593
0.014593
0.014593
0.014593
0.014593
0.014593
0.014593
0.014593
0.014593
0.014593
0.014593
0.014593
0.014593
0.014593
0.014593
0.014593
0.014593
0.014593
0.014593
0.014593
0.014593
0.014593
0.014593
0.014593
0.014593
0.014593
0.014593
0.014593
0.014593
0.014593
0.014593
0.014593
0.014593
0.014593
0.014593
0.014593
0.014593
0.014593
0.014593
0.014593
0.014593
0.014593
0.014593
0.014593
0.014593
0.014593
0.014593
0.014593
0.014593
0.014593
0.014593
0.014593
0.014593
0.014593
0.014593
0.014593
0.014593
0.014593
0.014593
0.014593
0.014593
0.014593
0.014593
0.014593
0.014593
0.014593
0.014593
0.014593
0.014593
0.014593
0.014593
0.014593
0.014593
0.014593
0.014593
0.014593
0.014593
0.014593
0.014593
0.014593
0.014593
0.014593
0.014593
0.014593
0.014593
0.014593
0.014593
0.014593
0.014593
0.014593
0.014593
0.014593
0.014593
0.014593
0.014593
0.014593
0.014593
0.014593
0.014593
0.014593
0.014593
0.014593
0.014593
0.014593
0.014593
0.014593
0.014593
0.014593
0.014593
0.014593
0.014593
0.014593
0.014593
0.014593
0.014593
0.014593
0.014593
0.014593
0.014593
0.014593
0.014593
0.014593
0.014593
0.014593
0.014593
0.014593
0.014593
0.014593
0.014593
0.014593
0.014593
0.014593
0.014593
0.014593
0.014593
0.014593
0.014593
0.014593
0.014593
0.014593
0.014593
0.014593
0.014593
0.014593
0.014593
0.014593
0.014593
0.014593
0.014593
0.014593
0.014593
0.014593
0.014593
0.014593
0.014593
0.014593
0.014593
0.014593
0.014593
0.014593
0.014593
0.014593
0.014593
0.014593
0.014593
0.014593
0.014593
0.014593
0.014593
0.014593
0.014593
0.014593
0.014593
0.014593
0.014593
0.014593
0.014593
0.014593
0.014593
0.014593
0.014593
0.014593
0.014593
0.014593
0.014593
0.014593
0.014593
0.014593
0.014593
0.014593
0.014593
0.014593
0.014593
0.014593
0.014593
0.014593
0.014593
0.014593
0.014593
0.014593
0.014593
0.014593
0.014593
0.014593
0.014593
0.014593
0.014593
0.014593
0.014593
0.014593
0.014593
0.014593
0.014593
0.014593
0.014593
0.014593
0.014593
0.014593
0.014593
0.014593
0.014593
0.014593
0.014593
0.014593
0.014593
0.014593
0.014593
0.014593
0.014593
0.014593
0.014593
0.014593
0.014593
0.014593
0.014593
0.014593
0.014593
0.014593
0.014593
0.014593
0.014593
0.014593
0.014593
0.014593
0.014593
0.014593
0.014593
0.014593
0.014593
0.014593
0.014593
0.014593
0.014593
0.014593
0.014593
0.014593
0.014593
0.014593
0.014593
0.014593
0.014593
0.014593
0.014593
0.014593
0.014593
0.014593
0.014593
0.014593
0.014593
0.014593
0.014593
0.014593
0.014593
0.014593
0.014593
0.014593
0.014593
0.014593
0.014593
0.014593
0.014593
0.014593
0.014593
0.014593
0.014593
0.014593
0.014593
0.014593
0.014593
0.014593
0.014593
0.014593
0.014593
0.014593
0.014593
0.014593
0.014593
0.014593
0.014593
0.014593
0.014593
0.014593
0.014593
0.014593
0.014593
0.014593
0.014593
0.014593
0.014593
0.014593
0.014593
0.014593
0.014593
0.014593
0.014593
0.014593
0.014593
0.014593
0.014593
0.014593
0.014593
0.014593
0.014593
0.014593
0.014593
0.014593
0.014593
0.014593
0.014593
0.014593
0.014593
0.014593
0.014593
0.014593
0.014593
0.014593
0.014593
0.014593
0.014593
0.014593
0.014593
0.014593
0.014593
0.014593
0.014593
0.014593
0.014593
0.014593
0.014593
0.014593
0.014593
0.014593
0.014593
0.014593
0.014593
0.014593
0.014593
0.014593
0.014593
0.014593
0.014593
0.014593
0.014593
0.014593
0.014593
0.014593
0.014593
0.014593
0.014593
0.014593
0.014593
0.014593
0.014593
0.014593
0.014593
0.014593
0.014593
0.014593
0.014593
0.014593
0.014593
0.014593
0.014593
0.014593
0.014593
0.014593
0.014593
0.014593
0.014593
0.014593
0.014593
0.014593
0.014593
0.014593
0.014593
0.014593
0.014593
0.014593
0.014593
0.014593
0.014593
0.014593
0.014593
0.014593
0.014593
0.014593
0.014593
0.014593
0.014593
0.014593
0.014593
0.014593
0.014593
0.014593
0.014593
0.014593
0.014593
0.014593
0.014593
0.014593
0.014593
0.014593
0.014593
0.014593
0.014593
0.014593
0.014593
0.014593
0.014593
0.014593
0.014593
0.014593
0.014593
0.014593
0.014593
0.014593
0.014593
0.014593
0.014593
0.014593
0.014593
0.014593
0.014593
0.014593
0.014593
0.014593
0.014593
0.014593
0.014593
0.014593
0.014593
0.014593
0.014593
0.014593
0.014593
0.014593
0.014593
0.014593
0.014593
0.014593
0.014593
0.014593
0.014593
0.014593
0.014593
0.014593
0.014593
0.014593
0.014593
0.014593
0.014593
0.014593
0.014593
0.014593
0.014593
0.014593
0.014593
0.014593
0.014593
0.014593
0.014593
0.014593
0.014593
0.014593
0.014593
0.014593
0.014593
0.014593
0.014593
0.014593
0.014593
0.014593
0.014593
0.014593
0.014593
0.014593
0.014593
0.014593
0.014593
0.014593
0.014593
0.014593
0.014593
0.014593
0.014593
0.014593
0.014593
0.014593
0.014593
0.014593
0.014593
0.014593
0.014593
0.014593
0.014593
0.014593
0.014593
0.014593
0.014593
0.014593
0.014593
0.014593
0.014593
0.014593
0.014593
0.014593
0.014593
0.014593
0.014593
0.014593
0.014593
0.014593
0.014593
0.014593
0.014593
0.014593
0.014593
0.014593
0.014593
0.014593
0.014593
0.014593
0.014593
0.014593
0.014593
0.014593
0.014593
0.014593
0.014593
0.014593
0.014593
0.014593
0.014593
0.014593
0.014593
0.014593
0.014593
0.014593
0.014593
0.014593
0.014593
0.014593
0.014593
0.014593
0.014593
0.014593
0.014593
0.014593
0.014593
0.014593
0.014593
0.014593
0.014593
0.014593
0.014593
0.014593
0.014593
0.014593
0.014593
0.014593
0.014593
0.014593
0.014593
0.014593
0.014593
0.014593
0.014593
0.014593
0.014593
0.014593
0.014593
0.014593
0.014593
0.014593
0.014593
0.014593
0.014593
0.014593
0.014593
0.014593
0.014593
0.014593
0.014593
0.014593
0.014593
0.014593
0.014593
0.014593
0.014593
0.014593
0.014593
0.014593
0.014593
0.014593
0.014593
0.014593
0.014593
0.014593
0.014593
0.014593
0.014593
0.014593
0.014593
0.014593
0.014593
0.014593
0.014593
0.014593
0.014593
0.014593
0.014593
0.014593
0.014593
0.014593
0.014593
0.014593
0.014593
0.014593
0.014593
0.014593
0.014593
0.014593
0.014593
0.014593
0.014593
0.014593
0.014593
0.014593
0.014593
0.014593
0.014593
0.014593
0.014593
0.014593
0.014593
0.014593
0.014593
0.014593
0.014593
0.014593
0.014593
0.014593
0.014593
0.014593
0.014593
0.014593
0.014593
0.014593
0.014593
0.014593
0.014593
0.014593
0.014593
0.014593
0.014593
0.014593
0.014593
0.014593
0.014593
0.014593
0.014593
0.014593
0.014593
0.014593
0.014593
0.014593
0.014593
0.014593
0.014593
0.014593
0.014593
0.014593
0.014593
0.014593
0.014593
0.014593
0.014593
0.014593
0.014593
0.014593
0.014593
0.014593
0.014593
0.014593
0.014593
0.014593
0.014593
0.014593
0.014593
0.014593
0.014593
0.014593
0.014593
0.014593
0.014593
0.014593
0.014593
0.014593
0.014593
0.014593
0.014593
0.014593
0.014593
0.014593
0.014593
0.014593
0.014593
0.014593
0.014593
0.014593
0.014593
0.014593
0.014593
0.014593
0.014593
0.014593
0.014593
0.014593
0.014593
0.014593
0.014593
0.014593
0.014593
0.014593
0.014593
0.014593
0.014593
0.014593
0.014593
0.014593
0.014593
0.014593
0.014593
0.014593
0.014593
0.014593
0.014593
0.014593
0.014593
0.014593
0.014593
0.014593
0.014593
0.014593
0.014593
0.014593
0.014593
0.014593
0.014593
0.014593
0.014593
0.014593
0.014593
0.014593
0.014593
0.014593
0.014593
0.014593
0.014593
0.014593
0.014593
0.014593
0.014593
0.014593
0.014593
0.014593
0.014593
0.014593
0.014593
0.014593
0.014593
0.014593
0.014593
0.014593
0.014593
0.014593
0.014593
0.014593
0.014593
0.014593
0.014593
0.014593
0.014593
0.014593
0.014593
0.014593
0.014593
0.014593
0.014593
0.014593
0.014593
0.014593
0.014593
0.014593
0.014593
0.014593
0.014593
0.014593
0.014593
0.014593
0.014593
0.014593
0.014593
0.014593
0.014593
0.014593
0.014593
0.014593
0.014593
0.014593
0.014593
0.014593
0.014593
0.014593
0.014593
0.014593
0.014593
0.014593
0.014593
0.014593
0.014593
0.014593
0.014593
0.014593
0.014593
0.014593
0.014593
0.014593
0.014593
0.014593
0.014593
0.014593
0.014593
0.014593
0.014593
0.014593
0.014593
0.014593
0.014593
0.014593
0.014593
0.014593
0.014593
0.014593
0.014593
0.014593
0.014593
0.014593
0.014593
0.014593
0.014593
0.014593
0.014593
0.014593
0.014593
0.014593
0.014593
0.014593
0.014593
0.014593
0.014593
0.014593
0.014593
0.014593
0.014593
0.014593
0.014593
0.014593
0.014593
0.014593
0.014593
0.014593
0.014593
0.014593
0.014593
0.014593
0.014593
0.014593
0.014593
0.014593
0.014593
0.014593
0.014593
0.014593
0.014593
0.014593
0.014593
0.014593
0.014593
0.014593
0.014593
0.014593
0.014593
0.014593
0.014593
0.014593
0.014593
0.014593
0.014593
0.014593
0.014593
0.014593
0.014593
0.014593
0.014593
0.014593
0.014593
0.014593
0.014593
0.014593
0.014593
0.014593
0.014593
0.014593
0.014593
0.014593
0.014593
0.014593
0.014593
0.014593
0.014593
0.014593
0.014593
0.014593
0.014593
0.014593
0.014593
0.014593
0.014593
0.014593
0.014593
0.014593
0.014593
0.014593
0.014593
0.014593
0.014593
0.014593
0.014593
0.014593
0.014593
0.014593
0.014593
0.014593
0.014593
0.014593
0.014593
0.014593
0.014593
0.014593
0.014593
0.014593
0.014593
0.014593
0.014593
0.014593
0.014593
0.014593
0.014593
0.014593
0.014593
0.014593
0.014593
0.014593
0.014593
0.014593
0.014593
0.014593
0.014593
0.014593
0.014593
0.014593
0.014593
0.014593
0.014593
0.014593
0.014593
0.014593
0.014593
0.014593
0.014593
0.014593
0.014593
0.014593
0.014593
0.014593
0.014593
0.014593
0.014593
0.014593
0.014593
0.014593
0.014593
0.014593
0.014593
0.014593
0.014593
0.014593
0.014593
0.014593
0.014593
0.014593
0.014593
0.014593
0.014593
0.014593
0.014593
0.014593
0.014593
0.014593
0.014593
0.014593
0.014593
0.014593
0.014593
0.014593
0.014593
0.014593
0.014593
0.014593
0.014593
0.014593
0.014593
0.014593
0.014593
0.014593
0.014593
0.014593
0.014593
0.014593
0.014593
0.014593
0.014593
0.014593
0.014593
0.014593
0.014593
0.014593
0.014593
0.014593
0.014593
0.014593
0.014593
0.014593
0.014593
0.014593
0.014593
0.014593
0.014593
0.014593
0.014593
0.014593
0.014593
0.014593
0.014593
0.014593
0.014593
0.014593
0.0145931
0.0145931
0.0145931
0.0145931
0.014593
0.014593
0.014593
0.014593
0.014593
0.014593
0.014593
0.014593
0.014593
0.014593
0.014593
0.014593
0.014593
0.014593
0.014593
0.014593
0.014593
0.014593
0.014593
0.014593
0.014593
0.014593
0.014593
0.014593
0.014593
0.014593
0.014593
0.014593
0.014593
0.014593
0.014593
0.014593
0.014593
0.014593
0.014593
0.014593
0.014593
0.014593
0.014593
0.0145931
0.0145931
0.0145931
0.0145931
0.0145931
0.0145932
0.0145932
0.0145933
0.0145934
0.0145935
0.0145937
0.014593
0.014593
0.014593
0.014593
0.014593
0.014593
0.014593
0.014593
0.014593
0.014593
0.014593
0.014593
0.014593
0.014593
0.014593
0.014593
0.014593
0.014593
0.014593
0.014593
0.014593
0.014593
0.014593
0.014593
0.014593
0.014593
0.014593
0.014593
0.014593
0.014593
0.014593
0.014593
0.014593
0.0145931
0.0145931
0.0145931
0.0145931
0.0145932
0.0145932
0.0145933
0.0145934
0.0145935
0.0145936
0.0145938
0.0145941
0.0145944
0.0145948
0.0145952
0.0145959
0.0145968
0.014593
0.014593
0.014593
0.014593
0.014593
0.014593
0.014593
0.014593
0.014593
0.014593
0.014593
0.014593
0.014593
0.014593
0.014593
0.014593
0.014593
0.014593
0.014593
0.014593
0.014593
0.014593
0.014593
0.014593
0.014593
0.014593
0.0145931
0.0145931
0.0145931
0.0145931
0.0145931
0.0145932
0.0145933
0.0145933
0.0145934
0.0145936
0.0145937
0.014594
0.0145943
0.0145947
0.0145952
0.0145958
0.0145967
0.0145977
0.0145991
0.0146009
0.0146032
0.0146061
0.0146098
0.0146152
0.014593
0.014593
0.014593
0.014593
0.014593
0.014593
0.014593
0.014593
0.014593
0.014593
0.014593
0.014593
0.014593
0.014593
0.014593
0.014593
0.014593
0.014593
0.014593
0.014593
0.0145931
0.0145931
0.0145931
0.0145931
0.0145932
0.0145932
0.0145933
0.0145934
0.0145935
0.0145936
0.0145938
0.0145941
0.0145944
0.0145949
0.0145955
0.0145963
0.0145973
0.0145986
0.0146003
0.0146026
0.0146054
0.0146092
0.014614
0.0146201
0.014628
0.0146381
0.0146509
0.0146671
0.0146878
0.0147171
0.014593
0.014593
0.014593
0.014593
0.014593
0.014593
0.014593
0.014593
0.014593
0.014593
0.014593
0.014593
0.014593
0.0145931
0.0145931
0.0145931
0.0145931
0.0145931
0.0145932
0.0145932
0.0145933
0.0145934
0.0145935
0.0145937
0.0145939
0.0145942
0.0145946
0.0145951
0.0145958
0.0145966
0.0145978
0.0145993
0.0146012
0.0146038
0.0146072
0.0146116
0.0146173
0.0146247
0.0146343
0.0146467
0.0146627
0.0146834
0.0147098
0.0147436
0.0147867
0.0148412
0.0149099
0.0149961
0.015105
0.0152539
0.014593
0.014593
0.014593
0.014593
0.014593
0.014593
0.0145931
0.0145931
0.0145931
0.0145931
0.0145931
0.0145932
0.0145932
0.0145933
0.0145934
0.0145935
0.0145936
0.0145938
0.014594
0.0145944
0.0145948
0.0145953
0.0145961
0.014597
0.0145983
0.0145999
0.014602
0.0146049
0.0146086
0.0146134
0.0146198
0.014628
0.0146389
0.014653
0.0146715
0.0146956
0.0147266
0.0147668
0.0148184
0.0148848
0.0149696
0.0150775
0.0152141
0.015386
0.0156006
0.0158663
0.0161924
0.0165887
0.0170696
0.01768
0.0145931
0.0145931
0.0145931
0.0145931
0.0145931
0.0145932
0.0145932
0.0145933
0.0145933
0.0145934
0.0145936
0.0145937
0.014594
0.0145942
0.0145946
0.0145951
0.0145957
0.0145965
0.0145975
0.0145989
0.0146007
0.014603
0.0146061
0.0146101
0.0146153
0.0146222
0.0146311
0.0146429
0.0146583
0.0146784
0.0147046
0.0147387
0.0147831
0.0148406
0.0149153
0.0150117
0.0151355
0.0152932
0.0154931
0.0157448
0.0160593
0.0164489
0.0169263
0.0175046
0.0181961
0.0190116
0.0199586
0.0210416
0.0222627
0.0236302
0.0251846
0.0145933
0.0145934
0.0145935
0.0145936
0.0145937
0.0145939
0.0145942
0.0145945
0.0145949
0.0145955
0.0145962
0.0145971
0.0145983
0.0145998
0.0146018
0.0146044
0.0146078
0.0146122
0.0146179
0.0146253
0.014635
0.0146477
0.0146641
0.0146856
0.0147136
0.0147502
0.0147977
0.0148594
0.0149395
0.0150431
0.0151764
0.0153471
0.0155645
0.0158399
0.0161871
0.0166213
0.0171568
0.0178067
0.0185845
0.0195035
0.0205743
0.0218038
0.0231947
0.0247447
0.0264463
0.0282872
0.0302501
0.0323166
0.0344697
0.0367071
0.0390385
0.0145942
0.0145946
0.014595
0.0145955
0.0145962
0.014597
0.0145981
0.0145995
0.0146014
0.0146037
0.0146067
0.0146105
0.0146155
0.0146219
0.0146302
0.0146409
0.0146548
0.0146728
0.0146961
0.0147263
0.0147654
0.0148162
0.0148819
0.0149668
0.0150761
0.0152169
0.0153974
0.0156273
0.0159179
0.0162839
0.0167418
0.0173072
0.0179949
0.0188205
0.0197991
0.0209471
0.0222711
0.0237682
0.0254292
0.0272461
0.02921
0.0313077
0.0335245
0.035842
0.0382398
0.0406968
0.043191
0.0456986
0.0482039
0.0506974
0.0531819
0.0556669
0.0145997
0.0146015
0.0146038
0.0146066
0.0146103
0.0146149
0.0146208
0.0146284
0.0146381
0.0146505
0.0146663
0.0146867
0.0147129
0.0147465
0.0147897
0.0148451
0.0149163
0.0150078
0.0151251
0.0152747
0.0154651
0.0157072
0.0160125
0.0163941
0.0168673
0.017451
0.0181635
0.0190191
0.0200297
0.0212117
0.0225736
0.0241147
0.0258289
0.0277088
0.0297418
0.0319322
0.0342779
0.0367556
0.0392989
0.0418848
0.0445092
0.0471654
0.0498463
0.0525354
0.0552157
0.0578719
0.0604876
0.0630396
0.0655283
0.0679531
0.0703215
0.0726336
0.0146292
0.0146386
0.0146505
0.0146656
0.0146848
0.0147091
0.0147399
0.0147792
0.0148291
0.0148924
0.0149726
0.0150746
0.0152043
0.0153685
0.0155752
0.0158343
0.0161588
0.0165624
0.0170595
0.0176646
0.0183953
0.0192715
0.0203081
0.0215112
0.0228869
0.0244468
0.0261848
0.0280902
0.0301445
0.0323556
0.0347252
0.0372327
0.0398177
0.0424555
0.0451395
0.0478834
0.0506388
0.0533484
0.0560382
0.0587179
0.0613784
0.064017
0.0666319
0.0691999
0.0717065
0.0741418
0.0764989
0.0787768
0.0809687
0.0830721
0.0850908
0.0870278
0.0147822
0.0148303
0.0148908
0.014967
0.0150624
0.0151819
0.0153317
0.0155192
0.0157531
0.0160424
0.0163985
0.0168355
0.017369
0.0180129
0.0187803
0.0196843
0.020743
0.021971
0.0233723
0.0249406
0.0266798
0.0285896
0.0306532
0.0328497
0.0351662
0.0376222
0.0402153
0.0428968
0.0456028
0.0483563
0.0511218
0.0538593
0.0565955
0.0593225
0.0620328
0.0647568
0.0675776
0.0704247
0.0731199
0.0756759
0.0781356
0.0805113
0.0827981
0.0849951
0.087098
0.0891028
0.0910053
0.0927998
0.0944809
0.096046
0.097494
0.0988396
0.0155283
0.0157518
0.0160269
0.0163637
0.0167727
0.0172652
0.0178556
0.0185592
0.0193874
0.0203495
0.021454
0.0227139
0.0241427
0.025741
0.0274944
0.0293937
0.031447
0.0336333
0.0359338
0.0383253
0.0408156
0.0434254
0.046149
0.0488972
0.0516469
0.0544223
0.0571683
0.0598641
0.0625582
0.0652846
0.068114
0.0709785
0.0737109
0.0763132
0.0788459
0.0812936
0.0836056
0.0858022
0.0879667
0.0900823
0.0921213
0.0940657
0.0959048
0.0976298
0.0992322
0.100704
0.102039
0.103232
0.104282
0.10519
0.10596
0.106618
0.0185725
0.0193623
0.0202778
0.0213275
0.0225153
0.0238426
0.0253176
0.0269516
0.0287394
0.0306593
0.0326976
0.0348615
0.0371377
0.0395012
0.0419343
0.0444283
0.0470142
0.0497057
0.0524627
0.05519
0.0579184
0.0606454
0.0633042
0.065924
0.0685555
0.0712371
0.074043
0.0767907
0.0794001
0.0818833
0.0842245
0.0864523
0.0886546
0.090823
0.0929313
0.0949795
0.096995
0.0988951
0.100647
0.102234
0.103671
0.104972
0.106139
0.10717
0.108064
0.108822
0.109447
0.109944
0.11032
0.11059
0.110755
0.110839
0.0269532
0.0286418
0.0304632
0.0324178
0.0344854
0.0366425
0.0388935
0.0412261
0.0436165
0.0460549
0.0485331
0.0510733
0.0537062
0.0564166
0.0590976
0.0617424
0.0643988
0.0670133
0.0695392
0.0720547
0.0745937
0.07722
0.0799264
0.0825174
0.0849786
0.087287
0.0894551
0.0915635
0.0936586
0.0957382
0.0978174
0.0997896
0.101615
0.10329
0.104839
0.10625
0.107538
0.108709
0.109754
0.110654
0.11141
0.112032
0.112527
0.112906
0.11318
0.113356
0.113443
0.113439
0.113369
0.113234
0.113035
0.112785
0.0434978
0.045871
0.0482719
0.0506945
0.053138
0.0556261
0.0581977
0.0608325
0.0634284
0.0659762
0.0685259
0.0710481
0.0734777
0.0758751
0.0782763
0.0807143
0.0832719
0.085804
0.0882092
0.0904842
0.0926047
0.0946131
0.0965948
0.0985531
0.10051
0.102417
0.104213
0.105875
0.107374
0.108744
0.110005
0.111151
0.112168
0.113052
0.113803
0.114434
0.114951
0.115353
0.115641
0.115825
0.115918
0.115927
0.115869
0.115752
0.115577
0.11535
0.115073
0.114752
0.114393
0.113992
0.113552
0.060652
0.0631079
0.0656245
0.0681373
0.0706043
0.0730505
0.0754488
0.0777581
0.0800374
0.0823118
0.0846048
0.0869904
0.0894022
0.0917025
0.09389
0.0959413
0.0978647
0.0997242
0.10156
0.103367
0.105163
0.106876
0.108479
0.109944
0.111261
0.112463
0.11357
0.114564
0.115425
0.116162
0.116782
0.117287
0.117677
0.11796
0.118149
0.118259
0.118299
0.118266
0.118176
0.118022
0.117816
0.117564
0.11727
0.11694
0.116575
0.116177
0.115746
0.115283
0.11479
0.114273
0.113729
0.0778335
0.080152
0.0823788
0.084546
0.0866935
0.0888561
0.0911034
0.0933626
0.0955205
0.097575
0.0995212
0.101341
0.103083
0.104796
0.106476
0.108125
0.109722
0.111229
0.112627
0.113887
0.115021
0.116055
0.116995
0.117817
0.118517
0.119108
0.119601
0.119985
0.120265
0.120456
0.12057
0.120613
0.120583
0.120499
0.120359
0.120174
0.119952
0.11969
0.119393
0.119059
0.118692
0.118296
0.11787
0.117419
0.116942
0.116442
0.115923
0.115379
0.114808
0.114207
0.113571
0.0955061
0.0975489
0.0995541
0.101491
0.103328
0.105039
0.106673
0.108271
0.109831
0.111347
0.112812
0.114198
0.11549
0.116671
0.117726
0.118676
0.119538
0.120306
0.120958
0.121502
0.121954
0.122315
0.122581
0.122759
0.122866
0.122911
0.122884
0.122806
0.122675
0.122501
0.12229
0.12204
0.121758
0.121445
0.121105
0.120741
0.120353
0.119939
0.1195
0.119037
0.118552
0.11805
0.117528
0.116982
0.11641
0.115811
0.115184
0.114528
0.113838
0.113107
0.10889
0.110454
0.111952
0.113398
0.114789
0.116123
0.117382
0.118555
0.119631
0.120594
0.121455
0.12223
0.122921
0.123515
0.124003
0.124399
0.124718
0.124958
0.125114
0.125199
0.125227
0.125195
0.125114
0.124982
0.124811
0.124608
0.124368
0.124097
0.123797
0.123474
0.123127
0.122757
0.122366
0.121955
0.121525
0.121076
0.120608
0.120124
0.119621
0.119095
0.118545
0.11797
0.117369
0.116741
0.116085
0.1154
0.114688
0.113946
0.113175
0.112364
0.11957
0.120694
0.121746
0.122718
0.123591
0.124367
0.125057
0.125666
0.126189
0.126614
0.12695
0.127215
0.127413
0.127539
0.127596
0.127594
0.127548
0.127456
0.127316
0.127138
0.126929
0.12669
0.126423
0.12613
0.125815
0.125481
0.125126
0.124751
0.124359
0.12395
0.123525
0.123083
0.122623
0.122148
0.121658
0.121149
0.120618
0.120064
0.119486
0.118883
0.118257
0.117606
0.116931
0.116231
0.115505
0.114751
0.113967
0.113154
0.11231
0.111426
0.127351
0.127956
0.128484
0.128935
0.129297
0.129579
0.129792
0.129942
0.130031
0.130055
0.130023
0.129953
0.129842
0.129689
0.129498
0.129278
0.129033
0.128764
0.12847
0.128156
0.127825
0.127476
0.12711
0.126728
0.126334
0.125927
0.125504
0.125066
0.124611
0.124143
0.123662
0.123162
0.122642
0.122102
0.121542
0.120963
0.120366
0.119746
0.119103
0.118437
0.117747
0.117033
0.116292
0.115526
0.114734
0.113913
0.113064
0.112185
0.111274
0.110322
0.132237
0.132397
0.132502
0.132553
0.132544
0.13249
0.132394
0.132262
0.132093
0.131889
0.131657
0.131402
0.131127
0.130829
0.130511
0.130177
0.129829
0.129466
0.129089
0.1287
0.128301
0.12789
0.127466
0.127028
0.126576
0.126114
0.125637
0.125143
0.124633
0.124104
0.12356
0.123
0.122423
0.121825
0.121208
0.120571
0.119914
0.119234
0.118532
0.117807
0.117056
0.116281
0.11548
0.114652
0.113798
0.112915
0.112002
0.111059
0.110083
0.109067
0.134958
0.134837
0.134683
0.1345
0.134285
0.134044
0.133781
0.133499
0.133197
0.132876
0.132539
0.132189
0.131826
0.131451
0.131065
0.130669
0.130264
0.129847
0.129419
0.128978
0.128526
0.128063
0.127588
0.127099
0.126595
0.126077
0.125546
0.125001
0.124439
0.12386
0.123264
0.12265
0.122018
0.121367
0.120697
0.120005
0.119292
0.118556
0.117796
0.117013
0.116206
0.115373
0.114514
0.113627
0.112713
0.11177
0.110798
0.109795
0.108762
0.10769
0.136415
0.136144
0.135856
0.135551
0.135229
0.134892
0.134542
0.13418
0.133807
0.133424
0.13303
0.132628
0.132217
0.131795
0.131363
0.130919
0.130464
0.13
0.129525
0.129038
0.128538
0.128027
0.127505
0.12697
0.126421
0.125857
0.125277
0.124683
0.124073
0.123446
0.1228
0.122136
0.121453
0.12075
0.120027
0.119281
0.118514
0.117725
0.116912
0.116075
0.115211
0.114322
0.113407
0.112465
0.111495
0.110497
0.109472
0.108419
0.107337
0.106218
0.136866
0.136506
0.136137
0.135758
0.135369
0.134972
0.134567
0.134152
0.133726
0.13329
0.132843
0.132387
0.131923
0.131447
0.130961
0.130465
0.129959
0.129443
0.128915
0.128376
0.127822
0.127256
0.126677
0.126085
0.125477
0.124852
0.124212
0.123554
0.122879
0.122185
0.121472
0.120739
0.119986
0.119212
0.118417
0.117598
0.116757
0.115891
0.115001
0.114086
0.113145
0.112178
0.111185
0.110167
0.109122
0.108052
0.106956
0.105835
0.10468
0.137279
0.13688
0.136471
0.136053
0.135626
0.135188
0.134742
0.134287
0.133823
0.133349
0.132866
0.132373
0.131871
0.13136
0.130838
0.130305
0.129761
0.129205
0.128639
0.128059
0.127466
0.126859
0.126238
0.125602
0.12495
0.124282
0.123596
0.122892
0.12217
0.12143
0.12067
0.11989
0.119089
0.118266
0.117421
0.116554
0.115663
0.114748
0.11381
0.112847
0.111859
0.110848
0.109812
0.108752
0.107669
0.106563
0.105435
0.104285
0.103107
0.137485
0.137049
0.136605
0.136152
0.13569
0.13522
0.134741
0.134253
0.133756
0.13325
0.132734
0.132208
0.131672
0.131126
0.130569
0.13
0.12942
0.128827
0.128221
0.127603
0.12697
0.126323
0.12566
0.124981
0.124287
0.123575
0.122846
0.122099
0.121333
0.120547
0.119742
0.118916
0.118069
0.1172
0.116309
0.115396
0.11446
0.113501
0.11252
0.111515
0.110488
0.109438
0.108367
0.107275
0.106162
0.105031
0.103882
0.102716
0.101527
0.13705
0.136576
0.136094
0.135603
0.135104
0.134596
0.134077
0.133549
0.133012
0.132464
0.131906
0.131337
0.130756
0.130165
0.129561
0.128944
0.128314
0.127671
0.127014
0.126342
0.125655
0.124953
0.124234
0.123499
0.122746
0.121974
0.121184
0.120376
0.119547
0.118698
0.117829
0.116939
0.116028
0.115095
0.114141
0.113165
0.112168
0.11115
0.110111
0.109052
0.107973
0.106875
0.10576
0.104628
0.103482
0.102323
0.101153
0.0999667
0.136913
0.136412
0.135902
0.135383
0.134855
0.134318
0.13377
0.133212
0.132644
0.132065
0.131475
0.130873
0.130259
0.129632
0.128994
0.128341
0.127676
0.126996
0.126302
0.125593
0.124868
0.124127
0.123369
0.122593
0.121801
0.120989
0.120159
0.11931
0.118441
0.117552
0.116644
0.115715
0.114766
0.113797
0.112808
0.111799
0.11077
0.109723
0.108657
0.107573
0.106473
0.105358
0.10423
0.10309
0.101941
0.100784
0.0996225
0.0984513
0.136121
0.135584
0.135038
0.134482
0.133916
0.133339
0.132751
0.132152
0.131542
0.13092
0.130286
0.129639
0.12898
0.128307
0.127621
0.126921
0.126206
0.125476
0.12473
0.123969
0.12319
0.122395
0.121582
0.120751
0.119902
0.119035
0.118149
0.117243
0.116319
0.115376
0.114414
0.113433
0.112433
0.111415
0.110379
0.109326
0.108256
0.107172
0.106073
0.104962
0.10384
0.102709
0.101571
0.10043
0.099287
0.0981457
0.097002
0.135709
0.135146
0.134573
0.133989
0.133394
0.132789
0.132172
0.131543
0.130902
0.13025
0.129585
0.128907
0.128215
0.12751
0.126791
0.126057
0.125308
0.124543
0.123762
0.122966
0.122153
0.121322
0.120475
0.119609
0.118726
0.117826
0.116907
0.11597
0.115015
0.114042
0.113052