/*--------------------------------*- C++ -*----------------------------------*\
| =========                 |                                                 |
| \\      /  F ield         | OpenFOAM: The Open Source CFD Toolbox           |
|  \\    /   O peration     | Version:  v1706                                 |
|   \\  /    A nd           | Web:      www.OpenFOAM.com                      |
|    \\/     M anipulation  |                                                 |
\*---------------------------------------------------------------------------*/
FoamFile
{
    version     2.0;
    format      ascii;
    class       volScalarField;
    location    "6e-06";
    object      Mach;
}
// * * * * * * * * * * * * * * * * * * * * * * * * * * * * * * * * * * * * * //

dimensions      [0 0 0 0 0 0 0];


internalField   nonuniform List<scalar> 
30038
(
11.2859
11.2859
11.2859
11.2859
11.2859
11.2859
11.2859
11.2859
11.2859
11.2859
11.2859
11.2859
11.2859
11.2859
11.2859
11.2859
11.2859
11.2859
11.2859
11.2859
11.2859
11.2859
11.2859
11.2859
11.2859
11.2859
11.2859
11.2859
11.2859
11.2859
11.2859
11.2859
11.2859
11.2859
11.2859
11.2859
11.2859
11.2859
11.2859
11.2859
11.2859
11.2859
11.2859
11.2859
11.2859
11.2859
11.2859
11.2859
11.2859
11.2859
11.2859
11.2859
11.2859
11.2859
11.2859
11.2859
11.2859
11.2859
11.2859
11.2859
11.2859
11.2859
11.2859
11.2859
11.2859
11.2859
11.2859
11.2859
11.2859
11.2859
11.2859
11.2859
11.2859
11.2859
11.2859
11.2859
11.2859
11.2859
11.2859
11.2859
11.2859
11.2859
11.2859
11.2859
11.2859
11.2859
11.2859
11.2859
11.2859
11.2859
11.2859
11.2859
11.2859
11.2859
11.2859
11.2859
11.2859
11.2859
11.2859
11.2859
11.2859
11.2859
11.2859
11.2859
11.2859
11.2859
11.2859
11.2859
11.2859
11.2859
11.2859
11.2859
11.2859
11.2859
11.2859
11.2859
11.2859
11.2859
11.2859
11.2859
11.2859
11.2859
11.2859
11.2859
11.2859
11.2859
11.2859
11.2859
11.2859
11.2859
11.2859
11.2859
11.2859
11.2859
11.2859
11.2859
11.2859
11.2859
11.2859
11.2859
11.2859
11.2859
11.2859
11.2859
11.2859
11.2859
11.2859
11.2859
11.2859
11.2859
11.2859
11.2859
11.2859
11.2859
11.2859
11.2859
11.2859
11.2859
11.2859
11.2859
11.2859
11.2859
11.2859
11.2859
11.2859
11.2859
11.2859
11.2859
11.2859
11.2859
11.2859
11.2859
11.2859
11.2859
11.2859
11.2859
11.2859
11.2859
11.2859
11.2859
11.2859
11.2859
11.2859
11.2859
11.2859
11.2859
11.2859
11.2859
11.2859
11.2859
11.2859
11.2859
11.2859
11.2859
11.2859
11.2859
11.2859
11.2859
11.2859
11.2859
11.2859
11.2859
11.2859
11.2859
11.2859
11.2859
11.2859
11.2859
11.2859
11.2859
11.2859
11.2859
11.2859
11.2859
11.2859
11.2859
11.2859
11.2859
11.2859
11.2859
11.2859
11.2859
11.2859
11.2859
11.2859
11.2859
11.2859
11.2859
11.2859
11.2859
11.2859
11.2859
11.2859
11.2859
11.2859
11.2859
11.2859
11.2859
11.2859
11.2859
11.2859
11.2859
11.2859
11.2859
11.2859
11.2859
11.2859
11.2859
11.2859
11.2859
11.2859
11.2859
11.2859
11.2859
11.2859
11.2859
11.2859
11.2859
11.2859
11.2859
11.2859
11.2859
11.2859
11.2859
11.2859
11.2859
11.2859
11.2859
11.2859
11.2859
11.2859
11.2859
11.2859
11.2859
11.2859
11.2859
11.2859
11.2859
11.2859
11.2859
11.2859
11.2859
11.2859
11.2859
11.2859
11.2859
11.2859
11.2859
11.2859
11.2859
11.2859
11.2859
11.2859
11.2859
11.2859
11.2859
11.2859
11.2859
11.2859
11.2859
11.2859
11.2859
11.2859
11.2859
11.2859
11.2859
11.2859
11.2859
11.2859
11.2859
11.2859
11.2859
11.2859
11.2859
11.2859
11.2859
11.2859
11.2859
11.2859
11.2859
11.2859
11.2859
11.2859
11.2859
11.2859
11.2859
11.2859
11.2859
11.2859
11.2859
11.2859
11.2859
11.2859
11.2859
11.2859
11.2859
11.2859
11.2859
11.2859
11.2859
11.2859
11.2859
11.2859
11.2859
11.2859
11.2859
11.2859
11.2859
11.2859
11.2859
11.2859
11.2859
11.2859
11.2859
11.2859
11.2859
11.2859
11.2859
11.2859
11.2859
11.2859
11.2859
11.2859
11.2859
11.2859
11.2859
11.2859
11.2859
11.2859
11.2859
11.2859
11.2859
11.2859
11.2859
11.2859
11.2859
11.2859
11.2859
11.2859
11.2859
11.2859
11.2859
11.2859
11.2859
11.2859
11.2859
11.2859
11.2859
11.2859
11.2859
11.2859
11.2859
11.2859
11.2859
11.2859
11.2859
11.2859
11.2859
11.2859
11.2859
11.2859
11.2859
11.2859
11.2859
11.2859
11.2859
11.2859
11.2859
11.2859
11.2859
11.2859
11.2859
11.2859
11.2859
11.2859
11.2859
11.2859
11.2859
11.2859
11.2859
11.2859
11.2859
11.2859
11.2859
11.2859
11.2859
11.2859
11.2859
11.2859
11.2859
11.2859
11.2859
11.2859
11.2859
11.2859
11.2859
11.2859
11.2859
11.2859
11.2859
11.2859
11.2859
11.2859
11.2859
11.2859
11.2859
11.2859
11.2859
11.2859
11.2859
11.2859
11.2859
11.2859
11.2859
11.2859
11.2859
11.2859
11.2859
11.2859
11.2859
11.2859
11.2859
11.2859
11.2859
11.2859
11.2859
11.2859
11.2859
11.2859
11.2859
11.2859
11.2859
11.2859
11.2859
11.2859
11.2859
11.2859
11.2859
11.2859
11.2859
11.2859
11.2859
11.2859
11.2859
11.2859
11.2859
11.2859
11.2859
11.2859
11.2859
11.2859
11.2859
11.2859
11.2859
11.2859
11.2859
11.2859
11.2859
11.2859
11.2859
11.2859
11.2859
11.2859
11.2859
11.2859
11.2859
11.2859
11.2859
11.2859
11.2859
11.2859
11.2859
11.2859
11.2859
11.2859
11.2859
11.2859
11.2859
11.2859
11.2859
11.2859
11.2859
11.2859
11.2859
11.2859
11.2859
11.2859
11.2859
11.2859
11.2859
11.2859
11.2859
11.2859
11.2859
11.2859
11.2859
11.2859
11.2859
11.2859
11.2859
11.2859
11.2859
11.2859
11.2859
11.2859
11.2859
11.2859
11.2859
11.2859
11.2859
11.2859
11.2859
11.2859
11.2859
11.2859
11.2859
11.2859
11.2859
11.2859
11.2859
11.2859
11.2859
11.2859
11.2859
11.2859
11.2859
11.2859
11.2859
11.2859
11.2859
11.2859
11.2859
11.2859
11.2859
11.2859
11.2859
11.2859
11.2859
11.2859
11.2859
11.2859
11.2859
11.2859
11.2859
11.2859
11.2859
11.2859
11.2859
11.2859
11.2859
11.2859
11.2859
11.2859
11.2859
11.2859
11.2859
11.2859
11.2859
11.2859
11.2859
11.2859
11.2859
11.2859
11.2859
11.2859
11.2859
11.2859
11.2859
11.2859
11.2859
11.2859
11.2859
11.2859
11.2859
11.2859
11.2859
11.2859
11.2859
11.2859
11.2859
11.2859
11.2859
11.2859
11.2859
11.2859
11.2859
11.2859
11.2859
11.2859
11.2859
11.2859
11.2859
11.2859
11.2859
11.2859
11.2859
11.2859
11.2859
11.2859
11.2859
11.2859
11.2859
11.2859
11.2859
11.2859
11.2859
11.2859
11.2859
11.2859
11.2859
11.2859
11.2859
11.2859
11.2859
11.2859
11.2859
11.2859
11.2859
11.2859
11.2859
11.2859
11.2859
11.2859
11.2859
11.2859
11.2859
11.2859
11.2859
11.2859
11.2859
11.2859
11.2859
11.2859
11.2859
11.2859
11.2859
11.2859
11.2859
11.2859
11.2859
11.2859
11.2859
11.2859
11.2859
11.2859
11.2859
11.2859
11.2859
11.2859
11.2859
11.2859
11.2859
11.2859
11.2859
11.2859
11.2859
11.2859
11.2859
11.2859
11.2859
11.2859
11.2859
11.2859
11.2859
11.2859
11.2859
11.2859
11.2859
11.2859
11.2859
11.2859
11.2859
11.2859
11.2859
11.2859
11.2859
11.2859
11.2859
11.2859
11.2859
11.2859
11.2859
11.2859
11.2859
11.2859
11.2859
11.2859
11.2859
11.2859
11.2859
11.2859
11.2859
11.2859
11.2859
11.2859
11.2859
11.2859
11.2859
11.2859
11.2859
11.2859
11.2859
11.2859
11.2859
11.2859
11.2859
11.2859
11.2859
11.2859
11.2859
11.2859
11.2859
11.2859
11.2859
11.2859
11.2859
11.2859
11.2859
11.2859
11.2859
11.2859
11.2859
11.2859
11.2859
11.2859
11.2859
11.2859
11.2859
11.2859
11.2859
11.2859
11.2859
11.2859
11.2859
11.2859
11.2859
11.2859
11.2859
11.2859
11.2859
11.2859
11.2859
11.2859
11.2859
11.2859
11.2859
11.2859
11.2859
11.2859
11.2859
11.2859
11.2859
11.2859
11.2859
11.2859
11.2859
11.2859
11.2859
11.2859
11.2859
11.2859
11.2859
11.2859
11.2859
11.2859
11.2859
11.2859
11.2859
11.2859
11.2859
11.2859
11.2859
11.2859
11.2859
11.2859
11.2859
11.2859
11.2859
11.2859
11.2859
11.2859
11.2859
11.2859
11.2859
11.2859
11.2859
11.2859
11.2859
11.2859
11.2859
11.2859
11.2859
11.2859
11.2859
11.2859
11.2859
11.2859
11.2859
11.2859
11.2859
11.2859
11.2859
11.2859
11.2859
11.2859
11.2859
11.2859
11.2859
11.2859
11.2859
11.2859
11.2859
11.2859
11.2859
11.2859
11.2859
11.2859
11.2859
11.2859
11.2859
11.2859
11.2859
11.2859
11.2859
11.2859
11.2859
11.2859
11.2859
11.2859
11.2859
11.2859
11.2859
11.2859
11.2859
11.2859
11.2859
11.2859
11.2859
11.2859
11.2859
11.2859
11.2859
11.2859
11.2859
11.2859
11.2859
11.2859
11.2859
11.2859
11.2859
11.2859
11.2859
11.2859
11.2859
11.2859
11.2859
11.2859
11.2859
11.2859
11.2859
11.2859
11.2859
11.2859
11.2859
11.2859
11.2859
11.2859
11.2859
11.2859
11.2859
11.2859
11.2859
11.2859
11.2859
11.2859
11.2859
11.2859
11.2859
11.2859
11.2859
11.2859
11.2859
11.2859
11.2859
11.2859
11.2859
11.2859
11.2859
11.2859
11.2859
11.2859
11.2859
11.2859
11.2859
11.2859
11.2859
11.2859
11.2859
11.2859
11.2859
11.2859
11.2859
11.2859
11.2859
11.2859
11.2859
11.2859
11.2859
11.2859
11.2859
11.2859
11.2859
11.2859
11.2859
11.2859
11.2859
11.2859
11.2859
11.2859
11.2859
11.2859
11.2859
11.2859
11.2859
11.2859
11.2859
11.2859
11.2859
11.2859
11.2859
11.2859
11.2859
11.2859
11.2859
11.2859
11.2859
11.2859
11.2859
11.2859
11.2859
11.2859
11.2859
11.2859
11.2859
11.2859
11.2859
11.2859
11.2859
11.2859
11.2859
11.2859
11.2859
11.2859
11.2859
11.2859
11.2859
11.2859
11.2859
11.2859
11.2859
11.2859
11.2859
11.2859
11.2859
11.2859
11.2859
11.2859
11.2859
11.2859
11.2859
11.2859
11.2859
11.2859
11.2859
11.2859
11.2859
11.2859
11.2859
11.2859
11.2859
11.2859
11.2859
11.2859
11.2859
11.2859
11.2859
11.2859
11.2859
11.2859
11.2859
11.2859
11.2859
11.2859
11.2859
11.2859
11.2859
11.2859
11.2859
11.2859
11.2859
11.2859
11.2859
11.2859
11.2859
11.2859
11.2859
11.2859
11.2859
11.2859
11.2859
11.2859
11.2859
11.2859
11.2859
11.2859
11.2859
11.2859
11.2859
11.2859
11.2859
11.2859
11.2859
11.2859
11.2859
11.2859
11.2859
11.2859
11.2859
11.2859
11.2859
11.2859
11.2859
11.2859
11.2859
11.2859
11.2859
11.2859
11.2859
11.2859
11.2859
11.2859
11.2859
11.2859
11.2859
11.2859
11.2859
11.2859
11.2859
11.2859
11.2859
11.2859
11.2859
11.2859
11.2859
11.2859
11.2859
11.2859
11.2859
11.2859
11.2859
11.2859
11.2859
11.2859
11.2859
11.2859
11.2859
11.2859
11.2859
11.2859
11.2859
11.2859
11.2859
11.2859
11.2859
11.2859
11.2859
11.2859
11.2859
11.2859
11.2859
11.2859
11.2859
11.2859
11.2859
11.2859
11.2859
11.2859
11.2859
11.2859
11.2859
11.2859
11.2859
11.2859
11.2859
11.2859
11.2859
11.2859
11.2859
11.2859
11.2859
11.2859
11.2859
11.2859
11.2859
11.2859
11.2859
11.2859
11.2859
11.2859
11.2859
11.2859
11.2859
11.2859
11.2859
11.2859
11.2859
11.2859
11.2859
11.2859
11.2859
11.2859
11.2859
11.2859
11.2859
11.2859
11.2859
11.2859
11.2859
11.2859
11.2859
11.2859
11.2859
11.2859
11.2859
11.2859
11.2859
11.2859
11.2859
11.2859
11.2859
11.2859
11.2859
11.2859
11.2859
11.2859
11.2859
11.2859
11.2859
11.2859
11.2859
11.2859
11.2859
11.2859
11.2859
11.2859
11.2859
11.2859
11.2859
11.2859
11.2859
11.2859
11.2859
11.2859
11.2859
11.2859
11.2859
11.2859
11.2859
11.2859
11.2859
11.2859
11.2859
11.2859
11.2859
11.2859
11.2859
11.2859
11.2859
11.2859
11.2859
11.2859
11.2859
11.2859
11.2859
11.2859
11.2859
11.2859
11.2859
11.2859
11.2859
11.2859
11.2859
11.2859
11.2859
11.2859
11.2859
11.2859
11.2859
11.2859
11.2859
11.2859
11.2859
11.2859
11.2859
11.2859
11.2859
11.2859
11.2859
11.2859
11.2859
11.2859
11.2859
11.2859
11.2859
11.2859
11.2859
11.2859
11.2859
11.2859
11.2859
11.2859
11.2859
11.2859
11.2859
11.2859
11.2859
11.2859
11.2859
11.2859
11.2859
11.2859
11.2859
11.2859
11.2859
11.2859
11.2859
11.2859
11.2859
11.2859
11.2859
11.2859
11.2859
11.2859
11.2859
11.2859
11.2859
11.2859
11.2859
11.2859
11.2859
11.2859
11.2859
11.2859
11.2859
11.2859
11.2859
11.2859
11.2859
11.2859
11.2859
11.2859
11.2859
11.2859
11.2859
11.2859
11.2859
11.2859
11.2859
11.2859
11.2859
11.2859
11.2859
11.2859
11.2859
11.2859
11.2859
11.2859
11.2859
11.2859
11.2859
11.2859
11.2859
11.2859
11.2859
11.2859
11.2859
11.2859
11.2859
11.2859
11.2859
11.2859
11.2859
11.2859
11.2859
11.2859
11.2859
11.2859
11.2859
11.2859
11.2859
11.2859
11.2859
11.2859
11.2859
11.2859
11.2859
11.2859
11.2859
11.2859
11.2859
11.2859
11.2859
11.2859
11.2859
11.2859
11.2859
11.2859
11.2859
11.2859
11.2859
11.2859
11.2859
11.2859
11.2859
11.2859
11.2859
11.2859
11.2859
11.2859
11.2859
11.2859
11.2859
11.2859
11.2859
11.2859
11.2859
11.2859
11.2859
11.2859
11.2859
11.2859
11.2859
11.2859
11.2859
11.2859
11.2859
11.2859
11.2859
11.2859
11.2859
11.2859
11.2859
11.2859
11.2859
11.2859
11.2859
11.2859
11.2859
11.2859
11.2859
11.2859
11.2859
11.2859
11.2859
11.2859
11.2859
11.2859
11.2859
11.2859
11.2859
11.2859
11.2859
11.2859
11.2859
11.2859
11.2859
11.2859
11.2859
11.2859
11.2859
11.2859
11.2859
11.2859
11.2859
11.2859
11.2859
11.2859
11.2859
11.2859
11.2859
11.2859
11.2859
11.2859
11.2859
11.2859
11.2859
11.2859
11.2859
11.2859
11.2859
11.2859
11.2859
11.2859
11.2859
11.2859
11.2859
11.2859
11.2859
11.2859
11.2859
11.2859
11.2859
11.2859
11.2859
11.2859
11.2859
11.2859
11.2859
11.2859
11.2859
11.2859
11.2859
11.2859
11.2859
11.2859
11.2859
11.2859
11.2859
11.2859
11.2859
11.2859
11.2859
11.2859
11.2859
11.2859
11.2859
11.2859
11.2859
11.2859
11.2859
11.2859
11.2859
11.2859
11.2859
11.2859
11.2859
11.2859
11.2859
11.2859
11.2859
11.2859
11.2859
11.2859
11.2859
11.2859
11.2859
11.2859
11.2859
11.2859
11.2859
11.2859
11.2859
11.2859
11.2859
11.2859
11.2859
11.2859
11.2859
11.2859
11.2859
11.2859
11.2859
11.2859
11.2859
11.2859
11.2859
11.2859
11.2859
11.2859
11.2859
11.2859
11.2859
11.2859
11.2859
11.2859
11.2859
11.2859
11.2859
11.2859
11.2859
11.2859
11.2859
11.2859
11.2859
11.2859
11.2859
11.2859
11.2859
11.2859
11.2859
11.2859
11.2858
11.2859
11.2859
11.2859
11.2859
11.2859
11.2859
11.2859
11.2859
11.2859
11.2859
11.2859
11.2859
11.2859
11.2859
11.2859
11.2859
11.2859
11.2859
11.2859
11.2859
11.2859
11.2859
11.2859
11.2859
11.2859
11.2859
11.2859
11.2859
11.2859
11.2859
11.2859
11.2859
11.2859
11.2859
11.2859
11.2859
11.2859
11.2859
11.2859
11.2859
11.2859
11.2859
11.2858
11.2858
11.2858
11.2858
11.2858
11.2858
11.2858
11.2858
11.2859
11.2859
11.2859
11.2859
11.2859
11.2859
11.2859
11.2859
11.2859
11.2859
11.2859
11.2859
11.2859
11.2859
11.2859
11.2859
11.2859
11.2859
11.2859
11.2859
11.2859
11.2859
11.2859
11.2859
11.2859
11.2859
11.2859
11.2859
11.2859
11.2859
11.2859
11.2859
11.2859
11.2859
11.2859
11.2859
11.2858
11.2858
11.2858
11.2858
11.2858
11.2858
11.2858
11.2858
11.2858
11.2857
11.2857
11.2857
11.2856
11.2855
11.2859
11.2859
11.2859
11.2859
11.2859
11.2859
11.2859
11.2859
11.2859
11.2859
11.2859
11.2859
11.2859
11.2859
11.2859
11.2859
11.2859
11.2859
11.2859
11.2859
11.2859
11.2859
11.2859
11.2859
11.2859
11.2859
11.2859
11.2859
11.2859
11.2858
11.2858
11.2858
11.2858
11.2858
11.2858
11.2858
11.2858
11.2858
11.2857
11.2857
11.2857
11.2856
11.2855
11.2854
11.2853
11.2851
11.2849
11.2846
11.2843
11.2838
11.2859
11.2859
11.2859
11.2859
11.2859
11.2859
11.2859
11.2859
11.2859
11.2859
11.2859
11.2859
11.2859
11.2859
11.2859
11.2859
11.2859
11.2859
11.2859
11.2859
11.2859
11.2859
11.2859
11.2858
11.2858
11.2858
11.2858
11.2858
11.2858
11.2858
11.2858
11.2858
11.2857
11.2857
11.2856
11.2856
11.2855
11.2853
11.2852
11.285
11.2847
11.2843
11.2839
11.2833
11.2825
11.2816
11.2804
11.2788
11.2768
11.2739
11.2859
11.2859
11.2859
11.2859
11.2859
11.2859
11.2859
11.2859
11.2859
11.2859
11.2859
11.2859
11.2859
11.2859
11.2859
11.2859
11.2858
11.2858
11.2858
11.2858
11.2858
11.2858
11.2858
11.2858
11.2858
11.2857
11.2857
11.2857
11.2856
11.2855
11.2854
11.2853
11.2851
11.2848
11.2845
11.2841
11.2835
11.2828
11.2819
11.2807
11.2791
11.2771
11.2745
11.2712
11.267
11.2616
11.2548
11.2461
11.2351
11.2195
11.2859
11.2859
11.2859
11.2859
11.2859
11.2859
11.2859
11.2859
11.2859
11.2858
11.2858
11.2858
11.2858
11.2858
11.2858
11.2858
11.2858
11.2858
11.2858
11.2857
11.2857
11.2856
11.2856
11.2855
11.2854
11.2852
11.285
11.2847
11.2844
11.2839
11.2833
11.2825
11.2814
11.28
11.2782
11.2758
11.2727
11.2687
11.2636
11.2569
11.2483
11.2373
11.2232
11.2052
11.1825
11.1539
11.1181
11.0735
11.0179
10.9431
11.2859
11.2859
11.2858
11.2858
11.2858
11.2858
11.2858
11.2858
11.2858
11.2858
11.2858
11.2858
11.2857
11.2857
11.2857
11.2856
11.2855
11.2854
11.2853
11.2851
11.2849
11.2846
11.2842
11.2837
11.283
11.2821
11.281
11.2794
11.2774
11.2748
11.2714
11.2669
11.2611
11.2534
11.2435
11.2307
11.2142
11.193
11.1659
11.1312
11.0873
11.032
10.963
10.8777
10.7735
10.6476
10.498
10.3228
10.1192
9.87468
11.2858
11.2858
11.2858
11.2858
11.2858
11.2858
11.2857
11.2857
11.2857
11.2856
11.2855
11.2855
11.2853
11.2852
11.285
11.2847
11.2844
11.284
11.2834
11.2827
11.2817
11.2804
11.2788
11.2766
11.2738
11.2701
11.2652
11.2589
11.2506
11.2398
11.2259
11.2077
11.1843
11.1541
11.1153
11.0653
11.0018
10.9223
10.8237
10.7026
10.5557
10.3802
10.1745
9.9379
9.67147
9.37816
9.06275
8.73105
8.38986
8.04172
7.68625
11.2857
11.2857
11.2856
11.2855
11.2855
11.2854
11.2852
11.285
11.2848
11.2845
11.2841
11.2836
11.283
11.2821
11.2811
11.2797
11.2778
11.2755
11.2724
11.2684
11.2632
11.2563
11.2475
11.2359
11.2209
11.2015
11.1764
11.1441
11.1026
11.049
10.9808
10.8952
10.7886
10.6568
10.4962
10.3036
10.0781
9.82011
9.53091
9.2136
8.87354
8.51741
8.15255
7.78632
7.42551
7.07591
6.7422
6.42728
6.13272
5.85622
5.59762
11.2852
11.285
11.2848
11.2845
11.2841
11.2837
11.2831
11.2823
11.2813
11.2801
11.2784
11.2763
11.2736
11.2702
11.2657
11.26
11.2525
11.2428
11.2303
11.2141
11.1933
11.1665
11.132
11.088
11.0321
10.9608
10.8704
10.7579
10.6197
10.4518
10.2507
10.0155
9.74645
9.44478
9.11484
8.76077
8.38434
7.99979
7.62089
7.25137
6.89478
6.55482
6.23385
5.93338
5.65411
5.39609
5.1589
4.94207
4.74399
4.56353
4.39643
4.2441
11.2822
11.2812
11.28
11.2785
11.2765
11.274
11.2708
11.2667
11.2614
11.2548
11.2463
11.2354
11.2214
11.2034
11.1804
11.1511
11.1138
11.0664
11.0065
10.9313
10.8375
10.7203
10.576
10.4022
10.196
9.95508
9.67915
9.37176
9.0379
8.68074
8.30112
7.91368
7.53184
7.1587
6.7982
6.45308
6.12541
5.82071
5.54284
5.28634
5.04889
4.8297
4.62747
4.44135
4.27043
4.11378
3.97063
3.84078
3.72241
3.61461
3.51476
3.42458
11.2662
11.2611
11.2547
11.2466
11.2363
11.2234
11.207
11.1861
11.1596
11.1263
11.0844
11.0318
10.9659
10.8839
10.783
10.6598
10.5099
10.3287
10.1152
9.86944
9.59095
9.28085
8.94412
8.58868
8.22135
7.84302
7.45798
7.08389
6.72683
6.38558
6.06085
5.75817
5.48048
5.22291
4.98621
4.7634
4.54949
4.35606
4.18804
4.03248
3.8888
3.7563
3.63394
3.5215
3.41852
3.32444
3.23859
3.16025
3.08904
3.02477
2.96584
2.91397
11.1843
11.159
11.1273
11.0875
11.0381
10.977
10.9017
10.8092
10.6969
10.5618
10.4012
10.2118
9.9895
9.73469
9.45119
9.14103
8.807
8.45406
8.09117
7.72633
7.3639
6.99968
6.64387
6.30981
5.99729
5.70043
5.42289
5.16807
4.93661
4.71708
4.50506
4.31197
4.14227
3.98459
3.83995
3.70346
3.57528
3.45821
3.35467
3.25879
3.16995
3.08853
3.0142
2.94643
2.88483
2.82912
2.77901
2.73432
2.69478
2.66044
2.63021
2.6053
10.8049
10.6968
10.5675
10.4146
10.2362
10.0311
9.79772
9.53294
9.24046
8.92722
8.59664
8.25256
7.89925
7.54497
7.19695
6.85902
6.52926
6.20362
5.89781
5.61573
5.35235
5.10314
4.87213
4.66236
4.47027
4.27986
4.10402
3.94345
3.80217
3.66571
3.53732
3.41968
3.31398
3.21576
3.12632
3.03979
2.96013
2.88878
2.82459
2.76389
2.70912
2.66037
2.6171
2.57895
2.54571
2.51722
2.49332
2.47385
2.45854
2.44727
2.43925
2.43462
9.52509
9.2497
8.9521
8.63401
8.30403
7.96815
7.63002
7.29216
6.96148
6.64304
6.33804
6.04612
5.75809
5.48629
5.23726
5.00695
4.78872
4.58435
4.39608
4.22508
4.06414
3.9031
3.75588
3.62562
3.5048
3.38761
3.27759
3.17831
3.0893
3.00163
2.92098
2.84751
2.78097
2.71783
2.66015
2.60794
2.56097
2.51939
2.48237
2.44941
2.42099
2.3971
2.37752
2.36204
2.35039
2.34233
2.33753
2.3357
2.33641
2.33941
2.34421
2.3504
7.29122
6.97208
6.66286
6.36519
6.08246
5.81554
5.56216
5.3121
5.07721
4.86272
4.66391
4.47644
4.29844
4.13341
3.98275
3.84302
3.7042
3.57348
3.45058
3.34398
3.24011
3.14024
3.04704
2.96356
2.88675
2.81101
2.74042
2.67908
2.62013
2.56483
2.51501
2.47049
2.43041
2.39431
2.36243
2.33503
2.31166
2.29208
2.27619
2.26405
2.25557
2.25036
2.24799
2.24805
2.25019
2.25415
2.25965
2.26656
2.27446
2.28328
2.29292
2.30285
5.08914
4.88221
4.68236
4.49764
4.32785
4.16781
4.01497
3.87293
3.74243
3.62043
3.50258
3.38574
3.27694
3.18048
3.08992
3.00094
2.9168
2.83895
2.76879
2.70186
2.63723
2.57807
2.52467
2.4735
2.42667
2.38395
2.34623
2.31187
2.28136
2.25478
2.23181
2.2124
2.19681
2.1851
2.17682
2.17114
2.16772
2.16657
2.16767
2.17083
2.17564
2.18178
2.18891
2.19685
2.20551
2.21477
2.22456
2.2348
2.24539
2.25642
2.26747
3.86955
3.74007
3.61774
3.50411
3.39859
3.29696
3.19564
3.10056
3.01523
2.93538
2.85765
2.78285
2.71266
2.64857
2.58964
2.53171
2.47703
2.42805
2.3818
2.33857
2.29908
2.26348
2.23155
2.20274
2.17764
2.15584
2.13742
2.12247
2.11091
2.10212
2.09572
2.09172
2.09039
2.09155
2.09455
2.09869
2.10369
2.10965
2.11652
2.12431
2.13279
2.1418
2.15124
2.16102
2.17113
2.18155
2.19229
2.20335
2.21466
2.22618
2.23763
3.09247
3.00788
2.92526
2.84891
2.77865
2.71076
2.64512
2.58313
2.52589
2.47303
2.42233
2.37365
2.32904
2.28743
2.24864
2.21297
2.18027
2.15092
2.12446
2.1012
2.08113
2.06402
2.04994
2.03889
2.0305
2.02431
2.02039
2.01899
2.01971
2.02185
2.02503
2.02932
2.03496
2.04172
2.04923
2.05706
2.06513
2.07357
2.08246
2.09179
2.10148
2.11147
2.12177
2.13234
2.14315
2.15413
2.16522
2.17645
2.18783
2.19948
2.21105
2.50799
2.4532
2.40178
2.35433
2.30955
2.26689
2.22713
2.19003
2.15568
2.12418
2.09513
2.06871
2.04488
2.02392
2.00598
1.99063
1.97783
1.9677
1.96017
1.95472
1.95114
1.94965
1.95018
1.95214
1.95512
1.95922
1.96461
1.97084
1.97755
1.98458
1.99208
2.00024
2.00894
2.01792
2.027
2.03619
2.04564
2.05544
2.06555
2.07588
2.08636
2.09698
2.10785
2.11892
2.13014
2.14145
2.15281
2.16411
2.17546
2.1864
2.15983
2.12432
2.09135
2.06107
2.03329
2.00771
1.98433
1.9633
1.945
1.92947
1.91625
1.90514
1.89629
1.88985
1.88549
1.88272
1.88156
1.88218
1.88433
1.88747
1.89146
1.8965
1.90241
1.90886
1.91565
1.92294
1.93082
1.93902
1.94733
1.95577
1.96451
1.97369
1.98321
1.99288
2.00258
2.01234
2.02237
2.03263
2.04312
2.05378
2.06457
2.07529
2.0859
2.09651
2.10721
2.11798
2.12882
2.13961
2.15064
2.16099
1.91984
1.89948
1.88124
1.8654
1.85202
1.84077
1.83143
1.82412
1.81902
1.81589
1.8142
1.81376
1.81479
1.81732
1.82087
1.8251
1.83004
1.83585
1.84229
1.84905
1.85613
1.86368
1.8716
1.87967
1.88789
1.8964
1.90524
1.91428
1.92335
1.93251
1.94185
1.95159
1.96157
1.97165
1.98176
1.99192
2.00197
2.012
2.02212
2.03232
2.0426
2.05299
2.06338
2.07373
2.08406
2.09443
2.10476
2.11505
2.12566
2.13592
1.7655
1.75796
1.75217
1.74828
1.74618
1.74544
1.74585
1.74755
1.75061
1.75467
1.75931
1.76445
1.77032
1.77688
1.78379
1.79089
1.7983
1.8061
1.81412
1.82224
1.83052
1.83907
1.84783
1.85667
1.86558
1.87465
1.884
1.8935
1.90308
1.91276
1.92255
1.93231
1.94204
1.95179
1.96155
1.97135
1.98122
1.9911
2.00101
2.01095
2.02085
2.03088
2.04092
2.051
2.06104
2.07114
2.0814
2.09165
2.10199
2.11193
1.67727
1.67862
1.68102
1.68453
1.68895
1.69391
1.69936
1.70545
1.71219
1.71931
1.72656
1.734
1.74177
1.74984
1.75801
1.76623
1.77464
1.78328
1.79202
1.80077
1.8096
1.81866
1.82787
1.83719
1.84662
1.85619
1.86557
1.87493
1.8843
1.89374
1.90329
1.91289
1.92247
1.93201
1.94155
1.95106
1.96074
1.97044
1.98017
1.98993
1.99955
2.00931
2.01911
2.02906
2.03904
2.04901
2.05902
2.06901
2.07905
2.08867
1.62927
1.63515
1.64151
1.64838
1.65559
1.66295
1.67048
1.67831
1.68645
1.6947
1.70296
1.71133
1.71993
1.72865
1.73738
1.74611
1.755
1.76408
1.77325
1.78249
1.79183
1.80101
1.81016
1.81933
1.82859
1.83795
1.84726
1.85652
1.86573
1.87496
1.88427
1.89374
1.90322
1.91266
1.92209
1.93146
1.94089
1.9503
1.95973
1.96932
1.97897
1.98866
1.99836
2.0081
2.01786
2.0276
2.0373
2.04698
2.05674
2.06617
1.60013
1.60786
1.61581
1.62398
1.63225
1.64055
1.64893
1.65751
1.66623
1.67497
1.68367
1.6925
1.70149
1.7106
1.71978
1.72897
1.73806
1.74713
1.7562
1.76531
1.7745
1.78365
1.79275
1.80179
1.81085
1.81997
1.82919
1.83843
1.84764
1.85684
1.86606
1.87529
1.88455
1.89377
1.90299
1.91217
1.92146
1.93088
1.94029
1.94975
1.95925
1.96877
1.97827
1.98774
1.99722
2.00671
2.01621
2.02571
2.0353
2.04463
1.5874
1.59602
1.60473
1.61345
1.62214
1.63094
1.63989
1.64896
1.65809
1.6672
1.67623
1.68526
1.6943
1.70336
1.71248
1.72156
1.73058
1.73954
1.74849
1.75746
1.76655
1.77565
1.78473
1.79378
1.80285
1.81191
1.82098
1.83004
1.8391
1.84816
1.85719
1.86625
1.8754
1.88457
1.89379
1.903
1.91227
1.92156
1.93084
1.94009
1.94936
1.95864
1.96792
1.97721
1.98654
1.99591
2.00532
2.01483
2.02413
1.5702
1.57917
1.58823
1.59732
1.60637
1.61536
1.62436
1.63337
1.64241
1.65148
1.66051
1.66951
1.67845
1.68736
1.69628
1.7053
1.71434
1.72335
1.73232
1.74127
1.75024
1.75923
1.7682
1.77713
1.78609
1.79502
1.80392
1.81283
1.82174
1.83077
1.83978
1.84882
1.85788
1.86696
1.87606
1.88512
1.89418
1.90325
1.91232
1.9214
1.9305
1.93962
1.94877
1.95796
1.96719
1.9765
1.98586
1.99536
2.00468
1.55526
1.56427
1.57329
1.58233
1.59138
1.60038
1.60935
1.61827
1.62717
1.63607
1.64505
1.65406
1.66305
1.67199
1.68092
1.68984
1.69879
1.70772
1.71662
1.72549
1.73435
1.74321
1.75205
1.76086
1.76968
1.77854
1.78742
1.79632
1.80518
1.81413
1.82309
1.83202
1.84093
1.84982
1.85871
1.86761
1.8765
1.88541
1.89434
1.90329
1.91227
1.92129
1.93036
1.9395
1.94869
1.95798
1.96735
1.97688
1.98626
1.54992
1.55886
1.56777
1.57668
1.58565
1.59464
1.60361
1.61254
1.62145
1.63036
1.63929
1.64821
1.65711
1.66598
1.67482
1.68365
1.69249
1.70128
1.71004
1.7188
1.72758
1.73639
1.7452
1.75397
1.76279
1.77159
1.78043
1.78923
1.79801
1.80679
1.81556
1.82431
1.83305
1.8418
1.85056
1.85933
1.86813
1.87696
1.88582
1.89473
1.9037
1.91273
1.92184
1.93104
1.94035
1.94975
1.95934
1.96881
1.53588
1.54487
1.55382
1.56273
1.57165
1.58058
1.5895
1.5984
1.60726
1.61611
1.62495
1.63378
1.6426
1.65138
1.66013
1.66887
1.67762
1.68639
1.69514
1.70389
1.71261
1.72137
1.73013
1.73883
1.74756
1.75623
1.76491
1.77357
1.78222
1.79085
1.79949
1.80811
1.81675
1.82539
1.83405
1.84273
1.85145
1.86021
1.86902
1.87789
1.88684
1.89586
1.90498
1.9142
1.92355
1.93301
1.94267
1.95223
1.5314
1.54033
1.54922
1.55809
1.56694
1.57578
1.58461
1.59341
1.60219
1.61094
1.61969
1.62844
1.6372
1.64595
1.65467
1.66338
1.6721
1.68081
1.68952
1.69816
1.7068
1.71543
1.72403
1.73262
1.74118
1.74973
1.75827
1.7668
1.77533
1.78386
1.79239
1.80094
1.8095
1.81809
1.82671
1.83538
1.8441
1.85288
1.86174
1.87068
1.87971
1.88886
1.89811
1.90752
1.91703
1.92676
1.9364
1.51832
1.52719
1.53603
1.54484
1.55363
1.5624
1.57115
1.57992
1.58869
1.59743
1.60615
1.61487
1.62359
1.63231
1.64099
1.64964
1.65826
1.66685
1.67545
1.684
1.69253
1.70104
1.70954
1.71802
1.72648
1.73493
1.74337
1.75182
1.76026
1.76871
1.77717
1.78564
1.79415
1.80268
1.81127
1.8199
1.8286
1.83738
1.84623
1.85518
1.86424
1.87341
1.8827
1.89215
1.9017
1.91148
1.92115
1.51435
1.52315
1.53195
1.54073
1.54949
1.55822
1.56696
1.57569
1.58441
1.59311
1.60176
1.61039
1.619
1.62759
1.63615
1.64469
1.65318
1.66167
1.67013
1.67857
1.68699
1.6954
1.70379
1.71216
1.72053
1.7289
1.73727
1.74564
1.75403
1.76243
1.77086
1.77932
1.78782
1.79638
1.805
1.81369
1.82246
1.83132
1.84029
1.84936
1.85855
1.86786
1.87733
1.88688
1.89666
1.9063
1.50199
1.51076
1.51954
1.5283
1.53704
1.54575
1.55442
1.56307
1.5717
1.58032
1.5889
1.59744
1.60597
1.61447
1.62295
1.6314
1.63982
1.64822
1.6566
1.66496
1.6733
1.68163
1.68994
1.69825
1.70655
1.71486
1.72316
1.73148
1.73982
1.74818
1.75657
1.765
1.77348
1.78202
1.79062
1.79931
1.80808
1.81694
1.82591
1.83497
1.84417
1.85345
1.8629
1.87239
1.88212
1.89165
1.49005
1.49879
1.5075
1.51619
1.52487
1.53351
1.54211
1.55069
1.55925
1.56779
1.57629
1.58477
1.59322
1.60164
1.61004
1.61842
1.62677
1.63509
1.6434
1.65169
1.65997
1.66823
1.67648
1.68473
1.69297
1.70122
1.70948
1.71776
1.72605
1.73438
1.74274
1.75115
1.75961
1.76813
1.77672
1.78539
1.79415
1.80299
1.81194
1.82096
1.83012
1.83934
1.84871
1.85808
1.86767
1.87701
1.47836
1.48704
1.49569
1.50432
1.51292
1.5215
1.53005
1.53856
1.54705
1.55552
1.56396
1.57237
1.58075
1.58911
1.59744
1.60575
1.61404
1.6223
1.63055
1.63878
1.64699
1.6552
1.6634
1.67159
1.67979
1.688
1.69621
1.70445
1.71271
1.72101
1.72934
1.73772
1.74616
1.75465
1.76322
1.77186
1.78058
1.78937
1.79826
1.80721
1.81628
1.82536
1.8346
1.84376
1.85315
1.8622
1.46688
1.47551
1.48411
1.49268
1.50122
1.50974
1.51823
1.52669
1.53512
1.54352
1.5519
1.56025
1.56857
1.57687
1.58514
1.59339
1.60162
1.60983
1.61802
1.6262
1.63436
1.64252
1.65067
1.65882
1.66698
1.67514
1.68333
1.69153
1.69976
1.70802
1.71632
1.72466
1.73306
1.74152
1.75004
1.75861
1.76727
1.77597
1.78477
1.79357
1.80251
1.81138
1.82041
1.82928
1.83838
1.84705
1.45563
1.46421
1.47276
1.48127
1.48977
1.49823
1.50666
1.51507
1.52344
1.53179
1.54011
1.54841
1.55668
1.56492
1.57314
1.58134
1.58952
1.59767
1.60582
1.61395
1.62206
1.63018
1.63829
1.6464
1.65451
1.66264
1.67078
1.67894
1.68713
1.69535
1.70361
1.7119
1.72025
1.72863
1.73708
1.74556
1.75411
1.76267
1.77132
1.77992
1.78865
1.79724
1.80601
1.81449
1.82323
1.83144
1.44461
1.45313
1.46163
1.4701
1.47854
1.48696
1.49534
1.50369
1.51202
1.52032
1.52859
1.53684
1.54506
1.55325
1.56142
1.56957
1.5777
1.58582
1.59391
1.602
1.61008
1.61815
1.62621
1.63428
1.64236
1.65044
1.65854
1.66665
1.67479
1.68295
1.69115
1.69937
1.70763
1.71591
1.72425
1.73259
1.74098
1.74935
1.75779
1.76613
1.7746
1.78283
1.79126
1.79929
1.80761
1.8153
1.44228
1.45073
1.45916
1.46755
1.47592
1.48425
1.49256
1.50084
1.50909
1.51732
1.52552
1.5337
1.54185
1.54997
1.55808
1.56617
1.57424
1.58229
1.59034
1.59837
1.6064
1.61442
1.62245
1.63047
1.6385
1.64655
1.6546
1.66267
1.67075
1.67886
1.68698
1.69512
1.70327
1.71144
1.71959
1.72779
1.7359
1.74409
1.7521
1.76023
1.76805
1.77606
1.78362
1.79143
1.79848
1.43164
1.44005
1.44843
1.45678
1.4651
1.47339
1.48166
1.4899
1.49811
1.50629
1.51445
1.52258
1.53069
1.53878
1.54684
1.55489
1.56292
1.57093
1.57893
1.58692
1.5949
1.60287
1.61084
1.61881
1.62678
1.63475
1.64272
1.6507
1.65867
1.66666
1.67464
1.68263
1.6906
1.69857
1.70649
1.71443
1.72223
1.7301
1.73772
1.74547
1.75283
1.76037
1.76741
1.77455
1.78091
1.4212
1.42957
1.4379
1.44621
1.45449
1.46275
1.47097
1.47917
1.48734
1.49549
1.5036
1.5117
1.51977
1.52781
1.53584
1.54384
1.55182
1.55979
1.56774
1.57568
1.5836
1.59152
1.59942
1.60731
1.6152
1.62308
1.63094
1.6388
1.64665
1.65448
1.66229
1.67008
1.67782
1.68555
1.69318
1.70081
1.70826
1.71575
1.72296
1.73026
1.73712
1.74419
1.7505
1.75701
1.76267
1.41928
1.42757
1.43585
1.44409
1.4523
1.46049
1.46865
1.47678
1.48489
1.49297
1.50102
1.50905
1.51706