/*--------------------------------*- C++ -*----------------------------------*\
| =========                 |                                                 |
| \\      /  F ield         | OpenFOAM: The Open Source CFD Toolbox           |
|  \\    /   O peration     | Version:  v1706                                 |
|   \\  /    A nd           | Web:      www.OpenFOAM.com                      |
|    \\/     M anipulation  |                                                 |
\*---------------------------------------------------------------------------*/
FoamFile
{
    version     2.0;
    format      ascii;
    class       volScalarField;
    location    "6e-06";
    object      p;
}
// * * * * * * * * * * * * * * * * * * * * * * * * * * * * * * * * * * * * * //

dimensions      [1 -1 -2 0 0 0 0];


internalField   nonuniform List<scalar> 
30038
(
21.9139
21.9139
21.9139
21.9139
21.9139
21.9139
21.9139
21.9139
21.9139
21.9139
21.9139
21.9139
21.9139
21.9139
21.9139
21.9139
21.9139
21.9139
21.9139
21.9139
21.9139
21.9139
21.9139
21.9139
21.9139
21.9139
21.9139
21.9139
21.9139
21.9139
21.9139
21.9139
21.9139
21.9139
21.9139
21.9139
21.9139
21.9139
21.9139
21.9139
21.9139
21.9139
21.9139
21.9139
21.9139
21.9139
21.9139
21.9139
21.9139
21.9139
21.9139
21.9139
21.9139
21.9139
21.9139
21.9139
21.9139
21.9139
21.9139
21.9139
21.9139
21.9139
21.9139
21.9139
21.9139
21.9139
21.9139
21.9139
21.9139
21.9139
21.9139
21.9139
21.9139
21.9139
21.9139
21.9139
21.9139
21.9139
21.9139
21.9139
21.9139
21.9139
21.9139
21.9139
21.9139
21.9139
21.9139
21.9139
21.9139
21.9139
21.9139
21.9139
21.9139
21.9139
21.9139
21.9139
21.9139
21.9139
21.9139
21.9139
21.9139
21.9139
21.9139
21.9139
21.9139
21.9139
21.9139
21.9139
21.9139
21.9139
21.9139
21.9139
21.9139
21.9139
21.9139
21.9139
21.9139
21.9139
21.9139
21.9139
21.9139
21.9139
21.9139
21.9139
21.9139
21.9139
21.9139
21.9139
21.9139
21.9139
21.9139
21.9139
21.9139
21.9139
21.9139
21.9139
21.9139
21.9139
21.9139
21.9139
21.9139
21.9139
21.9139
21.9139
21.9139
21.9139
21.9139
21.9139
21.9139
21.9139
21.9139
21.9139
21.9139
21.9139
21.9139
21.9139
21.9139
21.9139
21.9139
21.9139
21.9139
21.9139
21.9139
21.9139
21.9139
21.9139
21.9139
21.9139
21.9139
21.9139
21.9139
21.9139
21.9139
21.9139
21.9139
21.9139
21.9139
21.9139
21.9139
21.9139
21.9139
21.9139
21.9139
21.9139
21.9139
21.9139
21.9139
21.9139
21.9139
21.9139
21.9139
21.9139
21.9139
21.9139
21.9139
21.9139
21.9139
21.9139
21.9139
21.9139
21.9139
21.9139
21.9139
21.9139
21.9139
21.9139
21.9139
21.9139
21.9139
21.9139
21.9139
21.9139
21.9139
21.9139
21.9139
21.9139
21.9139
21.9139
21.9139
21.9139
21.9139
21.9139
21.9139
21.9139
21.9139
21.9139
21.9139
21.9139
21.9139
21.9139
21.9139
21.9139
21.9139
21.9139
21.9139
21.9139
21.9139
21.9139
21.9139
21.9139
21.9139
21.9139
21.9139
21.9139
21.9139
21.9139
21.9139
21.9139
21.9139
21.9139
21.9139
21.9139
21.9139
21.9139
21.9139
21.9139
21.9139
21.9139
21.9139
21.9139
21.9139
21.9139
21.9139
21.9139
21.9139
21.9139
21.9139
21.9139
21.9139
21.9139
21.9139
21.9139
21.9139
21.9139
21.9139
21.9139
21.9139
21.9139
21.9139
21.9139
21.9139
21.9139
21.9139
21.9139
21.9139
21.9139
21.9139
21.9139
21.9139
21.9139
21.9139
21.9139
21.9139
21.9139
21.9139
21.9139
21.9139
21.9139
21.9139
21.9139
21.9139
21.9139
21.9139
21.9139
21.9139
21.9139
21.9139
21.9139
21.9139
21.9139
21.9139
21.9139
21.9139
21.9139
21.9139
21.9139
21.9139
21.9139
21.9139
21.9139
21.9139
21.9139
21.9139
21.9139
21.9139
21.9139
21.9139
21.9139
21.9139
21.9139
21.9139
21.9139
21.9139
21.9139
21.9139
21.9139
21.9139
21.9139
21.9139
21.9139
21.9139
21.9139
21.9139
21.9139
21.9139
21.9139
21.9139
21.9139
21.9139
21.9139
21.9139
21.9139
21.9139
21.9139
21.9139
21.9139
21.9139
21.9139
21.9139
21.9139
21.9139
21.9139
21.9139
21.9139
21.9139
21.9139
21.9139
21.9139
21.9139
21.9139
21.9139
21.9139
21.9139
21.9139
21.9139
21.9139
21.9139
21.9139
21.9139
21.9139
21.9139
21.9139
21.9139
21.9139
21.9139
21.9139
21.9139
21.9139
21.9139
21.9139
21.9139
21.9139
21.9139
21.9139
21.9139
21.9139
21.9139
21.9139
21.9139
21.9139
21.9139
21.9139
21.9139
21.9139
21.9139
21.9139
21.9139
21.9139
21.9139
21.9139
21.9139
21.9139
21.9139
21.9139
21.9139
21.9139
21.9139
21.9139
21.9139
21.9139
21.9139
21.9139
21.9139
21.9139
21.9139
21.9139
21.9139
21.9139
21.9139
21.9139
21.9139
21.9139
21.9139
21.9139
21.9139
21.9139
21.9139
21.9139
21.9139
21.9139
21.9139
21.9139
21.9139
21.9139
21.9139
21.9139
21.9139
21.9139
21.9139
21.9139
21.9139
21.9139
21.9139
21.9139
21.9139
21.9139
21.9139
21.9139
21.9139
21.9139
21.9139
21.9139
21.9139
21.9139
21.9139
21.9139
21.9139
21.9139
21.9139
21.9139
21.9139
21.9139
21.9139
21.9139
21.9139
21.9139
21.9139
21.9139
21.9139
21.9139
21.9139
21.9139
21.9139
21.9139
21.9139
21.9139
21.9139
21.9139
21.9139
21.9139
21.9139
21.9139
21.9139
21.9139
21.9139
21.9139
21.9139
21.9139
21.9139
21.9139
21.9139
21.9139
21.9139
21.9139
21.9139
21.9139
21.9139
21.9139
21.9139
21.9139
21.9139
21.9139
21.9139
21.9139
21.9139
21.9139
21.9139
21.9139
21.9139
21.9139
21.9139
21.9139
21.9139
21.9139
21.9139
21.9139
21.9139
21.9139
21.9139
21.9139
21.9139
21.9139
21.9139
21.9139
21.9139
21.9139
21.9139
21.9139
21.9139
21.9139
21.9139
21.9139
21.9139
21.9139
21.9139
21.9139
21.9139
21.9139
21.9139
21.9139
21.9139
21.9139
21.9139
21.9139
21.9139
21.9139
21.9139
21.9139
21.9139
21.9139
21.9139
21.9139
21.9139
21.9139
21.9139
21.9139
21.9139
21.9139
21.9139
21.9139
21.9139
21.9139
21.9139
21.9139
21.9139
21.9139
21.9139
21.9139
21.9139
21.9139
21.9139
21.9139
21.9139
21.9139
21.9139
21.9139
21.9139
21.9139
21.9139
21.9139
21.9139
21.9139
21.9139
21.9139
21.9139
21.9139
21.9139
21.9139
21.9139
21.9139
21.9139
21.9139
21.9139
21.9139
21.9139
21.9139
21.9139
21.9139
21.9139
21.9139
21.9139
21.9139
21.9139
21.9139
21.9139
21.9139
21.9139
21.9139
21.9139
21.9139
21.9139
21.9139
21.9139
21.9139
21.9139
21.9139
21.9139
21.9139
21.9139
21.9139
21.9139
21.9139
21.9139
21.9139
21.9139
21.9139
21.9139
21.9139
21.9139
21.9139
21.9139
21.9139
21.9139
21.9139
21.9139
21.9139
21.9139
21.9139
21.9139
21.9139
21.9139
21.9139
21.9139
21.9139
21.9139
21.9139
21.9139
21.9139
21.9139
21.9139
21.9139
21.9139
21.9139
21.9139
21.9139
21.9139
21.9139
21.9139
21.9139
21.9139
21.9139
21.9139
21.9139
21.9139
21.9139
21.9139
21.9139
21.9139
21.9139
21.9139
21.9139
21.9139
21.9139
21.9139
21.9139
21.9139
21.9139
21.9139
21.9139
21.9139
21.9139
21.9139
21.9139
21.9139
21.9139
21.9139
21.9139
21.9139
21.9139
21.9139
21.9139
21.9139
21.9139
21.9139
21.9139
21.9139
21.9139
21.9139
21.9139
21.9139
21.9139
21.9139
21.9139
21.9139
21.9139
21.9139
21.9139
21.9139
21.9139
21.9139
21.9139
21.9139
21.9139
21.9139
21.9139
21.9139
21.9139
21.9139
21.9139
21.9139
21.9139
21.9139
21.9139
21.9139
21.9139
21.9139
21.9139
21.9139
21.9139
21.9139
21.9139
21.9139
21.9139
21.9139
21.9139
21.9139
21.9139
21.9139
21.9139
21.9139
21.9139
21.9139
21.9139
21.9139
21.9139
21.9139
21.9139
21.9139
21.9139
21.9139
21.9139
21.9139
21.9139
21.9139
21.9139
21.9139
21.9139
21.9139
21.9139
21.9139
21.9139
21.9139
21.9139
21.9139
21.9139
21.9139
21.9139
21.9139
21.9139
21.9139
21.9139
21.9139
21.9139
21.9139
21.9139
21.9139
21.9139
21.9139
21.9139
21.9139
21.9139
21.9139
21.9139
21.9139
21.9139
21.9139
21.9139
21.9139
21.9139
21.9139
21.9139
21.9139
21.9139
21.9139
21.9139
21.9139
21.9139
21.9139
21.9139
21.9139
21.9139
21.9139
21.9139
21.9139
21.9139
21.9139
21.9139
21.9139
21.9139
21.9139
21.9139
21.9139
21.9139
21.9139
21.9139
21.9139
21.9139
21.9139
21.9139
21.9139
21.9139
21.9139
21.9139
21.9139
21.9139
21.9139
21.9139
21.9139
21.9139
21.9139
21.9139
21.9139
21.9139
21.9139
21.9139
21.9139
21.9139
21.9139
21.9139
21.9139
21.9139
21.9139
21.9139
21.9139
21.9139
21.9139
21.9139
21.9139
21.9139
21.9139
21.9139
21.9139
21.9139
21.9139
21.9139
21.9139
21.9139
21.9139
21.9139
21.9139
21.9139
21.9139
21.9139
21.9139
21.9139
21.9139
21.9139
21.9139
21.9139
21.9139
21.9139
21.9139
21.9139
21.9139
21.9139
21.9139
21.9139
21.9139
21.9139
21.9139
21.9139
21.9139
21.9139
21.9139
21.9139
21.9139
21.9139
21.9139
21.9139
21.9139
21.9139
21.9139
21.9139
21.9139
21.9139
21.9139
21.9139
21.9139
21.9139
21.9139
21.9139
21.9139
21.9139
21.9139
21.9139
21.9139
21.9139
21.9139
21.9139
21.9139
21.9139
21.9139
21.9139
21.9139
21.9139
21.9139
21.9139
21.9139
21.9139
21.9139
21.9139
21.9139
21.9139
21.9139
21.9139
21.9139
21.9139
21.9139
21.9139
21.9139
21.9139
21.9139
21.9139
21.9139
21.9139
21.9139
21.9139
21.9139
21.9139
21.9139
21.9139
21.9139
21.9139
21.9139
21.9139
21.9139
21.9139
21.9139
21.9139
21.9139
21.9139
21.9139
21.9139
21.9139
21.9139
21.9139
21.9139
21.9139
21.9139
21.9139
21.9139
21.9139
21.9139
21.9139
21.9139
21.9139
21.9139
21.9139
21.9139
21.9139
21.9139
21.9139
21.9139
21.9139
21.9139
21.9139
21.9139
21.9139
21.9139
21.9139
21.9139
21.9139
21.9139
21.9139
21.9139
21.9139
21.9139
21.9139
21.9139
21.9139
21.9139
21.9139
21.9139
21.9139
21.9139
21.9139
21.9139
21.9139
21.9139
21.9139
21.9139
21.9139
21.9139
21.9139
21.9139
21.9139
21.9139
21.9139
21.9139
21.9139
21.9139
21.9139
21.9139
21.9139
21.9139
21.9139
21.9139
21.9139
21.9139
21.9139
21.9139
21.9139
21.9139
21.9139
21.9139
21.9139
21.9139
21.9139
21.9139
21.9139
21.9139
21.9139
21.9139
21.9139
21.9139
21.9139
21.9139
21.9139
21.9139
21.9139
21.9139
21.9139
21.9139
21.9139
21.9139
21.9139
21.9139
21.9139
21.9139
21.9139
21.9139
21.9139
21.9139
21.9139
21.9139
21.9139
21.9139
21.9139
21.9139
21.9139
21.9139
21.9139
21.9139
21.9139
21.9139
21.9139
21.9139
21.9139
21.9139
21.9139
21.9139
21.9139
21.9139
21.9139
21.9139
21.9139
21.9139
21.9139
21.9139
21.9139
21.9139
21.9139
21.9139
21.9139
21.9139
21.9139
21.9139
21.9139
21.9139
21.9139
21.9139
21.9139
21.9139
21.9139
21.9139
21.9139
21.9139
21.9139
21.9139
21.9139
21.9139
21.9139
21.9139
21.9139
21.9139
21.9139
21.9139
21.9139
21.9139
21.9139
21.9139
21.9139
21.9139
21.9139
21.9139
21.9139
21.9139
21.9139
21.9139
21.9139
21.9139
21.9139
21.9139
21.9139
21.9139
21.9139
21.9139
21.9139
21.9139
21.9139
21.9139
21.9139
21.9139
21.9139
21.9139
21.9139
21.9139
21.9139
21.9139
21.9139
21.9139
21.9139
21.9139
21.9139
21.9139
21.9139
21.9139
21.9139
21.9139
21.9139
21.9139
21.9139
21.9139
21.9139
21.9139
21.9139
21.9139
21.9139
21.9139
21.9139
21.9139
21.9139
21.9139
21.9139
21.9139
21.9139
21.9139
21.9139
21.9139
21.9139
21.9139
21.9139
21.9139
21.9139
21.9139
21.9139
21.9139
21.9139
21.9139
21.9139
21.9139
21.9139
21.9139
21.9139
21.9139
21.9139
21.9139
21.9139
21.9139
21.9139
21.9139
21.9139
21.9139
21.9139
21.9139
21.9139
21.9139
21.9139
21.9139
21.9139
21.9139
21.9139
21.9139
21.9139
21.9139
21.9139
21.9139
21.9139
21.9139
21.9139
21.9139
21.9139
21.9139
21.9139
21.9139
21.9139
21.9139
21.9139
21.9139
21.9139
21.9139
21.9139
21.9139
21.9139
21.9139
21.9139
21.9139
21.9139
21.9139
21.9139
21.9139
21.9139
21.9139
21.9139
21.9139
21.9139
21.9139
21.9139
21.9139
21.9139
21.9139
21.9139
21.9139
21.9139
21.9139
21.9139
21.9139
21.9139
21.9139
21.9139
21.9139
21.9139
21.9139
21.9139
21.9139
21.9139
21.9139
21.9139
21.9139
21.9139
21.9139
21.9139
21.9139
21.9139
21.9139
21.9139
21.9139
21.9139
21.9139
21.9139
21.9139
21.9139
21.9139
21.9139
21.9139
21.9139
21.9139
21.9139
21.9139
21.9139
21.9139
21.9139
21.9139
21.9139
21.9139
21.9139
21.9139
21.9139
21.9139
21.9139
21.9139
21.9139
21.9139
21.9139
21.9139
21.9139
21.9139
21.9139
21.9139
21.9139
21.9139
21.9139
21.9139
21.9139
21.9139
21.9139
21.9139
21.9139
21.9139
21.9139
21.9139
21.9139
21.9139
21.9139
21.9139
21.9139
21.9139
21.9139
21.9139
21.9139
21.9139
21.9139
21.9139
21.9139
21.9139
21.9139
21.9139
21.9139
21.9139
21.9139
21.9139
21.9139
21.9139
21.9139
21.9139
21.9139
21.9139
21.9139
21.9139
21.9139
21.9139
21.9139
21.9139
21.9139
21.9139
21.9139
21.9139
21.9139
21.9139
21.9139
21.9139
21.9139
21.9139
21.9139
21.9139
21.9139
21.9139
21.9139
21.9139
21.9139
21.9139
21.9139
21.9139
21.9139
21.9139
21.9139
21.9139
21.9139
21.9139
21.9139
21.9139
21.9139
21.9139
21.9139
21.9139
21.9139
21.9139
21.9139
21.9139
21.9139
21.9139
21.9139
21.9139
21.9139
21.9139
21.9139
21.9139
21.9139
21.9139
21.9139
21.9139
21.9139
21.9139
21.9139
21.9139
21.9139
21.9139
21.9139
21.9139
21.9139
21.9139
21.9139
21.9139
21.9139
21.9139
21.9139
21.9139
21.9139
21.9139
21.9139
21.9139
21.9139
21.9139
21.9139
21.9139
21.9139
21.9139
21.9139
21.9139
21.9139
21.9139
21.9139
21.9139
21.9139
21.9139
21.9139
21.9139
21.9139
21.9139
21.9139
21.9139
21.9139
21.9139
21.9139
21.9139
21.9139
21.9139
21.9139
21.9139
21.9139
21.9139
21.9139
21.9139
21.9139
21.9139
21.9139
21.9139
21.9139
21.9139
21.9139
21.9139
21.9139
21.9139
21.9139
21.9139
21.9139
21.9139
21.9139
21.9139
21.9139
21.9139
21.9139
21.9139
21.9139
21.9139
21.9139
21.9139
21.9139
21.9139
21.9139
21.9139
21.9139
21.9139
21.9139
21.9139
21.9139
21.9139
21.9139
21.9139
21.9139
21.9139
21.9139
21.9139
21.9139
21.9139
21.9139
21.9139
21.9139
21.9139
21.9139
21.9139
21.9139
21.9139
21.9139
21.9139
21.9139
21.9139
21.9139
21.9139
21.9139
21.9139
21.9139
21.9139
21.9139
21.9139
21.9139
21.9139
21.9139
21.9139
21.9139
21.9139
21.9139
21.9139
21.9139
21.9139
21.9139
21.9139
21.9139
21.9139
21.9139
21.9139
21.9139
21.9139
21.9139
21.9139
21.9139
21.9139
21.9139
21.9139
21.9139
21.9139
21.9139
21.9139
21.9139
21.9139
21.9139
21.9139
21.9139
21.9139
21.9139
21.9139
21.9139
21.9139
21.9139
21.9139
21.9139
21.9139
21.9139
21.9139
21.9139
21.9139
21.9139
21.9139
21.9139
21.9139
21.9139
21.9139
21.9139
21.9139
21.9139
21.9139
21.9139
21.9139
21.9139
21.9139
21.9139
21.9139
21.9139
21.9139
21.9139
21.9139
21.9139
21.9139
21.9139
21.9139
21.9139
21.914
21.914
21.914
21.914
21.9141
21.9141
21.9139
21.9139
21.9139
21.9139
21.9139
21.9139
21.9139
21.9139
21.9139
21.9139
21.9139
21.9139
21.9139
21.9139
21.9139
21.9139
21.9139
21.9139
21.9139
21.9139
21.9139
21.9139
21.9139
21.9139
21.9139
21.9139
21.9139
21.9139
21.9139
21.9139
21.9139
21.9139
21.9139
21.9139
21.9139
21.9139
21.9139
21.914
21.914
21.914
21.914
21.9141
21.9141
21.9142
21.9143
21.9144
21.9145
21.9147
21.9149
21.9153
21.9139
21.9139
21.9139
21.9139
21.9139
21.9139
21.9139
21.9139
21.9139
21.9139
21.9139
21.9139
21.9139
21.9139
21.9139
21.9139
21.9139
21.9139
21.9139
21.9139
21.9139
21.9139
21.9139
21.9139
21.9139
21.9139
21.9139
21.9139
21.9139
21.9139
21.914
21.914
21.914
21.914
21.9141
21.9141
21.9142
21.9142
21.9144
21.9145
21.9147
21.9149
21.9152
21.9156
21.9161
21.9168
21.9176
21.9187
21.9201
21.9221
21.9139
21.9139
21.9139
21.9139
21.9139
21.9139
21.9139
21.9139
21.9139
21.9139
21.9139
21.9139
21.9139
21.9139
21.9139
21.9139
21.9139
21.9139
21.9139
21.9139
21.9139
21.9139
21.9139
21.9139
21.914
21.914
21.914
21.914
21.9141
21.9141
21.9142
21.9143
21.9144
21.9146
21.9148
21.9151
21.9155
21.916
21.9166
21.9174
21.9185
21.9199
21.9217
21.924
21.927
21.9308
21.9357
21.9418
21.9498
21.9613
21.9139
21.9139
21.9139
21.9139
21.9139
21.9139
21.9139
21.9139
21.9139
21.9139
21.9139
21.9139
21.9139
21.9139
21.9139
21.9139
21.9139
21.9139
21.914
21.914
21.914
21.914
21.9141
21.9142
21.9142
21.9143
21.9145
21.9147
21.9149
21.9152
21.9157
21.9162
21.917
21.9179
21.9192
21.9209
21.923
21.9259
21.9295
21.9343
21.9405
21.9485
21.9587
21.9719
21.9888
22.0104
22.0378
22.0725
22.1169
22.18
21.9139
21.9139
21.9139
21.9139
21.9139
21.9139
21.9139
21.9139
21.9139
21.9139
21.9139
21.914
21.914
21.914
21.914
21.9141
21.9141
21.9142
21.9143
21.9144
21.9146
21.9148
21.915
21.9154
21.9159
21.9165
21.9173
21.9184
21.9198
21.9216
21.9241
21.9273
21.9314
21.9369
21.9441
21.9535
21.9656
21.9813
22.0018
22.0283
22.0625
22.1065
22.1629
22.2352
22.3272
22.4439
22.5913
22.7769
23.0114
23.334
21.9139
21.9139
21.9139
21.9139
21.914
21.914
21.914
21.914
21.9141
21.9141
21.9142
21.9143
21.9144
21.9145
21.9147
21.9149
21.9152
21.9156
21.9161
21.9168
21.9177
21.9189
21.9204
21.9224
21.9251
21.9286
21.9331
21.9392
21.947
21.9573
21.9708
21.9884
22.0114
22.0415
22.0809
22.1322
22.1988
22.2847
22.3955
22.5379
22.7204
22.9532
23.249
23.6228
24.0922
24.6776
25.402
26.2913
27.3832
28.7922
21.914
21.914
21.9141
21.9141
21.9142
21.9142
21.9143
21.9145
21.9146
21.9148
21.9151
21.9155
21.9159
21.9165
21.9173
21.9183
21.9196
21.9213
21.9235
21.9264
21.9301
21.9351
21.9416
21.9501
21.9613
21.9759
21.9949
22.0198
22.0523
22.0951
22.1511
22.224
22.3188
22.442
22.6023
22.8094
23.0746
23.4137
23.846
24.3945
25.0856
25.9494
27.0201
28.3349
29.9327
31.8518
34.1284
36.7943
39.881
43.433
47.6241
21.9145
21.9146
21.9148
21.9151
21.9154
21.9159
21.9164
21.9171
21.918
21.9192
21.9207
21.9226
21.9251
21.9284
21.9326
21.9381
21.9452
21.9545
21.9666
21.9825
22.0031
22.0299
22.0648
22.1102
22.1697
22.2476
22.3491
22.4811
22.6528
22.875
23.1605
23.5274
23.9981
24.5978
25.3604
26.3292
27.5442
29.0422
30.868
33.0711
35.7014
38.8073
42.433
46.6156
51.3834
56.7539
62.7311
69.3154
76.5064
84.3391
93.0233
21.9165
21.9172
21.9181
21.9192
21.9206
21.9224
21.9248
21.9278
21.9316
21.9365
21.9428
21.9509
21.9615
21.9751
21.9927
22.0155
22.045
22.0832
22.1325
22.1963
22.2792
22.3871
22.5276
22.7093
22.9442
23.2478
23.6368
24.1334
24.7651
25.569
26.5917
27.8763
29.4644
31.4076
33.7646
36.6112
39.9527
43.7848
48.184
53.2037
58.8637
65.166
72.1117
79.6941
87.8976
96.698
106.06
115.936
126.291
137.152
148.433
160.707
21.9281
21.9319
21.9366
21.9427
21.9504
21.9602
21.9727
21.9887
22.0093
22.0355
22.0692
22.1125
22.168
22.2392
22.3306
22.4479
22.5993
22.795
23.0468
23.3691
23.7819
24.3085
24.9741
25.8118
26.862
28.1804
29.827
31.8489
34.294
37.2382
40.6885
44.6522
49.2225
54.4541
60.3196
66.9607
74.587
83.2834
92.7409
102.825
113.556
125.001
137.229
150.259
164.093
178.728
194.143
210.156
226.76
244.032
261.822
281.099
21.9904
22.0102
22.0354
22.0673
22.1079
22.1594
22.225
22.3083
22.4139
22.5481
22.7186
22.9358
23.2138
23.568
24.0162
24.5818
25.2959
26.1889
27.2957
28.6612
30.3391
32.4047
34.9209
37.9252
41.4695
45.6239
50.2952
55.548
61.442
68.1585
75.8931
84.6964
94.2972
104.549
115.652
127.997
139.086
149.372
160.828
173.747
187.748
202.625
218.535
235.416
253.26
272.051
291.782
312.673
334.721
358.142
382.539
410.487
22.3137
22.4158
22.5446
22.7065
22.9096
23.1644
23.4848
23.8895
24.3982
25.032
25.8186
26.7952
27.9987
29.4622
31.2353
33.3663
35.9282
39.0062
42.643
46.8515
51.71
57.1847
63.1188
69.6632
76.9315
85.2166
94.7406
105.334
116.717
129.175
140.271
150.834
162.685
175.746
189.902
205.783
225.257
248.832
272.889
295.862
318.298
341.027
364.237
388.212
413.144
439.266
466.844
496.194
527.515
561.424
596.947
639.527
23.9082
24.391
24.9896
25.7312
26.6418
27.7515
29.1018
30.7305
32.6666
34.9627
37.6629
40.829
44.562
48.909
53.8582
59.4285
65.7395
72.4324
79.5767
87.3708
96.0492
105.941
117.311
129.544
142.847
156.226
167.348
178.5
191.65
207.269
226.508
249.715
273.424
296.311
321.538
344.419
359.389
374.889
395.872
422.334
452.546
485.318
520.377
557.899
598.112
641.149
687.007
735.6
786.498
839.873
893.035
953.385
30.734
32.5976
34.8019
37.3662
40.325
43.7177
47.6109
52.1189
57.2729
63.0278
69.3724
76.4701
83.9512
91.6571
99.9855
109.062
119.26
130.943
144.092
157.893
173.004
186.301
197.339
209.573
224.591
242.648
265.564
291.436
319.488
343.236
358.048
373.304
393.616
419.662
450.35
483.583
520.236
559.663
601.274
644.241
688.952
736.397
787.131
841.069
897.687
956.19
1015.6
1074.88
1132.74
1188.95
1240.1
1293.15
52.1166
56.831
62.1274
68.1182
74.7616
81.9776
89.9407
98.0829
106.309
115.179
124.773
135.385
147.435
161.269
175.772
191.179
207.072
219.415
230.757
244.614
261.715
282.74
308.837
337.522
367.646
387.808
402.265
420.797
446.733
477.952
514.168
553.213
593.959
636.769
681.115
726.517
774.669
827.196
884.491
945.178
1007.61
1070.54
1132.91
1193.72
1251.98
1306.72
1357.13
1402.53
1442.58
1477.71
1506.19
1532.71
105.87
115.165
124.268
133.615
143.63
154.769
167.481
182.036
197.209
212.908
229.861
243.568
254.962
268.208
284.632
304.331
329.119
357.794
389.281
418.305
435.889
452.705
476.026
506.235
541.101
580.168
623.393
668.365
712.58
758.315
808.156
863.868
924.999
988.445
1051.74
1114.74
1177.96
1240.89
1301.89
1359.26
1411.9
1459.1
1500.71
1536.56
1566.69
1591.27
1610.73
1625.38
1636.13
1642.76
1647.28
178.669
191.201
205.699
221.469
238.152
255.878
269.81
281.634
295.26
311.761
331.405
355.457
384.054
414.697
447.226
471.32
489.084
510.24
538.948
573.084
611.022
652.858
698.995
746.085
793.491
844.553
901.976
963.512
1025.97
1088.9
1153.16
1219.14
1285.14
1348.07
1406.11
1459.2
1507.56
1550.72
1588.25
1619.71
1645.32
1665.48
1680.72
1691.58
1698.62
1702.33
1703.27
1701.91
1698.84
1694.42
1689.08
281.259
299.06
313.688
328.009
344.572
364.293
388.584
417.262
447.447
479.467
507.097
527.481
548.807
576.575
611.083
648.827
689.261
733.978
782.685
832.411
884.054
940.729
1002.82
1066.44
1129.94
1194.75
1261.43
1327.24
1389.72
1448.13
1502.72
1553.27
1598.42
1637.08
1669.06
1695.26
1716.41
1732.72
1744.46
1752.06
1756.11
1757.23
1755.98
1752.85
1748.28
1742.67
1736.29
1729.21
1721.53
1713.32
1704.41
429.672
454.813
483.058
514.594
543.951
567.54
591.217
620.118
655.507
694.064
734.276
777.637
825.842
877.145
929.83
985.685
1046.89
1111.55
1176.02
1240.22
1305.69
1371.31
1433.98
1492.65
1547.89
1599.16
1644.55
1683.52
1716.43
1744.1
1766.8
1784.25
1796.52
1804.35
1808.72
1810.3
1809.47
1806.59
1802.12
1796.49
1790.04
1782.97
1775.2
1766.81
1757.8
1748.15
1737.87
1726.81
1715.3
1702.56
611.194
640.596
672.367
708.556
747.242
787.418
830.496
878.256
930.097
983.8
1039.67
1099.74
1164
1229.07
1292.93
1356.66
1421
1483.6
1542
1596.28
1646.88
1692.49
1731.95
1765.52
1794.07
1817.51
1835.38
1848.14
1856.75
1862
1864.28
1863.76
1860.85
1856.25
1850.6
1844.24
1837.15
1829.43
1821.02
1811.91
1802.1
1791.59
1780.38
1768.36
1755.53
1742.03
1728.11
1713.77
1699.63
1684.8
849.593
893.47
941.078
992.849
1047.11
1103.54
1163.32
1226.66
1291.21
1354.48
1416.67
1479.03
1540.46
1598.16
1651.1
1699.98
1744.89
1784.34
1817.78
1846.03
1869.58
1887.98
1901.35
1910.55
1916.35
1918.97
1918.58
1915.81
1911.45
1906.05
1899.84
1892.7
1884.72
1876.1
1866.89
1857.02
1846.54
1835.28
1823.15
1810.17
1796.43
1782.18
1767.66
1753.04
1738.32
1723.54
1708.81
1694.07
1679.43
1664.26
1178.83
1238.08
1299.88
1363
1425.3
1486.4
1546.96
1606.36
1662.37
1713.49
1760.25
1803.37
1841.87
1874.65
1902.02
1924.87
1943.28
1956.91
1966.19
1972.02
1974.85
1974.76
1972.24
1968.04
1962.71
1956.44
1949.18
1941.16
1932.53
1923.36
1913.5
1902.97
1891.58
1879.35
1866.34
1852.52
1838.31
1823.74
1808.94
1794.05
1779.07
1763.97
1748.76
1733.64
1718.65
1703.69
1688.67
1673.75
1659.18
1644.32
1565.97
1624.43
1681.1
1734.56
1783.42
1828.03
1868.84
1905.41
1936.72
1962.73
1984.29
2001.91
2015.26
2024.33
2029.84
2032.54
2032.6
2030.2
2025.96
2020.53
2014.24
2007
1999
1990.38
1981.12
1971.15
1960.54
1949.18
1937.05
1924.15
1910.43
1896.25
1881.62
1866.68
1851.68
1836.48
1821.13
1805.73
1790.24
1774.9
1759.64
1744.47
1729.33
1714.13
1699.01
1684.09
1669.24
1654.43
1639.93
1625.42
1902.23
1940.47
1974.5
2003.73
2028
2048.01
2064.27
2076.65
2085.04
2089.97
2092.2
2092.08
2089.66
2085.33
2079.75
2073.37
2066.15
2058.13
2049.41
2040.06
2029.98
2019.36
2008.07
1996.02
1983.18
1969.58
1955.41
1940.9
1926.12
1911.06
1895.81
1880.28
1864.56
1848.82
1833.2
1817.61
1802.08
1786.73
1771.39
1756.05
1740.72
1725.43
1710.3
1695.21
1680.16
1665.3
1650.72
1636.27
1622.02
1607.67
2114.83
2129.47
2140.49
2147.91
2152.1
2153.71
2153.12
2150.41
2145.9
2140.14
2133.61
2126.36
2118.31
2109.52
2100.07
2089.94
2079.25
2067.96
2055.95
2043.21
2029.7
2015.71
2001.36
1986.68
1971.73
1956.46
1940.79
1925.01
1909.22
1893.35
1877.57
1861.77
1846.05
1830.36
1814.77
1799.37
1783.81
1768.32
1752.91
1737.58
1722.27
1707.01
1691.92
1677.08
1662.37
1647.77
1633.33
1619
1604.85
1590.63
2214.83
2211.77
2207.09
2201.24
2194.62
2187.28
2179.19
2170.32
2160.77
2150.59
2139.88
2128.59
2116.62
2103.96
2090.6
2076.76
2062.57
2048.03
2033.19
2018.07
2002.47
1986.69
1970.84
1954.93
1939.01
1923.02
1907.07
1891.21
1875.32
1859.61
1843.91
1828.38
1812.67
1796.94
1781.37
1765.87
1750.37
1734.91
1719.62
1704.55
1689.6
1674.75
1660.03
1645.43
1630.94
1616.58
1602.32
1588.25
1574.16
2248.06
2240.01
2231.18
2221.64
2211.45
2200.76
2189.48
2177.56
2165
2151.79
2138.12
2124.13
2109.8
2095.13
2080.19
2064.8
2049.1
2033.27
2017.4
2001.49
1985.48
1969.41
1953.43
1937.39
1921.47
1905.57
1889.69
1873.97
1858.23
1842.37
1826.59
1810.86
1795.17
1779.47
1763.79
1748.34
1733.06
1717.89
1702.81
1687.85
1673.01
1658.26
1643.6
1629.06
1614.63
1600.34
1586.17
1572.18
1558.19
2260.96
2249.85
2238.11
2225.72
2212.71
2199.28
2185.53
2171.43
2157.02
2142.32
2127.18
2111.7
2096.06
2080.29
2064.5
2048.6
2032.59
2016.52
2000.48
1984.45
1968.46
1952.45
1936.55
1920.62
1904.84
1888.94
1872.93
1857.06
1841.25
1825.33
1809.51
1793.66
1778.07
1762.61
1747.2
1731.9
1716.72
1701.64
1686.65
1671.75
1656.94
1642.24
1627.64
1613.16
1598.8
1584.58
1570.48
1556.58
1542.69
2245.92
2232.22
2218.18
2203.82
2189
2173.84
2158.49
2143
2127.42
2111.73
2095.91
2079.99
2064
2048.04
2032.08
2016.07
2000.08
1984.13
1968.16
1952.3
1936.36
1920.31
1904.3
1888.33
1872.39
1856.36
1840.34
1824.46
1808.72
1793.08
1777.49
1762.01
1746.62
1731.32
1716.09
1700.95
1685.9
1670.95
1656.09
1641.33
1626.67
1612.13
1597.71
1583.41
1569.26
1555.23
1541.4
1527.59
2234.57
2219.69
2204.66
2189.47
2174.14
2158.65
2143.02
2127.27
2111.5
2095.71
2079.87
2063.99
2048.07
2032.17
2016.29
2000.38
1984.47
1968.41
1952.32
1936.31
1920.3
1904.16
1888.1
1871.97
1856.04
1840.23
1824.41
1808.68
1793.04
1777.47
1761.98
1746.55
1731.19
1715.91
1700.71
1685.6
1670.59
1655.67
1640.85
1626.14
1611.53
1597.04
1582.68
1568.43
1554.34
1540.37
1526.61
1512.88
2204.6
2189.34
2173.96
2158.52
2143.01
2127.41
2111.73
2096.03
2080.3
2064.53
2048.78
2032.91
2016.89
2000.89
1984.85
1968.84
1952.74
1936.55
1920.39
1904.35
1888.35
1872.44
1856.52
1840.67
1824.91
1809.2
1793.53
1777.93
1762.38
1746.9
1731.49
1716.16
1700.9
1685.73
1670.65
1655.68
1640.79
1626.02
1611.34
1596.79
1582.34
1568.02
1553.82
1539.79
1525.86
1512.17
1498.51
2189.23
2174.04
2158.74
2143.38
2127.96
2112.47
2096.95
2081.21
2065.37
2049.5
2033.62
2017.69
2001.6
1985.51
1969.35
1953.25
1937.28
1921.26
1905.24
1889.3
1873.38
1857.52
1841.7
1825.9
1810.15
1794.45
1778.8
1763.2
1747.67
1732.21
1716.82
1701.51
1686.28
1671.14
1656.1
1641.15
1626.3
1611.56
1596.92
1582.4
1567.98
1553.71
1539.54
1525.56
1511.68
1498.07
1484.49
2159.37
2144.19
2128.77
2113.26
2097.68
2082.07
2066.3
2050.4
2034.44
2018.42
2002.46
1986.5
1970.54
1954.55
1938.53
1922.6
1906.68
1890.74
1874.84
1858.96
1843.1
1827.28
1811.5
1795.75
1780.06
1764.42
1748.84
1733.33
1717.89
1702.53
1687.24
1672.04
1656.93
1641.91
1626.99
1612.16
1597.45
1582.83
1568.34
1553.95
1539.71
1525.58
1511.66
1497.83
1484.31
1470.81
2144.7
2129.48
2114.05
2098.48
2082.83
2067.07
2051.37
2035.63
2019.81
2003.92
1988.04
1972.15
1956.25
1940.35
1924.41
1908.48
1892.56
1876.65
1860.75
1844.88
1829.03
1813.21
1797.44
1781.71
1766.03
1750.41
1734.85
1719.36
1703.93
1688.59
1673.32
1658.14
1643.05
1628.05
1613.15
1598.34
1583.64
1569.04
1554.58
1540.21
1526.02
1511.92
1498.07
1484.3
1470.9
1457.5
2129.88
2114.63
2099.34
2083.94
2068.43
2052.81
2037.18
2021.52
2005.78
1989.99
1974.17
1958.31
1942.43
1926.53
1910.62
1894.7
1878.79
1862.88
1846.99
1831.12
1815.29
1799.49
1783.72
1768.01
1752.35
1736.74
1721.2
1705.72
1690.32
1674.98
1659.73
1644.56
1629.49
1614.5
1599.61
1584.81
1570.13
1555.55
1541.11
1526.77
1512.63
1498.57
1484.8
1471.11
1457.83
1444.56
2115.61
2100.48
2085.28
2069.98
2054.58
2039.08
2023.51
2007.87
1992.17
1976.41
1960.62
1944.78
1928.91
1913.03
1897.13
1881.22
1865.32
1849.43
1833.56
1817.7
1801.88
1786.09
1770.35
1754.65
1739
1723.4
1707.87
1692.4
1677.01
1661.69
1646.44
1631.28
1616.21
1601.23
1586.35
1571.56
1556.9
1542.33
1527.93
1513.62
1499.54
1485.53
1471.86
1458.25
1445.12
1432.01
2101.82
2086.81
2071.67
2056.43
2041.09
2025.65
2010.12
1994.51
1978.84
1963.11
1947.34
1931.53
1915.68
1899.82
1883.94
1868.05
1852.17
1836.3
1820.44
1804.6
1788.79
1773.02
1757.29
1741.59
1725.95
1710.37
1694.84
1679.38
1663.99
1648.67
1633.43
1618.27
1603.21
1588.23
1573.36
1558.58
1543.94
1529.39
1515.04
1500.75
1486.75
1472.8
1459.26
1445.74
1432.79
1419.84
2088.33
2073.39
2058.32
2043.13
2027.83
2012.44
1996.96
1981.4
1965.77
1950.07
1934.33
1918.55
1902.74
1886.9
1871.05
1855.19
1839.32
1823.47
1807.63
1791.8
1776.01
1760.24
1744.52
1728.83
1713.2
1697.62
1682.09
1666.63
1651.24
1635.92
1620.68
1605.52
1590.46
1575.49
1560.63
1545.87
1531.26
1516.73
1502.43
1488.19
1474.29
1460.4
1447.01
1433.59
1420.86
1408.05
2075.03
2060.16
2045.16
2030.04
2014.81
1999.47
1984.04
1968.53
1952.95
1937.3
1921.6
1905.86
1890.08
1874.27
1858.44
1842.6
1826.76
1810.92
1795.1
1779.29
1763.5
1747.74
1732.02
1716.34
1700.71
1685.13
1669.6
1654.14
1638.75
1623.43
1608.19
1593.03
1577.98
1563.01
1548.17
1533.42
1518.85
1504.35
1490.12
1475.93
1462.14
1448.34
1435.1
1421.82
1409.28
1396.69
2047.14
2032.22
2017.17
2002.01
1986.73
1971.37
1955.91
1940.38
1924.78
1909.13
1893.42
1877.68
1861.9
1846.1
1830.29
1814.46
1798.64
1782.83
1767.03
1751.25
1735.5
1719.78
1704.11
1688.47
1672.89
1657.36
1641.89
1626.5
1611.17
1595.94
1580.78
1565.74
1550.78
1535.97
1521.24
1506.72
1492.25
1478.12
1463.98
1450.33
1436.61
1423.55
1410.42
1398.09
1385.93
2034.32
2019.48
2004.51
1989.43
1974.23
1958.92
1943.53
1928.06
1912.51
1896.9
1881.23
1865.53
1849.78
1834.01
1818.22
1802.42
1786.61
1770.81
1755.02
1739.25
1723.5
1707.78
1692.11
1676.47
1660.88
1645.36
1629.88
1614.49
1599.16
1583.93
1568.78
1553.76
1538.81
1524.03
1509.33
1494.88
1480.45
1466.42
1452.34
1438.85
1425.22
1412.38
1399.4
1387.51
1375.71
2021.7
2006.95
1992.06
1977.05
1961.93
1946.7
1931.37
1915.95
1900.46
1884.89
1869.27
1853.6
1837.89
1822.15
1806.38
1790.6
1774.81
1759.02
1743.25
1727.48
1711.73
1696.02
1680.34
1664.7
1649.11
1633.58
1618.1
1602.71
1587.39
1572.17
1557.03
1542.02
1527.1
1512.37
1497.7
1483.32
1468.95
1455.03
1441.04
1427.69
1414.21
1401.55
1388.98
1377.44
1365.9
1994.6
1979.8
1964.87
1949.83
1934.67
1919.4
1904.05
1888.61
1873.1
1857.53
1841.9
1826.22
1810.51
1794.77
1779.01
1763.24
1747.46
1731.69
1715.93
1700.18
1684.47