/*--------------------------------*- C++ -*----------------------------------*\
| =========                 |                                                 |
| \\      /  F ield         | OpenFOAM: The Open Source CFD Toolbox           |
|  \\    /   O peration     | Version:  v1706                                 |
|   \\  /    A nd           | Web:      www.OpenFOAM.com                      |
|    \\/     M anipulation  |                                                 |
\*---------------------------------------------------------------------------*/
FoamFile
{
    version     2.0;
    format      ascii;
    class       volScalarField;
    location    "6e-06";
    object      Tov;
}
// * * * * * * * * * * * * * * * * * * * * * * * * * * * * * * * * * * * * * //

dimensions      [0 0 0 1 0 0 0];


internalField   nonuniform List<scalar> 
30038
(
144.4
144.4
144.4
144.4
144.4
144.4
144.4
144.4
144.4
144.4
144.4
144.4
144.4
144.4
144.4
144.4
144.4
144.4
144.4
144.4
144.4
144.4
144.4
144.4
144.4
144.4
144.4
144.4
144.4
144.4
144.4
144.4
144.4
144.4
144.4
144.4
144.4
144.4
144.4
144.4
144.4
144.4
144.4
144.4
144.4
144.4
144.4
144.4
144.4
144.4
144.4
144.4
144.4
144.4
144.4
144.4
144.4
144.4
144.4
144.4
144.4
144.4
144.4
144.4
144.4
144.4
144.4
144.4
144.4
144.4
144.4
144.4
144.4
144.4
144.4
144.4
144.4
144.4
144.4
144.4
144.4
144.4
144.4
144.4
144.4
144.4
144.4
144.4
144.4
144.4
144.4
144.4
144.4
144.4
144.4
144.4
144.4
144.4
144.4
144.4
144.4
144.4
144.4
144.4
144.4
144.4
144.4
144.4
144.4
144.4
144.4
144.4
144.4
144.4
144.4
144.4
144.4
144.4
144.4
144.4
144.4
144.4
144.4
144.4
144.4
144.4
144.4
144.4
144.4
144.4
144.4
144.4
144.4
144.4
144.4
144.4
144.4
144.4
144.4
144.4
144.4
144.4
144.4
144.4
144.4
144.4
144.4
144.4
144.4
144.4
144.4
144.4
144.4
144.4
144.4
144.4
144.4
144.4
144.4
144.4
144.4
144.4
144.4
144.4
144.4
144.4
144.4
144.4
144.4
144.4
144.4
144.4
144.4
144.4
144.4
144.4
144.4
144.4
144.4
144.4
144.4
144.4
144.4
144.4
144.4
144.4
144.4
144.4
144.4
144.4
144.4
144.4
144.4
144.4
144.4
144.4
144.4
144.4
144.4
144.4
144.4
144.4
144.4
144.4
144.4
144.4
144.4
144.4
144.4
144.4
144.4
144.4
144.4
144.4
144.4
144.4
144.4
144.4
144.4
144.4
144.4
144.4
144.4
144.4
144.4
144.4
144.4
144.4
144.4
144.4
144.4
144.4
144.4
144.4
144.4
144.4
144.4
144.4
144.4
144.4
144.4
144.4
144.4
144.4
144.4
144.4
144.4
144.4
144.4
144.4
144.4
144.4
144.4
144.4
144.4
144.4
144.4
144.4
144.4
144.4
144.4
144.4
144.4
144.4
144.4
144.4
144.4
144.4
144.4
144.4
144.4
144.4
144.4
144.4
144.4
144.4
144.4
144.4
144.4
144.4
144.4
144.4
144.4
144.4
144.4
144.4
144.4
144.4
144.4
144.4
144.4
144.4
144.4
144.4
144.4
144.4
144.4
144.4
144.4
144.4
144.4
144.4
144.4
144.4
144.4
144.4
144.4
144.4
144.4
144.4
144.4
144.4
144.4
144.4
144.4
144.4
144.4
144.4
144.4
144.4
144.4
144.4
144.4
144.4
144.4
144.4
144.4
144.4
144.4
144.4
144.4
144.4
144.4
144.4
144.4
144.4
144.4
144.4
144.4
144.4
144.4
144.4
144.4
144.4
144.4
144.4
144.4
144.4
144.4
144.4
144.4
144.4
144.4
144.4
144.4
144.4
144.4
144.4
144.4
144.4
144.4
144.4
144.4
144.4
144.4
144.4
144.4
144.4
144.4
144.4
144.4
144.4
144.4
144.4
144.4
144.4
144.4
144.4
144.4
144.4
144.4
144.4
144.4
144.4
144.4
144.4
144.4
144.4
144.4
144.4
144.4
144.4
144.4
144.4
144.4
144.4
144.4
144.4
144.4
144.4
144.4
144.4
144.4
144.4
144.4
144.4
144.4
144.4
144.4
144.4
144.4
144.4
144.4
144.4
144.4
144.4
144.4
144.4
144.4
144.4
144.4
144.4
144.4
144.4
144.4
144.4
144.4
144.4
144.4
144.4
144.4
144.4
144.4
144.4
144.4
144.4
144.4
144.4
144.4
144.4
144.4
144.4
144.4
144.4
144.4
144.4
144.4
144.4
144.4
144.4
144.4
144.4
144.4
144.4
144.4
144.4
144.4
144.4
144.4
144.4
144.4
144.4
144.4
144.4
144.4
144.4
144.4
144.4
144.4
144.4
144.4
144.4
144.4
144.4
144.4
144.4
144.4
144.4
144.4
144.4
144.4
144.4
144.4
144.4
144.4
144.4
144.4
144.4
144.4
144.4
144.4
144.4
144.4
144.4
144.4
144.4
144.4
144.4
144.4
144.4
144.4
144.4
144.4
144.4
144.4
144.4
144.4
144.4
144.4
144.4
144.4
144.4
144.4
144.4
144.4
144.4
144.4
144.4
144.4
144.4
144.4
144.4
144.4
144.4
144.4
144.4
144.4
144.4
144.4
144.4
144.4
144.4
144.4
144.4
144.4
144.4
144.4
144.4
144.4
144.4
144.4
144.4
144.4
144.4
144.4
144.4
144.4
144.4
144.4
144.4
144.4
144.4
144.4
144.4
144.4
144.4
144.4
144.4
144.4
144.4
144.4
144.4
144.4
144.4
144.4
144.4
144.4
144.4
144.4
144.4
144.4
144.4
144.4
144.4
144.4
144.4
144.4
144.4
144.4
144.4
144.4
144.4
144.4
144.4
144.4
144.4
144.4
144.4
144.4
144.4
144.4
144.4
144.4
144.4
144.4
144.4
144.4
144.4
144.4
144.4
144.4
144.4
144.4
144.4
144.4
144.4
144.4
144.4
144.4
144.4
144.4
144.4
144.4
144.4
144.4
144.4
144.4
144.4
144.4
144.4
144.4
144.4
144.4
144.4
144.4
144.4
144.4
144.4
144.4
144.4
144.4
144.4
144.4
144.4
144.4
144.4
144.4
144.4
144.4
144.4
144.4
144.4
144.4
144.4
144.4
144.4
144.4
144.4
144.4
144.4
144.4
144.4
144.4
144.4
144.4
144.4
144.4
144.4
144.4
144.4
144.4
144.4
144.4
144.4
144.4
144.4
144.4
144.4
144.4
144.4
144.4
144.4
144.4
144.4
144.4
144.4
144.4
144.4
144.4
144.4
144.4
144.4
144.4
144.4
144.4
144.4
144.4
144.4
144.4
144.4
144.4
144.4
144.4
144.4
144.4
144.4
144.4
144.4
144.4
144.4
144.4
144.4
144.4
144.4
144.4
144.4
144.4
144.4
144.4
144.4
144.4
144.4
144.4
144.4
144.4
144.4
144.4
144.4
144.4
144.4
144.4
144.4
144.4
144.4
144.4
144.4
144.4
144.4
144.4
144.4
144.4
144.4
144.4
144.4
144.4
144.4
144.4
144.4
144.4
144.4
144.4
144.4
144.4
144.4
144.4
144.4
144.4
144.4
144.4
144.4
144.4
144.4
144.4
144.4
144.4
144.4
144.4
144.4
144.4
144.4
144.4
144.4
144.4
144.4
144.4
144.4
144.4
144.4
144.4
144.4
144.4
144.4
144.4
144.4
144.4
144.4
144.4
144.4
144.4
144.4
144.4
144.4
144.4
144.4
144.4
144.4
144.4
144.4
144.4
144.4
144.4
144.4
144.4
144.4
144.4
144.4
144.4
144.4
144.4
144.4
144.4
144.4
144.4
144.4
144.4
144.4
144.4
144.4
144.4
144.4
144.4
144.4
144.4
144.4
144.4
144.4
144.4
144.4
144.4
144.4
144.4
144.4
144.4
144.4
144.4
144.4
144.4
144.4
144.4
144.4
144.4
144.4
144.4
144.4
144.4
144.4
144.4
144.4
144.4
144.4
144.4
144.4
144.4
144.4
144.4
144.4
144.4
144.4
144.4
144.4
144.4
144.4
144.4
144.4
144.4
144.4
144.4
144.4
144.4
144.4
144.4
144.4
144.4
144.4
144.4
144.4
144.4
144.4
144.4
144.4
144.4
144.4
144.4
144.4
144.4
144.4
144.4
144.4
144.4
144.4
144.4
144.4
144.4
144.4
144.4
144.4
144.4
144.4
144.4
144.4
144.4
144.4
144.4
144.4
144.4
144.4
144.4
144.4
144.4
144.4
144.4
144.4
144.4
144.4
144.4
144.4
144.4
144.4
144.4
144.4
144.4
144.4
144.4
144.4
144.4
144.4
144.4
144.4
144.4
144.4
144.4
144.4
144.4
144.4
144.4
144.4
144.4
144.4
144.4
144.4
144.4
144.4
144.4
144.4
144.4
144.4
144.4
144.4
144.4
144.4
144.4
144.4
144.4
144.4
144.4
144.4
144.4
144.4
144.4
144.4
144.4
144.4
144.4
144.4
144.4
144.4
144.4
144.4
144.4
144.4
144.4
144.4
144.4
144.4
144.4
144.4
144.4
144.4
144.4
144.4
144.4
144.4
144.4
144.4
144.4
144.4
144.4
144.4
144.4
144.4
144.4
144.4
144.4
144.4
144.4
144.4
144.4
144.4
144.4
144.4
144.4
144.4
144.4
144.4
144.4
144.4
144.4
144.4
144.4
144.4
144.4
144.4
144.4
144.4
144.4
144.4
144.4
144.4
144.4
144.4
144.4
144.4
144.4
144.4
144.4
144.4
144.4
144.4
144.4
144.4
144.4
144.4
144.4
144.4
144.4
144.4
144.4
144.4
144.4
144.4
144.4
144.4
144.4
144.4
144.4
144.4
144.4
144.4
144.4
144.4
144.4
144.4
144.4
144.4
144.4
144.4
144.4
144.4
144.4
144.4
144.4
144.4
144.4
144.4
144.4
144.4
144.4
144.4
144.4
144.4
144.4
144.4
144.4
144.4
144.4
144.4
144.4
144.4
144.4
144.4
144.4
144.4
144.4
144.4
144.4
144.4
144.4
144.4
144.4
144.4
144.4
144.4
144.4
144.4
144.4
144.4
144.4
144.4
144.4
144.4
144.4
144.4
144.4
144.4
144.4
144.4
144.4
144.4
144.4
144.4
144.4
144.4
144.4
144.4
144.4
144.4
144.4
144.4
144.4
144.4
144.4
144.4
144.4
144.4
144.4
144.4
144.4
144.4
144.4
144.4
144.4
144.4
144.4
144.4
144.4
144.4
144.4
144.4
144.4
144.4
144.4
144.4
144.4
144.4
144.4
144.4
144.4
144.4
144.4
144.4
144.4
144.4
144.4
144.4
144.4
144.4
144.4
144.4
144.4
144.4
144.4
144.4
144.4
144.4
144.4
144.4
144.4
144.4
144.4
144.4
144.4
144.4
144.4
144.4
144.4
144.4
144.4
144.4
144.4
144.4
144.4
144.4
144.4
144.4
144.4
144.4
144.4
144.4
144.4
144.4
144.4
144.4
144.4
144.4
144.4
144.4
144.4
144.4
144.4
144.4
144.4
144.4
144.4
144.4
144.4
144.4
144.4
144.4
144.4
144.4
144.4
144.4
144.4
144.4
144.4
144.4
144.4
144.4
144.4
144.4
144.4
144.4
144.4
144.4
144.4
144.4
144.4
144.4
144.4
144.4
144.4
144.4
144.4
144.4
144.4
144.4
144.4
144.4
144.4
144.4
144.4
144.4
144.4
144.4
144.4
144.4
144.4
144.4
144.4
144.4
144.4
144.4
144.4
144.4
144.4
144.4
144.4
144.4
144.4
144.4
144.4
144.4
144.4
144.4
144.4
144.4
144.4
144.4
144.4
144.4
144.4
144.4
144.4
144.4
144.4
144.4
144.4
144.4
144.4
144.4
144.4
144.4
144.4
144.4
144.4
144.4
144.4
144.4
144.4
144.4
144.4
144.4
144.4
144.4
144.4
144.4
144.4
144.4
144.4
144.4
144.4
144.4
144.4
144.4
144.4
144.4
144.4
144.4
144.4
144.4
144.4
144.4
144.4
144.4
144.4
144.4
144.4
144.4
144.4
144.4
144.4
144.4
144.4
144.4
144.4
144.4
144.4
144.4
144.4
144.4
144.4
144.4
144.4
144.4
144.4
144.4
144.4
144.4
144.4
144.4
144.4
144.4
144.4
144.4
144.4
144.4
144.4
144.4
144.4
144.4
144.4
144.4
144.4
144.4
144.4
144.4
144.4
144.4
144.4
144.4
144.4
144.4
144.4
144.4
144.4
144.4
144.4
144.4
144.4
144.4
144.4
144.4
144.4
144.4
144.4
144.4
144.4
144.4
144.4
144.4
144.4
144.4
144.4
144.4
144.4
144.4
144.4
144.4
144.4
144.4
144.4
144.4
144.4
144.4
144.4
144.4
144.4
144.4
144.4
144.4
144.4
144.4
144.4
144.4
144.4
144.4
144.4
144.4
144.4
144.4
144.4
144.4
144.4
144.4
144.4
144.4
144.4
144.4
144.4
144.4
144.4
144.4
144.4
144.4
144.4
144.4
144.4
144.4
144.4
144.4
144.4
144.4
144.4
144.4
144.4
144.4
144.4
144.4
144.4
144.4
144.4
144.4
144.4
144.4
144.4
144.4
144.4
144.4
144.4
144.4
144.4
144.4
144.4
144.4
144.4
144.4
144.4
144.4
144.4
144.4
144.4
144.4
144.4
144.4
144.4
144.4
144.4
144.4
144.4
144.4
144.4
144.4
144.4
144.4
144.4
144.4
144.4
144.4
144.4
144.4
144.4
144.4
144.4
144.4
144.4
144.4
144.4
144.4
144.4
144.4
144.4
144.4
144.4
144.4
144.4
144.4
144.4
144.4
144.4
144.4
144.4
144.4
144.4
144.4
144.4
144.4
144.4
144.4
144.4
144.4
144.4
144.4
144.4
144.4
144.4
144.4
144.4
144.4
144.4
144.4
144.4
144.4
144.4
144.4
144.4
144.4
144.4
144.4
144.4
144.4
144.4
144.4
144.4
144.4
144.4
144.4
144.4
144.4
144.4
144.4
144.4
144.4
144.4
144.4
144.4
144.4
144.4
144.4
144.4
144.4
144.4
144.4
144.4
144.4
144.4
144.4
144.4
144.4
144.4
144.4
144.4
144.4
144.4
144.4
144.4
144.4
144.4
144.4
144.4
144.4
144.4
144.4
144.4
144.4
144.4
144.4
144.4
144.4
144.4
144.4
144.4
144.4
144.4
144.4
144.4
144.4
144.4
144.4
144.4
144.4
144.4
144.4
144.4
144.4
144.4
144.4
144.4
144.4
144.401
144.401
144.401
144.401
144.4
144.4
144.4
144.4
144.4
144.4
144.4
144.4
144.4
144.4
144.4
144.4
144.4
144.4
144.4
144.4
144.4
144.4
144.4
144.4
144.4
144.4
144.4
144.4
144.4
144.4
144.4
144.4
144.4
144.4
144.4
144.4
144.4
144.4
144.4
144.4
144.4
144.4
144.4
144.401
144.401
144.401
144.401
144.402
144.402
144.403
144.404
144.405
144.407
144.409
144.4
144.4
144.4
144.4
144.4
144.4
144.4
144.4
144.4
144.4
144.4
144.4
144.4
144.4
144.4
144.4
144.4
144.4
144.4
144.4
144.4
144.4
144.4
144.4
144.4
144.4
144.4
144.4
144.4
144.4
144.4
144.4
144.401
144.401
144.401
144.401
144.402
144.402
144.403
144.404
144.405
144.406
144.408
144.411
144.414
144.418
144.424
144.431
144.439
144.452
144.4
144.4
144.4
144.4
144.4
144.4
144.4
144.4
144.4
144.4
144.4
144.4
144.4
144.4
144.4
144.4
144.4
144.4
144.4
144.4
144.4
144.4
144.4
144.4
144.4
144.4
144.401
144.401
144.401
144.401
144.402
144.403
144.403
144.404
144.406
144.408
144.41
144.413
144.417
144.422
144.429
144.438
144.45
144.464
144.483
144.508
144.539
144.578
144.629
144.702
144.4
144.4
144.4
144.4
144.4
144.4
144.4
144.4
144.4
144.4
144.4
144.4
144.4
144.4
144.4
144.4
144.4
144.4
144.4
144.401
144.401
144.401
144.401
144.402
144.402
144.403
144.404
144.405
144.406
144.409
144.411
144.415
144.42
144.426
144.434
144.444
144.458
144.476
144.499
144.53
144.569
144.62
144.685
144.769
144.877
145.014
145.188
145.409
145.692
146.094
144.4
144.4
144.4
144.4
144.4
144.4
144.4
144.4
144.4
144.4
144.4
144.4
144.4
144.401
144.401
144.401
144.401
144.402
144.402
144.403
144.404
144.406
144.407
144.41
144.413
144.416
144.422
144.428
144.437
144.449
144.465
144.485
144.512
144.547
144.592
144.652
144.73
144.83
144.961
145.13
145.349
145.63
145.991
146.452
147.04
147.786
148.729
149.914
151.413
153.469
144.4
144.4
144.4
144.4
144.4
144.4
144.401
144.401
144.401
144.401
144.402
144.402
144.403
144.404
144.405
144.406
144.408
144.411
144.414
144.418
144.424
144.432
144.441
144.454
144.471
144.493
144.523
144.561
144.611
144.677
144.763
144.876
145.023
145.215
145.467
145.794
146.218
146.765
147.471
148.378
149.54
151.022
152.904
155.28
158.26
161.971
166.553
172.164
179.035
187.848
144.401
144.401
144.401
144.401
144.402
144.402
144.403
144.404
144.405
144.406
144.408
144.41
144.413
144.417
144.421
144.428
144.436
144.447
144.461
144.48
144.504
144.535
144.577
144.631
144.702
144.795
144.917
145.077
145.285
145.559
145.916
146.38
146.984
147.77
148.79
150.111
151.811
153.984
156.748
160.248
164.648
170.138
176.928
185.24
195.304
207.339
221.537
238.056
257.03
278.703
303.856
144.404
144.405
144.406
144.408
144.41
144.412
144.416
144.42
144.426
144.434
144.443
144.456
144.472
144.492
144.519
144.554
144.6
144.66
144.737
144.838
144.969
145.141
145.365
145.656
146.037
146.534
147.182
148.023
149.116
150.535
152.365
154.716
157.724
161.556
166.418
172.549
180.187
189.565
200.944
214.597
230.783
249.725
271.598
296.505
324.469
355.42
389.188
425.557
464.307
505.463
549.272
144.417
144.421
144.427
144.434
144.443
144.454
144.469
144.488
144.513
144.544
144.585
144.637
144.704
144.791
144.904
145.049
145.237
145.482
145.798
146.208
146.74
147.431
148.327
149.486
150.982
152.915
155.402
158.583
162.629
167.759
174.232
182.311
192.258
204.372
218.965
236.397
256.912
280.619
307.523
337.646
370.983
407.453
446.916
489.144
533.837
580.641
629.157
678.914
729.577
780.913
832.945
885.857
144.491
144.515
144.545
144.584
144.634
144.696
144.776
144.879
145.01
145.178
145.393
145.67
146.025
146.482
147.069
147.823
148.793
150.044
151.65
153.704
156.33
159.682
163.937
169.294
175.996
184.35
194.677
207.265
222.382
240.393
261.575
286.079
313.97
345.291
379.988
418.279
460.303
505.805
553.638
603.361
654.912
708.177
762.999
819.024
875.864
933.14
990.423
1047.15
1103.24
1158.62
1213.37
1267.43
144.89
145.017
145.178
145.383
145.643
145.972
146.391
146.925
147.603
148.465
149.56
150.954
152.732
154.99
157.845
161.442
165.973
171.655
178.717
187.408
198.038
210.974
226.542
244.955
266.442
291.345
319.741
351.626
386.838
425.654
468.281
514.519
563.334
614.273
667.222
722.483
779.141
835.893
893.186
951.224
1009.77
1068.75
1128.02
1187.02
1245.34
1302.67
1358.8
1413.61
1466.87
1518.44
1568.36
1616.64
146.964
147.618
148.442
149.48
150.785
152.421
154.478
157.064
160.304
164.336
169.33
175.51
183.129
192.434
203.671
217.109
233.114
252.032
274.07
299.279
327.867
360.013
395.584
434.364
476.225
521.651
570.737
622.712
676.298
731.944
788.985
846.495
904.965
964.233
1024.07
1085.11
1149.2
1215.01
1278.21
1338.85
1397.84
1455.41
1511.39
1565.67
1618.09
1668.46
1716.62
1762.36
1805.46
1845.82
1883.34
1918.36
157.183
160.278
164.107
168.828
174.605
181.625
190.129
200.39
212.642
227.101
243.988
263.612
286.323
312.285
341.417
373.694
409.4
448.318
490.22
534.771
582.167
632.924
687.055
742.853
799.74
858.25
917.2
975.977
1035.62
1096.87
1161.34
1227.73
1291.96
1353.87
1414.78
1474.34
1531.18
1585.64
1639.75
1693.08
1744.9
1794.69
1842.09
1886.83
1928.61
1967.18
2002.3
2033.81
2061.58
2085.69
2106.13
2123.63
200.559
212.236
225.977
241.995
260.45
281.472
305.301
332.259
362.415
395.53
431.477
470.477
512.429
556.934
603.724
652.656
704.385
759.284
816.666
874.474
933.259
993.029
1052.22
1111.32
1171.49
1233.6
1299.51
1365.04
1428.01
1488.62
1546.33
1601.71
1656.91
1711.73
1765.47
1818.04
1870.15
1919.64
1965.59
2007.44
2045.5
2080.08
2111.21
2138.77
2162.71
2183.05
2199.83
2213.15
2223.26
2230.47
2234.83
2237
332.228
360.687
392.03
426.397
463.548
503.137
545.301
589.907
636.53
685.007
735.19
787.533
842.74
900.612
958.861
1017.19
1076.65
1136.05
1194.17
1252.74
1312.57
1375.13
1440.53
1503.93
1564.79
1622.43
1677.04
1730.5
1784.03
1837.54
1891.46
1943.01
1991.07
2035.41
2076.59
2114.29
2148.8
2180.3
2208.47
2232.82
2253.28
2270.11
2283.52
2293.78
2301.16
2305.87
2308.16
2307.95
2305.95
2302.17
2296.64
2289.72
634.07
681.202
729.753
779.593
830.704
883.563
939.051
996.854
1054.71
1112.26
1170.6
1229.12
1286.17
1343.04
1400.61
1459.68
1522.3
1585.1
1645.37
1702.92
1756.99
1808.56
1859.77
1910.72
1961.91
2012.2
2059.88
2104.27
2144.51
2181.4
2215.48
2246.54
2274.17
2298.25
2318.73
2335.94
2350.06
2361.02
2368.89
2373.87
2376.35
2376.48
2374.82
2371.5
2366.6
2360.27
2352.58
2343.69
2333.73
2322.66
2310.55
992.814
1047.38
1104.09
1161.52
1218.63
1275.92
1332.78
1388.11
1443.23
1498.77
1555.29
1614.61
1675.29
1733.73
1789.77
1842.76
1892.77
1941.39
1989.67
2037.49
2085.26
2131.09
2174.26
2213.92
2249.69
2282.44
2312.67
2339.89
2363.52
2383.77
2400.82
2414.71
2425.42
2433.2
2438.36
2441.32
2442.34
2441.34
2438.76
2434.44
2428.65
2421.58
2413.37
2404.17
2394.02
2382.97
2371
2358.17
2344.56
2330.31
2315.32
1389.72
1445.89
1500.36
1553.84
1607.28
1661.52
1718.34
1776.07
1831.7
1885.05
1935.98
1983.87
2030
2075.58
2120.49
2164.81
2207.95
2248.86
2287.02
2321.54
2352.69
2381.15
2407.07
2429.81
2449.17
2465.54
2479.19
2489.82
2497.58
2502.83
2505.92
2507.03
2506.12
2503.7
2499.72
2494.49
2488.21
2480.85
2472.49
2463.14
2452.87
2441.81
2429.93
2417.34
2404.08
2390.22
2375.83
2360.78
2345
2328.42
2310.94
1831.28
1884.27
1936.68
1987.68
2036.39
2082.04
2125.82
2168.84
2211.01
2252.21
2292.17
2330.15
2365.71
2398.35
2427.56
2453.92
2477.88
2499.27
2517.46
2532.63
2545.21
2555.28
2562.68
2567.61
2570.54
2571.72
2570.91
2568.65
2564.88
2559.92
2553.91
2546.84
2538.86
2530.02
2520.43
2510.18
2499.27
2487.66
2475.36
2462.42
2448.87
2434.88
2420.33
2405.15
2389.27
2372.68
2355.36
2337.23
2318.23
2298.14
2185.49
2227.91
2268.75
2308.3
2346.54
2383.29
2418.16
2450.74
2480.72
2507.62
2531.7
2553.41
2572.8
2589.48
2603.19
2614.3
2623.23
2629.95
2634.31
2636.65
2637.33
2636.38
2634.02
2630.21
2625.3
2619.48
2612.64
2604.92
2596.42
2587.23
2577.4
2566.94
2555.89
2544.28
2532.16
2519.53
2506.38
2492.81
2478.71
2463.99
2448.64
2432.59
2415.85
2398.41
2380.22
2361.27
2341.59
2321.17
2300
2277.76
2479.14
2510.57
2540.03
2567.35
2591.96
2613.86
2633.35
2650.57
2665.34
2677.37
2686.88
2694.35
2699.91
2703.43
2705
2704.84
2703.46
2700.78
2696.73
2691.58
2685.57
2678.72
2671.06
2662.66
2653.68
2644.15
2634.04
2623.37
2612.22
2600.63
2588.57
2576.07
2563.07
2549.67
2535.85
2521.53
2506.61
2491.04
2474.85
2458.02
2440.55
2422.42
2403.66
2384.25
2364.14
2343.32
2321.74
2299.39
2276.25
2252.11
2698.72
2715.93
2730.97
2743.83
2754.16
2762.17
2768.2
2772.45
2774.92
2775.54
2774.57
2772.49
2769.22
2764.76
2759.24
2752.87
2745.8
2738.04
2729.59
2720.54
2711.03
2701.02
2690.53
2679.62
2668.36
2656.74
2644.7
2632.23
2619.31
2606.03
2592.38
2578.24
2563.54
2548.29
2532.53
2516.25
2499.48
2482.1
2464.12
2445.55
2426.33
2406.46
2385.91
2364.73
2342.85
2320.25
2296.92
2272.84
2247.95
2222
2838.81
2843.39
2846.35
2847.77
2847.42
2845.8
2842.97
2839.08
2834.15
2828.21
2821.44
2814.05
2806.05
2797.43
2788.23
2778.58
2768.53
2758.07
2747.22
2736.04
2724.58
2712.79
2700.64
2688.1
2675.2
2662
2648.41
2634.37
2619.85
2604.86
2589.43
2573.6
2557.3
2540.47
2523.11
2505.21
2486.78
2467.78
2448.17
2427.97
2407.1
2385.61
2363.43
2340.59
2317.07
2292.83
2267.83
2242.07
2215.52
2187.96
2917.52
2913.94
2909.41
2904.02
2897.71
2890.66
2883
2874.76
2865.97
2856.63
2846.83
2836.65
2826.14
2815.27
2804.09
2792.65
2780.96
2768.95
2756.61
2743.95
2730.96
2717.68
2704.07
2690.07
2675.67
2660.9
2645.77
2630.26
2614.32
2597.91
2581.02
2563.68
2545.86
2527.55
2508.71
2489.32
2469.36
2448.82
2427.65
2405.89
2383.5
2360.47
2336.77
2312.36
2287.26
2261.47
2234.95
2207.69
2179.69
2150.73
2959.85
2951.88
2943.42
2934.47
2925.04
2915.19
2904.97
2894.43
2883.56
2872.39
2860.95
2849.28
2837.37
2825.13
2812.61
2799.78
2786.64
2773.27
2759.59
2745.58
2731.23
2716.58
2701.63
2686.33
2670.67
2654.59
2638.09
2621.2
2603.9
2586.14
2567.91
2549.18
2529.95
2510.19
2489.9
2469.05
2447.63
2425.66
2403.07
2379.85
2355.99
2331.47
2306.31
2280.47
2253.96
2226.78
2198.93
2170.4
2141.2
2111.12
2972.85
2962.29
2951.46
2940.36
2929
2917.41
2905.6
2893.48
2881.08
2868.39
2855.42
2842.19
2828.72
2814.97
2800.93
2786.61
2772.03
2757.17
2742
2726.51
2710.65
2694.46
2677.92
2661.02
2643.72
2625.98
2607.8
2589.18
2570.09
2550.52
2530.45
2509.86
2488.74
2467.09
2444.9
2422.12
2398.74
2374.77
2350.17
2324.96
2299.1
2272.62
2245.51
2217.78
2189.43
2160.49
2130.96
2100.85
2069.96
2984.82
2973.11
2961.13
2948.89
2936.38
2923.61
2910.57
2897.32
2883.81
2870.02
2855.99
2841.7
2827.17
2812.37
2797.3
2781.94
2766.26
2750.28
2734.01
2717.4
2700.42
2683.07
2665.36
2647.24
2628.72
2609.75
2590.32
2570.44
2550.07
2529.23
2507.9
2486.04
2463.65
2440.69
2417.18
2393.11
2368.45
2343.2
2317.36
2290.92
2263.9
2236.3
2208.13
2179.4
2150.15
2120.38
2090.13
2059.42
2028.06
2990.77
2977.94
2964.93
2951.67
2938.17
2924.43
2910.44
2896.23
2881.78
2867.07
2852.1
2836.86
2821.34
2805.55
2789.48
2773.1
2756.39
2739.36
2722
2704.29
2686.21
2667.73
2648.86
2629.58
2609.87
2589.72
2569.11
2548.05
2526.49
2504.43
2481.88
2458.79
2435.18
2411.02
2386.31
2361.05
2335.24
2308.87
2281.95
2254.49
2226.5
2197.99
2168.99
2139.53
2109.63
2079.33
2048.67
2017.67
1986.21
2977.87
2963.99
2949.88
2935.53
2920.96
2906.14
2891.04
2875.69
2860.09
2844.21
2828.04
2811.59
2794.83
2777.78
2760.4
2742.68
2724.62
2706.21
2687.42
2668.26
2648.69
2628.73
2608.35
2587.53
2566.26
2544.51
2522.3
2499.61
2476.41
2452.71
2428.49
2403.76
2378.51
2352.74
2326.45
2299.64
2272.34
2244.53
2216.25
2187.51
2158.34
2128.76
2098.82
2068.56
2038.03
2007.27
1976.34
1945.1
2973.77
2959.09
2944.18
2929.03
2913.63
2897.97
2882.04
2865.83
2849.35
2832.58
2815.51
2798.13
2780.43
2762.41
2744.06
2725.36
2706.3
2686.87
2667.08
2646.9
2626.3
2605.28
2583.84
2561.94
2539.61
2516.8
2493.51
2469.76
2445.51
2420.78
2395.56
2369.85
2343.65
2316.98
2289.83
2262.22
2234.17
2205.69
2176.81
2147.55
2117.96
2088.07
2057.94
2027.61
1997.14
1966.61
1936.06
1905.38
2950.49
2934.81
2918.88
2902.68
2886.2
2869.44
2852.39
2835.05
2817.4
2799.44
2781.16
2762.55
2743.61
2724.34
2704.7
2684.7
2664.31
2643.53
2622.36
2600.77
2578.76
2556.32
2533.43
2510.1
2486.31
2462.06
2437.35
2412.18
2386.55
2360.47
2333.93
2306.95
2279.55
2251.73
2223.51
2194.92
2165.98
2136.74
2107.21
2077.46
2047.53
2017.48
1987.36
1957.26
1927.25
1897.39
1867.59
2938.4
2921.96
2905.25
2888.26
2870.99
2853.42
2835.55
2817.37
2798.89
2780.09
2760.96
2741.48
2721.65
2701.48
2680.94
2660.02
2638.72
2617.01
2594.91
2572.4
2549.46
2526.11
2502.32
2478.09
2453.44
2428.34
2402.82
2376.86
2350.48
2323.69
2296.49
2268.91
2240.96
2212.66
2184.04
2155.13
2125.97
2096.59
2067.05
2037.39
2007.68
1977.98
1948.36
1918.91
1889.7
1860.81
1832.16
2905.79
2888.33
2870.58
2852.55
2834.21
2815.56
2796.59
2777.29
2757.67
2737.71
2717.4
2696.73
2675.7
2654.3
2632.52
2610.37
2587.81
2564.86
2541.51
2517.75
2493.58
2469
2444.01
2418.6
2392.8
2366.59
2339.99
2313.02
2285.69
2258.01
2230
2201.7
2173.13
2144.32
2115.31
2086.15
2056.88
2027.56
1998.25
1969.02
1939.93
1911.07
1882.52
1854.36
1826.67
1799.4
2886.52
2868.35
2849.87
2831.09
2812
2792.59
2772.86
2752.79
2732.38
2711.63
2690.54
2669.08
2647.27
2625.08
2602.52
2579.59
2556.27
2532.56
2508.47
2483.99
2459.12
2433.87
2408.23
2382.22
2355.84
2329.1
2302.03
2274.63
2246.92
2218.94
2190.7
2162.25
2133.61
2104.82
2075.94
2047
2018.07
1989.21
1960.48
1931.96
1903.72
1875.83
1848.41
1821.51
1795.23
1769.51
2864.32
2845.46
2826.28
2806.79
2786.98
2766.85
2746.4
2725.61
2704.47
2683
2661.18
2639
2616.47
2593.58
2570.33
2546.71
2522.72
2498.37
2473.65
2448.56
2423.11
2397.31
2371.17
2344.69
2317.88
2290.78
2263.38
2235.72
2207.83
2179.73
2151.45
2123.04
2094.54
2065.98
2037.43
2008.94
1980.57
1952.38
1924.45
1896.84
1869.65
1842.94
1816.82
1791.34
1766.62
1742.58
2839.38
2819.85
2800.01
2779.86
2759.38
2738.58
2717.46
2696
2674.21
2652.08
2629.61
2606.8
2583.64
2560.14
2536.28
2512.08
2487.53
2462.63
2437.4
2411.83
2385.94
2359.72
2333.21
2306.41
2279.34
2252.01
2224.47
2196.73
2168.82
2140.79
2112.66
2084.49
2056.31
2028.19
2000.17
1972.32
1944.7
1917.38
1890.43
1863.93
1837.95
1812.57
1787.9
1763.96
1740.89
1718.61
2811.9
2791.75
2771.3
2750.53
2729.45
2708.04
2686.32
2664.27
2641.9
2619.19
2596.16
2572.79
2549.09
2525.07
2500.71
2476.03
2451.03
2425.71
2400.09
2374.17
2347.96
2321.47
2294.74
2267.76
2240.58
2213.2
2185.67
2158.02
2130.28
2102.49
2074.69
2046.94
2019.28
1991.77
1964.47
1937.43
1910.74
1884.45
1858.65
1833.38
1808.76
1784.82
1761.68
1739.37
1718.01
1697.5
2782.12
2761.42
2740.41
2719.09
2697.46
2675.52
2653.27
2630.7
2607.82
2584.62
2561.11
2537.29
2513.15
2488.71
2463.96
2438.91
2413.57
2387.96
2362.07
2335.92
2309.53
2282.92
2256.1
2229.11
2201.96
2174.7
2147.35
2119.94
2092.53
2065.15
2037.86
2010.69
1983.72
1956.99
1930.56
1904.5
1878.88
1853.76
1829.22
1805.31
1782.12
1759.7
1738.16
1717.5
1697.85
1679.1
2750.3
2729.1
2707.6
2685.8
2663.7
2641.29
2618.59
2595.59
2572.29
2548.68
2524.79
2500.6
2476.13
2451.37
2426.34
2401.04
2375.49
2349.69
2323.66
2297.42
2270.99
2244.39
2217.64
2190.78
2163.83
2136.82
2109.8
2082.81
2055.88
2029.08
2002.44
1976.01
1949.87
1924.06
1898.64
1873.68
1849.25
1825.4
1802.21
1779.72
1758.03
1737.16
1717.22
1698.21
1680.24
1663.2
2695.06
2673.14
2650.93
2628.43
2605.64
2582.57
2559.21
2535.58
2511.67
2487.49
2463.04
2438.33
2413.37
2388.16
2362.73
2337.08
2311.23
2285.2
2259
2232.66
2206.21
2179.67
2153.07
2126.46
2099.86
2073.32
2046.88
2020.58
1994.48
1968.64
1943.09
1917.9
1893.13
1868.83
1845.06
1821.9
1799.39
1777.6
1756.57
1736.4
1717.08
1698.73
1681.32
1664.97
1649.56
2659.57
2637.29
2614.74
2591.92
2568.83
2545.48
2521.86
2497.99
2473.86
2449.49
2424.89
2400.05
2374.99
2349.74
2324.29
2298.66
2272.88
2246.96
2220.93
2194.82
2168.64
2142.45
2116.26
2090.11
2064.05
2038.12
2012.36
1986.83
1961.56
1936.62
1912.06
1887.92
1864.28
1841.18
1818.68
1796.84
1775.7
1755.34
1735.78
1717.11
1699.3
1682.49
1666.61
1651.79
1637.89
2622.88
2600.33
2577.52
2554.46
2531.15
2507.6
2483.81
2459.79
2435.55
2411.09
2386.43
2361.57
2336.53
2311.33
2285.98
2260.49
2234.9
2209.22
2183.49
2157.72
2131.95
2106.22
2080.56
2055
2029.6
2004.4
1979.44
1954.77
1930.44
1906.5
1883
1860
1837.55
1815.7
1794.5
1774.01
1754.25
1735.32
1717.19
1699.98
1683.64
1668.3
1653.84
1640.46
1627.97
2562.49
2539.5
2516.29
2492.85
2469.19
2445.32
2421.26
2396.99
2372.55
2347.93
2323.16
2298.24
2273.2
2248.06
2222.83
2197.54
2172.22
2146.89
2121.58
2096.33
2071.18
2046.16
2021.31
1996.67
1972.3
1948.23
1924.51
1901.19
1878.33
1855.96
1834.14
1812.92
1792.35
1772.46
1753.31
1734.92
1717.37
1700.64
1684.84
1669.86
1655.89
1642.78
1630.72
1619.55
2524.04
2500.95
2477.66
2454.18
2430.5
2406.65
2382.62
2358.44
2334.1
2309.64
2285.05
2260.36
2235.59
2210.76
2185.9
2161.02
2136.15
2111.34
2086.6
2061.97
2037.5
2013.21
1989.16
1965.37
1941.91
1918.8
1896.1
1873.86
1852.12
1830.92
1810.31
1790.33
1771.03
1752.44
1734.62
1717.56
1701.35
1685.93
1671.44
1657.76
1645.05
1633.2
1622.36
1612.37
2485.2
2462.1
2438.82
2415.38
2391.77
2368.02
2344.13
2320.11
2295.99
2271.76
2247.46
2223.1
2198.7
2174.28
2149.88
2125.51
2101.2
2076.99
2052.91
2029
2005.29
1981.83
1958.64
1935.78
1913.29
1891.2
1869.57
1848.44
1827.84
1807.82
1788.43
1769.69
1751.65
1734.33
1717.78
1701.98
1687.03
1672.87
1659.59
1647.12
1635.58
1624.88
1615.14
1606.22
2446.2
2423.16
2399.98
2376.66
2353.21
2329.65
2305.99
2282.23
2258.4
2234.51
2210.59
2186.64
2162.7
2138.79
2114.94
2091.16
2067.5
2043.98
2020.65
1997.52
1974.65
1952.07
1929.81
1907.92
1886.45
1865.42
1844.88
1824.87
1805.43
1786.6
1768.4
1750.87
1734.05
1717.94
1702.6
1688.01
1674.24
1661.23
1649.08
1637.72
1627.25
1617.59
1608.84
1600.89
2384.35
2361.35
2338.23
2315.02
2291.74
2268.38
2244.97
2221.52
2198.05
2174.59
2151.15
2127.75
2104.43
2081.2
2058.1
2035.16
2012.4
1989.87
1967.6
1945.62
1923.97
1902.68
1881.81
1861.37
1841.42
1821.98
1803.1
1784.8
1767.13
1750.1
1733.73
1718.07
1703.12
1688.92
1675.46
1662.77
1650.84
1639.72
1629.37
1619.87
1611.13
1603.28
1596.18
2345.86
2323.1
2300.27
2277.38
2254.45
2231.48
2208.49
2185.5
2162.54
2139.61
2116.75
2093.97
2071.3
2048.77
2026.41
2004.25
1982.31
1960.64
1939.26
1918.21
1897.53
1877.24
1857.4
1838.02
1819.14
1800.79
1783.03
1765.84
1749.28
1733.37
1718.12
1703.56
1689.7
1676.56
1664.13
1652.45
1641.5
1631.32
1621.88
1613.24
1605.34
1598.28
1591.95
2307.85
2285.42
2262.94
2240.44
2217.93
2195.42
2172.93
2150.48
2128.08
2105.76
2083.54
2061.44
2039.49
2017.72
1996.15
1974.81
1953.74
1932.96
1912.51
1892.42
1872.72
1853.45
1834.63
1816.3
1798.49
1781.21
1764.51
1748.41
1732.92
1718.08
1703.88
1690.35
1677.49
1665.33
1653.86
1643.09
1633.03
1623.7
1615.07
1607.21
1600.06
1593.71
1588.05
2248.43
2226.38
2204.33
2182.31
2160.33
2138.4
2116.54
2094.77
2073.12
2051.6
2030.23
2009.05
1988.08
1967.34
1946.87
1926.69
1906.83
1887.33
1868.21
1849.5
1831.23
1813.43
1796.13
1779.35
1763.11
1747.45
1732.38
1717.9
1704.06
1690.84
1678.26
1666.34
1655.07
1644.46
1634.53
1625.27
1616.7
1608.8
1601.63
1595.14
1589.42
1584.37
2212.26
2190.69
2169.17
2147.7
2126.3
2104.99
2083.78
2062.69
2041.75
2020.97
2000.39
1980.01
1959.87
1940
1920.41
1901.14
1882.21
1863.66
1845.51
1827.78
1810.5
1793.7
1777.4
1761.61
1746.37
1731.69
1717.59
1704.07
1691.16
1678.84
1667.15
1656.07
1645.62
1635.8
1626.62
1618.07
1610.18
1602.93
1596.38
1590.48
1585.33
1580.81
2177.01
2155.99
2135.03
2114.17
2093.4
2072.75
2052.24
2031.87
2011.68
1991.69
1971.91
1952.36
1933.08
1914.08
1895.39
1877.04
1859.05
1841.44
1824.24
1807.47
1791.16
1775.32
1759.98
1745.15
1730.86
1717.1
1703.91
1691.28
1679.22
1667.75
1656.85
1646.55
1636.84
1627.72
1619.21
1611.3
1604.02
1597.35
1591.35
1585.98
1581.32
1577.3
2142.77
2122.33
2101.99
2081.77
2061.68
2041.73
2021.95
2002.34
1982.93
1963.74
1944.79
1926.09
1907.68
1889.57
1871.78
1854.34
1837.26
1820.58
1804.31
1788.48
1773.1
1758.19
1743.76
1729.84
1716.43
1703.54