/*--------------------------------*- C++ -*----------------------------------*\
| =========                 |                                                 |
| \\      /  F ield         | OpenFOAM: The Open Source CFD Toolbox           |
|  \\    /   O peration     | Version:  v1706                                 |
|   \\  /    A nd           | Web:      www.OpenFOAM.com                      |
|    \\/     M anipulation  |                                                 |
\*---------------------------------------------------------------------------*/
FoamFile
{
    version     2.0;
    format      ascii;
    class       volScalarField;
    location    "6e-06";
    object      Tt;
}
// * * * * * * * * * * * * * * * * * * * * * * * * * * * * * * * * * * * * * //

dimensions      [0 0 0 1 0 0 0];


internalField   nonuniform List<scalar> 
30038
(
144.4
144.4
144.4
144.4
144.4
144.4
144.4
144.4
144.4
144.4
144.4
144.4
144.4
144.4
144.4
144.4
144.4
144.4
144.4
144.4
144.4
144.4
144.4
144.4
144.4
144.4
144.4
144.4
144.4
144.4
144.4
144.4
144.4
144.4
144.4
144.4
144.4
144.4
144.4
144.4
144.4
144.4
144.4
144.4
144.4
144.4
144.4
144.4
144.4
144.4
144.4
144.4
144.4
144.4
144.4
144.4
144.4
144.4
144.4
144.4
144.4
144.4
144.4
144.4
144.4
144.4
144.4
144.4
144.4
144.4
144.4
144.4
144.4
144.4
144.4
144.4
144.4
144.4
144.4
144.4
144.4
144.4
144.4
144.4
144.4
144.4
144.4
144.4
144.4
144.4
144.4
144.4
144.4
144.4
144.4
144.4
144.4
144.4
144.4
144.4
144.4
144.4
144.4
144.4
144.4
144.4
144.4
144.4
144.4
144.4
144.4
144.4
144.4
144.4
144.4
144.4
144.4
144.4
144.4
144.4
144.4
144.4
144.4
144.4
144.4
144.4
144.4
144.4
144.4
144.4
144.4
144.4
144.4
144.4
144.4
144.4
144.4
144.4
144.4
144.4
144.4
144.4
144.4
144.4
144.4
144.4
144.4
144.4
144.4
144.4
144.4
144.4
144.4
144.4
144.4
144.4
144.4
144.4
144.4
144.4
144.4
144.4
144.4
144.4
144.4
144.4
144.4
144.4
144.4
144.4
144.4
144.4
144.4
144.4
144.4
144.4
144.4
144.4
144.4
144.4
144.4
144.4
144.4
144.4
144.4
144.4
144.4
144.4
144.4
144.4
144.4
144.4
144.4
144.4
144.4
144.4
144.4
144.4
144.4
144.4
144.4
144.4
144.4
144.4
144.4
144.4
144.4
144.4
144.4
144.4
144.4
144.4
144.4
144.4
144.4
144.4
144.4
144.4
144.4
144.4
144.4
144.4
144.4
144.4
144.4
144.4
144.4
144.4
144.4
144.4
144.4
144.4
144.4
144.4
144.4
144.4
144.4
144.4
144.4
144.4
144.4
144.4
144.4
144.4
144.4
144.4
144.4
144.4
144.4
144.4
144.4
144.4
144.4
144.4
144.4
144.4
144.4
144.4
144.4
144.4
144.4
144.4
144.4
144.4
144.4
144.4
144.4
144.4
144.4
144.4
144.4
144.4
144.4
144.4
144.4
144.4
144.4
144.4
144.4
144.4
144.4
144.4
144.4
144.4
144.4
144.4
144.4
144.4
144.4
144.4
144.4
144.4
144.4
144.4
144.4
144.4
144.4
144.4
144.4
144.4
144.4
144.4
144.4
144.4
144.4
144.4
144.4
144.4
144.4
144.4
144.4
144.4
144.4
144.4
144.4
144.4
144.4
144.4
144.4
144.4
144.4
144.4
144.4
144.4
144.4
144.4
144.4
144.4
144.4
144.4
144.4
144.4
144.4
144.4
144.4
144.4
144.4
144.4
144.4
144.4
144.4
144.4
144.4
144.4
144.4
144.4
144.4
144.4
144.4
144.4
144.4
144.4
144.4
144.4
144.4
144.4
144.4
144.4
144.4
144.4
144.4
144.4
144.4
144.4
144.4
144.4
144.4
144.4
144.4
144.4
144.4
144.4
144.4
144.4
144.4
144.4
144.4
144.4
144.4
144.4
144.4
144.4
144.4
144.4
144.4
144.4
144.4
144.4
144.4
144.4
144.4
144.4
144.4
144.4
144.4
144.4
144.4
144.4
144.4
144.4
144.4
144.4
144.4
144.4
144.4
144.4
144.4
144.4
144.4
144.4
144.4
144.4
144.4
144.4
144.4
144.4
144.4
144.4
144.4
144.4
144.4
144.4
144.4
144.4
144.4
144.4
144.4
144.4
144.4
144.4
144.4
144.4
144.4
144.4
144.4
144.4
144.4
144.4
144.4
144.4
144.4
144.4
144.4
144.4
144.4
144.4
144.4
144.4
144.4
144.4
144.4
144.4
144.4
144.4
144.4
144.4
144.4
144.4
144.4
144.4
144.4
144.4
144.4
144.4
144.4
144.4
144.4
144.4
144.4
144.4
144.4
144.4
144.4
144.4
144.4
144.4
144.4
144.4
144.4
144.4
144.4
144.4
144.4
144.4
144.4
144.4
144.4
144.4
144.4
144.4
144.4
144.4
144.4
144.4
144.4
144.4
144.4
144.4
144.4
144.4
144.4
144.4
144.4
144.4
144.4
144.4
144.4
144.4
144.4
144.4
144.4
144.4
144.4
144.4
144.4
144.4
144.4
144.4
144.4
144.4
144.4
144.4
144.4
144.4
144.4
144.4
144.4
144.4
144.4
144.4
144.4
144.4
144.4
144.4
144.4
144.4
144.4
144.4
144.4
144.4
144.4
144.4
144.4
144.4
144.4
144.4
144.4
144.4
144.4
144.4
144.4
144.4
144.4
144.4
144.4
144.4
144.4
144.4
144.4
144.4
144.4
144.4
144.4
144.4
144.4
144.4
144.4
144.4
144.4
144.4
144.4
144.4
144.4
144.4
144.4
144.4
144.4
144.4
144.4
144.4
144.4
144.4
144.4
144.4
144.4
144.4
144.4
144.4
144.4
144.4
144.4
144.4
144.4
144.4
144.4
144.4
144.4
144.4
144.4
144.4
144.4
144.4
144.4
144.4
144.4
144.4
144.4
144.4
144.4
144.4
144.4
144.4
144.4
144.4
144.4
144.4
144.4
144.4
144.4
144.4
144.4
144.4
144.4
144.4
144.4
144.4
144.4
144.4
144.4
144.4
144.4
144.4
144.4
144.4
144.4
144.4
144.4
144.4
144.4
144.4
144.4
144.4
144.4
144.4
144.4
144.4
144.4
144.4
144.4
144.4
144.4
144.4
144.4
144.4
144.4
144.4
144.4
144.4
144.4
144.4
144.4
144.4
144.4
144.4
144.4
144.4
144.4
144.4
144.4
144.4
144.4
144.4
144.4
144.4
144.4
144.4
144.4
144.4
144.4
144.4
144.4
144.4
144.4
144.4
144.4
144.4
144.4
144.4
144.4
144.4
144.4
144.4
144.4
144.4
144.4
144.4
144.4
144.4
144.4
144.4
144.4
144.4
144.4
144.4
144.4
144.4
144.4
144.4
144.4
144.4
144.4
144.4
144.4
144.4
144.4
144.4
144.4
144.4
144.4
144.4
144.4
144.4
144.4
144.4
144.4
144.4
144.4
144.4
144.4
144.4
144.4
144.4
144.4
144.4
144.4
144.4
144.4
144.4
144.4
144.4
144.4
144.4
144.4
144.4
144.4
144.4
144.4
144.4
144.4
144.4
144.4
144.4
144.4
144.4
144.4
144.4
144.4
144.4
144.4
144.4
144.4
144.4
144.4
144.4
144.4
144.4
144.4
144.4
144.4
144.4
144.4
144.4
144.4
144.4
144.4
144.4
144.4
144.4
144.4
144.4
144.4
144.4
144.4
144.4
144.4
144.4
144.4
144.4
144.4
144.4
144.4
144.4
144.4
144.4
144.4
144.4
144.4
144.4
144.4
144.4
144.4
144.4
144.4
144.4
144.4
144.4
144.4
144.4
144.4
144.4
144.4
144.4
144.4
144.4
144.4
144.4
144.4
144.4
144.4
144.4
144.4
144.4
144.4
144.4
144.4
144.4
144.4
144.4
144.4
144.4
144.4
144.4
144.4
144.4
144.4
144.4
144.4
144.4
144.4
144.4
144.4
144.4
144.4
144.4
144.4
144.4
144.4
144.4
144.4
144.4
144.4
144.4
144.4
144.4
144.4
144.4
144.4
144.4
144.4
144.4
144.4
144.4
144.4
144.4
144.4
144.4
144.4
144.4
144.4
144.4
144.4
144.4
144.4
144.4
144.4
144.4
144.4
144.4
144.4
144.4
144.4
144.4
144.4
144.4
144.4
144.4
144.4
144.4
144.4
144.4
144.4
144.4
144.4
144.4
144.4
144.4
144.4
144.4
144.4
144.4
144.4
144.4
144.4
144.4
144.4
144.4
144.4
144.4
144.4
144.4
144.4
144.4
144.4
144.4
144.4
144.4
144.4
144.4
144.4
144.4
144.4
144.4
144.4
144.4
144.4
144.4
144.4
144.4
144.4
144.4
144.4
144.4
144.4
144.4
144.4
144.4
144.4
144.4
144.4
144.4
144.4
144.4
144.4
144.4
144.4
144.4
144.4
144.4
144.4
144.4
144.4
144.4
144.4
144.4
144.4
144.4
144.4
144.4
144.4
144.4
144.4
144.4
144.4
144.4
144.4
144.4
144.4
144.4
144.4
144.4
144.4
144.4
144.4
144.4
144.4
144.4
144.4
144.4
144.4
144.4
144.4
144.4
144.4
144.4
144.4
144.4
144.4
144.4
144.4
144.4
144.4
144.4
144.4
144.4
144.4
144.4
144.4
144.4
144.4
144.4
144.4
144.4
144.4
144.4
144.4
144.4
144.4
144.4
144.4
144.4
144.4
144.4
144.4
144.4
144.4
144.4
144.4
144.4
144.4
144.4
144.4
144.4
144.4
144.4
144.4
144.4
144.4
144.4
144.4
144.4
144.4
144.4
144.4
144.4
144.4
144.4
144.4
144.4
144.4
144.4
144.4
144.4
144.4
144.4
144.4
144.4
144.4
144.4
144.4
144.4
144.4
144.4
144.4
144.4
144.4
144.4
144.4
144.4
144.4
144.4
144.4
144.4
144.4
144.4
144.4
144.4
144.4
144.4
144.4
144.4
144.4
144.4
144.4
144.4
144.4
144.4
144.4
144.4
144.4
144.4
144.4
144.4
144.4
144.4
144.4
144.4
144.4
144.4
144.4
144.4
144.4
144.4
144.4
144.4
144.4
144.4
144.4
144.4
144.4
144.4
144.4
144.4
144.4
144.4
144.4
144.4
144.4
144.4
144.4
144.4
144.4
144.4
144.4
144.4
144.4
144.4
144.4
144.4
144.4
144.4
144.4
144.4
144.4
144.4
144.4
144.4
144.4
144.4
144.4
144.4
144.4
144.4
144.4
144.4
144.4
144.4
144.4
144.4
144.4
144.4
144.4
144.4
144.4
144.4
144.4
144.4
144.4
144.4
144.4
144.4
144.4
144.4
144.4
144.4
144.4
144.4
144.4
144.4
144.4
144.4
144.4
144.4
144.4
144.4
144.4
144.4
144.4
144.4
144.4
144.4
144.4
144.4
144.4
144.4
144.4
144.4
144.4
144.4
144.4
144.4
144.4
144.4
144.4
144.4
144.4
144.4
144.4
144.4
144.4
144.4
144.4
144.4
144.4
144.4
144.4
144.4
144.4
144.4
144.4
144.4
144.4
144.4
144.4
144.4
144.4
144.4
144.4
144.4
144.4
144.4
144.4
144.4
144.4
144.4
144.4
144.4
144.4
144.4
144.4
144.4
144.4
144.4
144.4
144.4
144.4
144.4
144.4
144.4
144.4
144.4
144.4
144.4
144.4
144.4
144.4
144.4
144.4
144.4
144.4
144.4
144.4
144.4
144.4
144.4
144.4
144.4
144.4
144.4
144.4
144.4
144.4
144.4
144.4
144.4
144.4
144.4
144.4
144.4
144.4
144.4
144.4
144.4
144.4
144.4
144.4
144.4
144.4
144.4
144.4
144.4
144.4
144.4
144.4
144.4
144.4
144.4
144.4
144.4
144.4
144.4
144.4
144.4
144.4
144.4
144.4
144.4
144.4
144.4
144.4
144.4
144.4
144.4
144.4
144.4
144.4
144.4
144.4
144.4
144.4
144.4
144.4
144.4
144.4
144.4
144.4
144.4
144.4
144.4
144.4
144.4
144.4
144.4
144.4
144.4
144.4
144.4
144.4
144.4
144.4
144.4
144.4
144.4
144.4
144.4
144.4
144.4
144.4
144.4
144.4
144.4
144.4
144.4
144.4
144.4
144.4
144.4
144.4
144.4
144.4
144.4
144.4
144.4
144.4
144.4
144.4
144.4
144.4
144.4
144.4
144.4
144.4
144.4
144.4
144.4
144.4
144.4
144.4
144.4
144.4
144.4
144.4
144.4
144.4
144.4
144.4
144.4
144.4
144.4
144.4
144.4
144.4
144.4
144.4
144.4
144.4
144.4
144.4
144.4
144.4
144.4
144.4
144.4
144.4
144.4
144.4
144.4
144.4
144.4
144.4
144.4
144.4
144.4
144.4
144.4
144.4
144.4
144.4
144.4
144.4
144.4
144.4
144.4
144.4
144.4
144.4
144.4
144.4
144.4
144.4
144.4
144.4
144.4
144.4
144.4
144.4
144.4
144.4
144.4
144.4
144.4
144.4
144.4
144.4
144.4
144.4
144.4
144.4
144.4
144.4
144.4
144.4
144.4
144.4
144.4
144.4
144.4
144.4
144.4
144.4
144.4
144.4
144.4
144.4
144.4
144.4
144.4
144.4
144.4
144.4
144.4
144.4
144.4
144.4
144.4
144.4
144.4
144.4
144.4
144.4
144.4
144.4
144.4
144.4
144.4
144.4
144.4
144.4
144.4
144.4
144.4
144.4
144.4
144.4
144.4
144.4
144.4
144.4
144.4
144.4
144.4
144.4
144.4
144.4
144.4
144.4
144.4
144.4
144.4
144.4
144.4
144.4
144.4
144.4
144.4
144.4
144.4
144.4
144.4
144.4
144.4
144.4
144.4
144.4
144.4
144.4
144.4
144.4
144.4
144.4
144.4
144.4
144.4
144.4
144.4
144.4
144.4
144.4
144.4
144.4
144.4
144.4
144.4
144.4
144.4
144.4
144.4
144.4
144.4
144.4
144.4
144.4
144.4
144.4
144.4
144.4
144.4
144.4
144.4
144.4
144.4
144.4
144.4
144.4
144.4
144.4
144.4
144.4
144.4
144.4
144.4
144.4
144.4
144.4
144.4
144.4
144.4
144.4
144.4
144.4
144.4
144.4
144.4
144.4
144.4
144.4
144.4
144.4
144.4
144.4
144.4
144.4
144.4
144.4
144.4
144.4
144.4
144.4
144.4
144.4
144.4
144.4
144.4
144.4
144.4
144.4
144.4
144.4
144.4
144.401
144.401
144.401
144.401
144.4
144.4
144.4
144.4
144.4
144.4
144.4
144.4
144.4
144.4
144.4
144.4
144.4
144.4
144.4
144.4
144.4
144.4
144.4
144.4
144.4
144.4
144.4
144.4
144.4
144.4
144.4
144.4
144.4
144.4
144.4
144.4
144.4
144.4
144.4
144.4
144.4
144.4
144.4
144.401
144.401
144.401
144.401
144.402
144.402
144.403
144.404
144.405
144.407
144.409
144.4
144.4
144.4
144.4
144.4
144.4
144.4
144.4
144.4
144.4
144.4
144.4
144.4
144.4
144.4
144.4
144.4
144.4
144.4
144.4
144.4
144.4
144.4
144.4
144.4
144.4
144.4
144.4
144.4
144.4
144.4
144.4
144.401
144.401
144.401
144.401
144.402
144.402
144.403
144.404
144.405
144.406
144.408
144.411
144.414
144.418
144.424
144.431
144.439
144.452
144.4
144.4
144.4
144.4
144.4
144.4
144.4
144.4
144.4
144.4
144.4
144.4
144.4
144.4
144.4
144.4
144.4
144.4
144.4
144.4
144.4
144.4
144.4
144.4
144.4
144.4
144.401
144.401
144.401
144.401
144.402
144.403
144.403
144.404
144.406
144.408
144.41
144.413
144.417
144.422
144.429
144.438
144.45
144.464
144.483
144.508
144.539
144.578
144.629
144.702
144.4
144.4
144.4
144.4
144.4
144.4
144.4
144.4
144.4
144.4
144.4
144.4
144.4
144.4
144.4
144.4
144.4
144.4
144.4
144.401
144.401
144.401
144.401
144.402
144.402
144.403
144.404
144.405
144.406
144.409
144.411
144.415
144.42
144.426
144.434
144.444
144.458
144.476
144.499
144.53
144.569
144.62
144.685
144.769
144.877
145.014
145.188
145.409
145.692
146.094
144.4
144.4
144.4
144.4
144.4
144.4
144.4
144.4
144.4
144.4
144.4
144.4
144.4
144.401
144.401
144.401
144.401
144.402
144.402
144.403
144.404
144.406
144.407
144.41
144.413
144.416
144.422
144.428
144.437
144.449
144.465
144.485
144.512
144.547
144.592
144.652
144.73
144.83
144.961
145.13
145.349
145.63
145.991
146.452
147.04
147.786
148.729
149.914
151.413
153.469
144.4
144.4
144.4
144.4
144.4
144.4
144.401
144.401
144.401
144.401
144.402
144.402
144.403
144.404
144.405
144.406
144.408
144.411
144.414
144.418
144.424
144.432
144.441
144.454
144.471
144.493
144.523
144.561
144.611
144.677
144.763
144.876
145.023
145.215
145.467
145.794
146.218
146.765
147.471
148.378
149.54
151.022
152.904
155.28
158.26
161.971
166.553
172.164
179.035
187.848
144.401
144.401
144.401
144.401
144.402
144.402
144.403
144.404
144.405
144.406
144.408
144.41
144.413
144.417
144.421
144.428
144.436
144.447
144.461
144.48
144.504
144.535
144.577
144.631
144.702
144.795
144.917
145.077
145.285
145.559
145.916
146.38
146.984
147.77
148.79
150.111
151.811
153.984
156.748
160.248
164.648
170.138
176.928
185.24
195.304
207.339
221.537
238.056
257.03
278.703
303.856
144.404
144.405
144.406
144.408
144.41
144.412
144.416
144.42
144.426
144.434
144.443
144.456
144.472
144.492
144.519
144.554
144.6
144.66
144.737
144.838
144.969
145.141
145.365
145.656
146.037
146.534
147.182
148.023
149.116
150.535
152.365
154.716
157.724
161.556
166.418
172.549
180.187
189.565
200.944
214.597
230.783
249.725
271.598
296.505
324.469
355.42
389.188
425.557
464.307
505.463
549.272
144.417
144.421
144.427
144.434
144.443
144.454
144.469
144.488
144.513
144.544
144.585
144.637
144.704
144.791
144.904
145.049
145.237
145.482
145.798
146.208
146.74
147.431
148.327
149.486
150.982
152.915
155.402
158.583
162.629
167.759
174.232
182.311
192.258
204.372
218.965
236.397
256.912
280.619
307.524
337.646
370.983
407.453
446.917
489.145
533.837
580.642
629.157
678.914
729.578
780.914
832.947
885.858
144.491
144.515
144.545
144.584
144.634
144.696
144.776
144.879
145.01
145.178
145.393
145.67
146.025
146.482
147.069
147.823
148.793
150.044
151.65
153.704
156.33
159.682
163.937
169.294
175.996
184.35
194.677
207.265
222.382
240.393
261.575
286.079
313.97
345.291
379.988
418.28
460.303
505.806
553.639
603.362
654.913
708.178
763
819.026
875.866
933.142
990.425
1047.15
1103.25
1158.62
1213.37
1267.43
144.89
145.017
145.178
145.383
145.643
145.972
146.391
146.925
147.603
148.465
149.56
150.954
152.732
154.99
157.845
161.442
165.973
171.655
178.717
187.408
198.038
210.974
226.542
244.955
266.442
291.345
319.741
351.626
386.839
425.654
468.281
514.52
563.334
614.274
667.223
722.485
779.143
835.896
893.189
951.227
1009.78
1068.75
1128.03
1187.02
1245.34
1302.68
1358.81
1413.62
1466.87
1518.45
1568.37
1616.65
146.964
147.618
148.442
149.48
150.785
152.421
154.478
157.064
160.304
164.336
169.33
175.51
183.129
192.434
203.671
217.109
233.114
252.032
274.07
299.279
327.867
360.013
395.584
434.364
476.226
521.651
570.738
622.713
676.3
731.945
788.987
846.497
904.969
964.237
1024.08
1085.11
1149.21
1215.02
1278.22
1338.86
1397.85
1455.42
1511.4
1565.68
1618.1
1668.48
1716.64
1762.37
1805.48
1845.84
1883.36
1918.38
157.183
160.278
164.107
168.828
174.605
181.625
190.129
200.39
212.642
227.101
243.988
263.612
286.323
312.286
341.417
373.694
409.4
448.318
490.22
534.772
582.168
632.926
687.056
742.856
799.743
858.253
917.204
975.982
1035.63
1096.88
1161.35
1227.74
1291.97
1353.88
1414.79
1474.36
1531.19
1585.66
1639.76
1693.1
1744.93
1794.71
1842.12
1886.86
1928.64
1967.21
2002.33
2033.84
2061.62
2085.73
2106.16
2123.67
200.559
212.236
225.977
241.995
260.45
281.472
305.301
332.259
362.415
395.531
431.477
470.477
512.43
556.935
603.725
652.658
704.388
759.287
816.669
874.478
933.264
993.035
1052.23
1111.33
1171.5
1233.62
1299.52
1365.05
1428.03
1488.63
1546.35
1601.73
1656.93
1711.76
1765.5
1818.07
1870.18
1919.68
1965.63
2007.48
2045.54
2080.12
2111.25
2138.81
2162.76
2183.09
2199.88
2213.2
2223.31
2230.52
2234.88
2237.06
332.228
360.687
392.031
426.398
463.549
503.138
545.302
589.908
636.532
685.009
735.194
787.537
842.744
900.617
958.868
1017.2
1076.65
1136.06
1194.18
1252.76
1312.58
1375.15
1440.55
1503.95
1564.81
1622.46
1677.07
1730.53
1784.07
1837.58
1891.5
1943.05
1991.12
2035.46
2076.64
2114.34
2148.86
2180.35
2208.53
2232.88
2253.34
2270.17
2283.59
2293.84
2301.23
2305.94
2308.23
2308.02
2306.02
2302.24
2296.7
2289.79
634.072
681.204
729.757
779.597
830.709
883.569
939.059
996.862
1054.72
1112.27
1170.62
1229.13
1286.18
1343.05
1400.64
1459.7
1522.32
1585.13
1645.4
1702.96
1757.03
1808.6
1859.81
1910.77
1961.96
2012.25
2059.94
2104.33
2144.57
2181.47
2215.55
2246.61
2274.24
2298.33
2318.82
2336.02
2350.15
2361.11
2368.98
2373.96
2376.44
2376.58
2374.91
2371.59
2366.7
2360.37
2352.67
2343.78
2333.82
2322.75
2310.64
992.824
1047.4
1104.1
1161.54
1218.65
1275.94
1332.8
1388.14
1443.26
1498.8
1555.33
1614.65
1675.33
1733.77
1789.82
1842.81
1892.82
1941.44
1989.73
2037.55
2085.33
2131.17
2174.34
2214
2249.78
2282.53
2312.76
2339.99
2363.62
2383.87
2400.93
2414.82
2425.53
2433.32
2438.47
2441.44
2442.46
2441.46
2438.88
2434.56
2428.77
2421.7
2413.49
2404.28
2394.14
2383.08
2371.11
2358.28
2344.66
2330.41
2315.42
1389.74
1445.92
1500.4
1553.88
1607.32
1661.56
1718.39
1776.12
1831.75
1885.11
1936.05
1983.95
2030.07
2075.66
2120.58
2164.9
2208.05
2248.96
2287.12
2321.65
2352.8
2381.27
2407.19
2429.94
2449.31
2465.67
2479.33
2489.97
2497.73
2502.98
2506.08
2507.19
2506.28
2503.86
2499.88
2494.65
2488.36
2481.01
2472.65
2463.29
2453.02
2441.95
2430.08
2417.49
2404.22
2390.35
2375.96
2360.9
2345.12
2328.54
2311.05
1831.35
1884.34
1936.76
1987.76
2036.48
2082.14
2125.92
2168.94
2211.12
2252.32
2292.29
2330.28
2365.84
2398.49
2427.7
2454.07
2478.04
2499.43
2517.63
2532.8
2545.39
2555.46
2562.87
2567.8
2570.73
2571.92
2571.11
2568.84
2565.08
2560.12
2554.11
2547.04
2539.05
2530.21
2520.63
2510.37
2499.46
2487.84
2475.54
2462.6
2449.04
2435.05
2420.49
2405.3
2389.42
2372.82
2355.49
2337.36
2318.35
2298.26
2185.61
2228.04
2268.89
2308.45
2346.69
2383.45
2418.32
2450.9
2480.89
2507.81
2531.89
2553.61
2573
2589.68
2603.41
2614.52
2623.45
2630.18
2634.54
2636.89
2637.57
2636.62
2634.26
2630.45
2625.55
2619.73
2612.88
2605.17
2596.66
2587.47
2577.64
2567.18
2556.13
2544.52
2532.38
2519.75
2506.6
2493.02
2478.91
2464.19
2448.83
2432.78
2416.03
2398.58
2380.38
2361.43
2341.74
2321.31
2300.13
2277.88
2479.34
2510.77
2540.25
2567.57
2592.19
2614.09
2633.6
2650.82
2665.6
2677.64
2687.15
2694.63
2700.19
2703.72
2705.29
2705.13
2703.76
2701.08
2697.03
2691.88
2685.88
2679.02
2671.36
2662.97
2653.98
2644.45
2634.33
2623.66
2612.51
2600.91
2588.86
2576.35
2563.35
2549.94
2536.11
2521.78
2506.85
2491.28
2475.08
2458.24
2440.76
2422.62
2403.85
2384.43
2364.31
2343.48
2321.9
2299.54
2276.39
2252.23
2699.02
2716.24
2731.29
2744.15
2754.49
2762.51
2768.54
2772.8
2775.28
2775.9
2774.93
2772.85
2769.59
2765.13
2759.62
2753.24
2746.17
2738.42
2729.96
2720.91
2711.4
2701.39
2690.9
2679.98
2668.71
2657.09
2645.05
2632.57
2619.65
2606.36
2592.7
2578.55
2563.84
2548.58
2532.81
2516.52
2499.74
2482.36
2464.37
2445.78
2426.55
2406.67
2386.11
2364.92
2343.03
2320.41
2297.08
2272.99
2248.08
2222.13
2839.23
2843.81
2846.78
2848.2
2847.86
2846.24
2843.42
2839.53
2834.6
2828.67
2821.89
2814.5
2806.51
2797.88
2788.69
2779.03
2768.98
2758.51
2747.66
2736.47
2725.01
2713.22
2701.06
2688.52
2675.6
2662.4
2648.8
2634.75
2620.22
2605.22
2589.78
2573.94
2557.63
2540.78
2523.41
2505.5
2487.06
2468.04
2448.43
2428.21
2407.33
2385.82
2363.63
2340.78
2317.25
2293
2267.99
2242.21
2215.65
2188.08
2918.06
2914.48
2909.96
2904.56
2898.26
2891.22
2883.55
2875.32
2866.52
2857.18
2847.37
2837.2
2826.68
2815.81
2804.62
2793.17
2781.47
2769.46
2757.12
2744.45
2731.45
2718.16
2704.54
2690.53
2676.12
2661.33
2646.19
2630.67
2614.72
2598.29
2581.39
2564.03
2546.21
2527.88
2509.03
2489.62
2469.65
2449.09
2427.91
2406.14
2383.73
2360.69
2336.97
2312.56
2287.44
2261.63
2235.1
2207.84
2179.82
2150.84
2960.51
2952.55
2944.08
2935.14
2925.71
2915.85
2905.62
2895.08
2884.21
2873.03
2861.59
2849.91
2837.98
2825.74
2813.21
2800.37
2787.22
2773.85
2760.15
2746.13
2731.77
2717.1
2702.14
2686.83
2671.15
2655.06
2638.54
2621.63
2604.32
2586.54
2568.3
2549.55
2530.31
2510.54
2490.23
2469.37
2447.92
2425.93
2403.33
2380.1
2356.22
2331.69
2306.51
2280.66
2254.14
2226.94
2199.07
2170.54
2141.32
2111.23
2973.63
2963.07
2952.24
2941.13
2929.76
2918.17
2906.34
2894.22
2881.81
2869.1
2856.12
2842.88
2829.4
2815.64
2801.58
2787.25
2772.65
2757.77
2742.59
2727.09
2711.21
2695
2678.45
2661.53
2644.21
2626.45
2608.25
2589.62
2570.51
2550.93
2530.84
2510.23
2489.09
2467.42
2445.22
2422.42
2399.02
2375.03
2350.42
2325.18
2299.31
2272.82
2245.69
2217.95
2189.59
2160.63
2131.09
2100.97
2070.07
2985.73
2974
2962.02
2949.76
2937.24
2924.45
2911.4
2898.14
2884.61
2870.81
2856.76
2842.46
2827.91
2813.09
2798.01
2782.63
2766.93
2750.93
2734.64
2718.01
2701.02
2683.65
2665.91
2647.77
2629.23
2610.24
2590.79
2570.89
2550.5
2529.64
2508.29
2486.41
2464
2441.02
2417.49
2393.4
2368.72
2343.45
2317.6
2291.15
2264.11
2236.49
2208.3
2179.57
2150.29
2120.52
2090.26
2059.53
2028.17
2991.78
2978.94
2965.9
2952.63
2939.11
2925.36
2911.35
2897.12
2882.65
2867.92
2852.93
2837.67
2822.13
2806.32
2790.23
2773.82
2757.09
2740.04
2722.66
2704.93
2686.82
2668.32
2649.43
2630.12
2610.39
2590.22
2569.59
2548.51
2526.92
2504.84
2482.27
2459.16
2435.53
2411.35
2386.61
2361.34
2335.5
2309.12
2282.18
2254.7
2226.7
2198.18
2169.16
2139.68
2109.77
2079.45
2048.78
2017.78
1986.3
2978.96
2965.05
2950.92
2936.56
2921.95
2907.11
2892
2876.62
2860.99
2845.09
2828.9
2812.42
2795.64
2778.56
2761.16
2743.42
2725.33
2706.89
2688.08
2668.89
2649.3
2629.3
2608.9
2588.06
2566.76
2544.99
2522.75
2500.04
2476.82
2453.09
2428.85
2404.1
2378.83
2353.03
2326.72
2299.9
2272.58
2244.76
2216.46
2187.7
2158.51
2128.92
2098.97
2068.69
2038.15
2007.38
1976.44
1945.19
2974.93
2960.23
2945.29
2930.12
2914.69
2899
2883.04
2866.81
2850.3
2833.5
2816.4
2798.99
2781.27
2763.22
2744.84
2726.11
2707.02
2687.57
2667.74
2647.53
2626.91
2605.86
2584.39
2562.46
2540.11
2517.28
2493.96
2470.18
2445.91
2421.16
2395.91
2370.18
2343.96
2317.26
2290.1
2262.47
2234.4
2205.9
2177
2147.73
2118.13
2088.23
2058.08
2027.73
1997.26
1966.71
1936.15
1905.47
2951.69
2935.98
2920.01
2903.78
2887.28
2870.48
2853.4
2836.03
2818.35
2800.36
2782.05
2763.41
2744.43
2725.13
2705.46
2685.42
2665
2644.19
2622.99
2601.38
2579.33
2556.86
2533.95
2510.59
2486.78
2462.5
2437.76
2412.57
2386.92
2360.81
2334.25
2307.25
2279.82
2251.98
2223.74
2195.14
2166.18
2136.92
2107.38
2077.62
2047.67
2017.6
1987.48
1957.37
1927.35
1897.48
1867.67
2939.65
2923.17
2906.43
2889.41
2872.1
2854.49
2836.59
2818.37
2799.85
2781.02
2761.85
2742.34
2722.48
2702.27
2681.7
2660.75
2639.41
2617.67
2595.54
2573
2550.03
2526.65
2502.83
2478.57
2453.89
2428.77
2403.22
2377.23
2350.83
2324.01
2296.79
2269.19
2241.22
2212.9
2184.26
2155.34
2126.16
2096.76
2067.21
2037.54
2007.81
1978.1
1948.47
1919.01
1889.79
1860.9
1832.24
2907.04
2889.53
2871.75
2853.67
2835.3
2816.61
2797.6
2778.26
2758.6
2738.61
2718.26
2697.56
2676.49
2655.06
2633.24
2611.06
2588.47
2565.48
2542.1
2518.31
2494.1
2469.49
2444.47
2419.04
2393.21
2366.97
2340.35
2313.36
2286
2258.29
2230.27
2201.95
2173.36
2144.53
2115.51
2086.33
2057.05
2027.71
1998.39
1969.14
1940.04
1911.17
1882.61
1854.44
1826.75
1799.47
2887.79
2869.57
2851.05
2832.22
2813.1
2793.65
2773.87
2753.76
2733.31
2712.53
2691.4
2669.9
2648.04
2625.82
2603.23
2580.26
2556.9
2533.17
2509.04
2484.53
2459.63
2434.34
2408.68
2382.64
2356.23
2329.47
2302.37
2274.94
2247.22
2219.21
2190.96
2162.48
2133.82
2105.02
2076.12
2047.17
2018.23
1989.35
1960.61
1932.07
1903.82
1875.93
1848.5
1821.59
1795.31
1769.58
2865.6
2846.69
2827.46
2807.93
2788.07
2767.9
2747.4
2726.57
2705.39
2683.88
2662.02
2639.8
2617.23
2594.31
2571.02
2547.36
2523.34
2498.95
2474.2
2449.08
2423.6
2397.77
2371.59
2345.09
2318.26
2291.12
2263.7
2236.02
2208.11
2179.99
2151.69
2123.26
2094.74
2066.17
2037.6
2009.1
1980.71
1952.51
1924.57
1896.95
1869.75
1843.04
1816.91
1791.42
1766.7
1742.65
2840.65
2821.07
2801.19
2780.98
2760.46
2739.62
2718.45
2696.95
2675.12
2652.94
2630.43
2607.58
2584.38
2560.84
2536.95
2512.71
2488.12
2463.19
2437.93
2412.33
2386.4
2360.16
2333.62
2306.79
2279.69
2252.34
2224.77
2197.01
2169.08
2141.03
2112.88
2084.69
2056.5
2028.36
2000.33
1972.47
1944.84
1917.5
1890.55
1864.03
1838.05
1812.66
1787.98
1764.04
1740.97
1718.67
2813.15
2792.96
2772.46
2751.64
2730.51
2709.06
2687.29
2665.2
2642.78
2620.03
2596.95
2573.55
2549.81
2525.75
2501.35
2476.64
2451.6
2426.25
2400.59
2374.64
2348.4
2321.89
2295.12
2268.12
2240.91
2213.51
2185.96
2158.29
2130.52
2102.71
2074.9
2047.13
2019.46
1991.93
1964.62
1937.57
1910.87
1884.57
1858.76
1833.48
1808.85
1784.91
1761.77
1739.45
1718.08
1697.56
2783.35
2762.6
2741.54
2720.18
2698.5
2676.51
2654.21
2631.6
2608.68
2585.43
2561.88
2538.02
2513.84
2489.36
2464.57
2439.49
2414.12
2388.46
2362.54
2336.37
2309.95
2283.31
2256.47
2229.45
2202.28
2174.99
2147.62
2120.19
2092.76
2065.37
2038.06
2010.88
1983.89
1957.14
1930.71
1904.64
1879.01
1853.87
1829.32
1805.4
1782.22
1759.79
1738.24
1717.57
1697.91
1679.16
2751.51
2730.25
2708.7
2686.85
2664.7
2642.25
2619.5
2596.45
2573.11
2549.46
2525.53
2501.3
2476.78
2451.99
2426.92
2401.59
2376
2350.17
2324.11
2297.85
2271.39
2244.76
2217.99
2191.1
2164.12
2137.1
2110.06
2083.04
2056.1
2029.28
2002.62
1976.19
1950.03
1924.2
1898.78
1873.81
1849.37
1825.5
1802.31
1779.81
1758.12
1737.24
1717.3
1698.28
1680.31
1663.27
2696.18
2674.21
2651.95
2629.4
2606.56
2583.44
2560.04
2536.37
2512.41
2488.19
2463.7
2438.95
2413.96
2388.72
2363.25
2337.57
2311.69
2285.62
2259.4
2233.03
2206.55
2179.99
2153.37
2126.73
2100.12
2073.56
2047.1
2020.79
1994.67
1968.81
1943.25
1918.05
1893.27
1868.96
1845.19
1822.02
1799.49
1777.7
1756.66
1736.49
1717.16
1698.81
1681.39
1665.04
1649.62
2660.65
2638.32
2615.72
2592.86
2569.72
2546.32
2522.66
2498.74
2474.57
2450.16
2425.52
2400.64
2375.55
2350.26
2324.78
2299.12
2273.31
2247.36
2221.31
2195.17
2168.97
2142.75
2116.54
2090.37
2064.29
2038.35
2012.57
1987.02
1961.74
1936.79
1912.21
1888.07
1864.41
1841.31
1818.79
1796.95
1775.8
1755.44
1735.87
1717.19
1699.38
1682.57
1666.69
1651.86
1637.96
2623.92
2601.31
2578.46
2555.35
2531.99
2508.4
2484.57
2460.51
2436.22
2411.73
2387.03
2362.13
2337.06
2311.82
2286.44
2260.93
2235.31
2209.6
2183.84
2158.05
2132.26
2106.5
2080.82
2055.25
2029.83
2004.61
1979.64
1954.95
1930.61
1906.66
1883.15
1860.14
1837.68
1815.82
1794.61
1774.11
1754.35
1735.41
1717.28
1700.06
1683.71
1668.37
1653.92
1640.53
1628.03
2563.43
2540.4
2517.14
2493.65
2469.95
2446.04
2421.93
2397.63
2373.15
2348.5
2323.69
2298.74
2273.67
2248.5
2223.24
2197.92
2172.57
2147.22
2121.89
2096.62
2071.45
2046.41
2021.54
1996.89
1972.5
1948.41
1924.68
1901.35
1878.48
1856.1
1834.27
1813.04
1792.46
1772.56
1753.41
1735.02
1717.47
1700.73
1684.92
1669.94
1655.96
1642.86
1630.79
1619.61
2524.93
2501.8
2478.47
2454.94
2431.22
2407.33
2383.26
2359.04
2334.67
2310.17
2285.55
2260.83
2236.03
2211.17
2186.28
2161.37
2136.49
2111.65
2086.89
2062.24
2037.75
2013.45
1989.38
1965.58
1942.1
1918.98
1896.27
1874.02
1852.26
1831.05
1810.44
1790.45
1771.15
1752.55
1734.72
1717.65
1701.44
1686.02
1671.52
1657.84
1645.13
1633.28
1622.43
1612.44
2486.05
2462.9
2439.58
2416.1
2392.45
2368.66
2344.73
2320.68
2296.52
2272.26
2247.93
2223.54
2199.11
2174.67
2150.24
2125.84
2101.51
2077.28
2053.19
2029.26
2005.53
1982.05
1958.85
1935.97
1913.47
1891.37
1869.73
1848.58
1827.98
1807.95
1788.55
1769.81
1751.76
1734.43
1717.88
1702.08
1687.12
1672.96
1659.67
1647.2
1635.66
1624.95
1615.21
1606.29
2447
2423.92
2400.7
2377.34
2353.85
2330.25
2306.55
2282.76
2258.9
2234.98
2211.03
2187.06
2163.09
2139.15
2115.27
2091.48
2067.8
2044.26
2020.9
1997.76
1974.87
1952.28
1930.01
1908.11
1886.62
1865.58
1845.03
1825.02
1805.57
1786.73
1768.52
1750.99
1734.16
1718.04
1702.7
1688.11
1674.33
1661.32
1649.17
1637.8
1627.33
1617.66
1608.91
1600.96
2385.07
2362.02
2338.87
2315.63
2292.3
2268.91
2245.47
2221.99
2198.5
2175
2151.54
2128.12
2104.77
2081.52
2058.4
2035.44
2012.66
1990.12
1967.83
1945.83
1924.17
1902.87
1881.98
1861.54
1841.58
1822.13
1803.24
1784.94
1767.26
1750.21
1733.84
1718.18
1703.23
1689.02
1675.55
1662.86
1650.93
1639.81
1629.45
1619.95
1611.21
1603.35
1596.25
2346.54
2323.74
2300.87
2277.95
2254.98
2231.98
2208.96
2185.95
2162.95
2140
2117.11
2094.31
2071.62
2049.07
2026.69
2004.51
1982.56
1960.87
1939.48
1918.42
1897.72
1877.42
1857.57
1838.18
1819.29
1800.94
1783.16
1765.97
1749.4
1733.49
1718.23
1703.67
1689.8
1676.66
1664.23
1652.54
1641.58
1631.41
1621.96
1613.32
1605.42
1598.36
1592.02
2308.49
2286.01
2263.51
2240.97
2218.43
2195.89
2173.37
2150.89
2128.47
2106.13
2083.88
2061.76
2039.8
2018
1996.42
1975.06
1953.98
1933.18
1912.72
1892.62
1872.91
1853.62
1834.79
1816.45
1798.64
1781.35
1764.65
1748.54
1733.04
1718.19
1703.99
1690.45
1677.6
1665.43
1653.95
1643.18
1633.11
1623.78
1615.15
1607.29
1600.13
1593.78
1588.12
2248.99
2226.91
2204.83
2182.78
2160.77
2138.82
2116.93
2095.14
2073.47
2051.92
2030.54
2009.34
1988.35
1967.6
1947.11
1926.92
1907.04
1887.53
1868.39
1849.68
1831.4
1813.59
1796.28
1779.49
1763.25
1747.58
1732.5
1718.02
1704.17
1690.95
1678.37
1666.44
1655.17
1644.56
1634.62
1625.35
1616.79
1608.88
1601.71
1595.22
1589.5
1584.44
2212.79
2191.19
2169.64
2148.14
2126.72
2105.38
2084.15
2063.04
2042.08
2021.28
2000.67
1980.28
1960.13
1940.24
1920.64
1901.35
1882.42
1863.85
1845.69
1827.95
1810.66
1793.85
1777.54
1761.75
1746.51
1731.82
1717.71
1704.19
1691.27
1678.95
1667.25
1656.17
1645.72
1635.89
1626.71
1618.16
1610.27
1603.01
1596.46
1590.56
1585.4
1580.89
2177.51
2156.46
2135.48
2114.58
2093.79
2073.12
2052.58
2032.2
2011.99
1991.98
1972.18
1952.62
1933.32
1914.31
1895.61
1877.25
1859.24
1841.63
1824.41
1807.64
1791.32
1775.47
1760.12
1745.29
1730.99
1717.23
1704.03
1691.39
1679.34
1667.85
1656.96
1646.65
1636.93
1627.81
1619.3
1611.39
1604.11
1597.43
1591.43
1586.05
1581.4
1577.37
2143.24
2122.77
2102.41
2082.16
2062.05
2042.08
2022.27
2002.65
1983.22
1964.02
1945.05
1926.34
1907.91
1889.79
1871.99
1854.54
1837.45
1820.76
1804.48
1788.64
1773.25