/*--------------------------------*- C++ -*----------------------------------*\
| =========                 |                                                 |
| \\      /  F ield         | OpenFOAM: The Open Source CFD Toolbox           |
|  \\    /   O peration     | Version:  v1706                                 |
|   \\  /    A nd           | Web:      www.OpenFOAM.com                      |
|    \\/     M anipulation  |                                                 |
\*---------------------------------------------------------------------------*/
FoamFile
{
    version     2.0;
    format      ascii;
    class       volScalarField;
    location    "6e-06";
    object      Tv;
}
// * * * * * * * * * * * * * * * * * * * * * * * * * * * * * * * * * * * * * //

dimensions      [0 0 0 1 0 0 0];


internalField   nonuniform List<scalar> 
30038
(
144.4
144.4
144.4
144.4
144.4
144.4
144.4
144.4
144.4
144.4
144.4
144.4
144.4
144.4
144.4
144.4
144.4
144.4
144.4
144.4
144.4
144.4
144.4
144.4
144.4
144.4
144.4
144.4
144.4
144.4
144.4
144.4
144.4
144.4
144.4
144.4
144.4
144.4
144.4
144.4
144.4
144.4
144.4
144.4
144.4
144.4
144.4
144.4
144.4
144.4
144.4
144.4
144.4
144.4
144.4
144.4
144.4
144.4
144.4
144.4
144.4
144.4
144.4
144.4
144.4
144.4
144.4
144.4
144.4
144.4
144.4
144.4
144.4
144.4
144.4
144.4
144.4
144.4
144.4
144.4
144.4
144.4
144.4
144.4
144.4
144.4
144.4
144.4
144.4
144.4
144.4
144.4
144.4
144.4
144.4
144.4
144.4
144.4
144.4
144.4
144.4
144.4
144.4
144.4
144.4
144.4
144.4
144.4
144.4
144.4
144.4
144.4
144.4
144.4
144.4
144.4
144.4
144.4
144.4
144.4
144.4
144.4
144.4
144.4
144.4
144.4
144.4
144.4
144.4
144.4
144.4
144.4
144.4
144.4
144.4
144.4
144.4
144.4
144.4
144.4
144.4
144.4
144.4
144.4
144.4
144.4
144.4
144.4
144.4
144.4
144.4
144.4
144.4
144.4
144.4
144.4
144.4
144.4
144.4
144.4
144.4
144.4
144.4
144.4
144.4
144.4
144.4
144.4
144.4
144.4
144.4
144.4
144.4
144.4
144.4
144.4
144.4
144.4
144.4
144.4
144.4
144.4
144.4
144.4
144.4
144.4
144.4
144.4
144.4
144.4
144.4
144.4
144.4
144.4
144.4
144.4
144.4
144.4
144.4
144.4
144.4
144.4
144.4
144.4
144.4
144.4
144.4
144.4
144.4
144.4
144.4
144.4
144.4
144.4
144.4
144.4
144.4
144.4
144.4
144.4
144.4
144.4
144.4
144.4
144.4
144.4
144.4
144.4
144.4
144.4
144.4
144.4
144.4
144.4
144.4
144.4
144.4
144.4
144.4
144.4
144.4
144.4
144.4
144.4
144.4
144.4
144.4
144.4
144.4
144.4
144.4
144.4
144.4
144.4
144.4
144.4
144.4
144.4
144.4
144.4
144.4
144.4
144.4
144.4
144.4
144.4
144.4
144.4
144.4
144.4
144.4
144.4
144.4
144.4
144.4
144.4
144.4
144.4
144.4
144.4
144.4
144.4
144.4
144.4
144.4
144.4
144.4
144.4
144.4
144.4
144.4
144.4
144.4
144.4
144.4
144.4
144.4
144.4
144.4
144.4
144.4
144.4
144.4
144.4
144.4
144.4
144.4
144.4
144.4
144.4
144.4
144.4
144.4
144.4
144.4
144.4
144.4
144.4
144.4
144.4
144.4
144.4
144.4
144.4
144.4
144.4
144.4
144.4
144.4
144.4
144.4
144.4
144.4
144.4
144.4
144.4
144.4
144.4
144.4
144.4
144.4
144.4
144.4
144.4
144.4
144.4
144.4
144.4
144.4
144.4
144.4
144.4
144.4
144.4
144.4
144.4
144.4
144.4
144.4
144.4
144.4
144.4
144.4
144.4
144.4
144.4
144.4
144.4
144.4
144.4
144.4
144.4
144.4
144.4
144.4
144.4
144.4
144.4
144.4
144.4
144.4
144.4
144.4
144.4
144.4
144.4
144.4
144.4
144.4
144.4
144.4
144.4
144.4
144.4
144.4
144.4
144.4
144.4
144.4
144.4
144.4
144.4
144.4
144.4
144.4
144.4
144.4
144.4
144.4
144.4
144.4
144.4
144.4
144.4
144.4
144.4
144.4
144.4
144.4
144.4
144.4
144.4
144.4
144.4
144.4
144.4
144.4
144.4
144.4
144.4
144.4
144.4
144.4
144.4
144.4
144.4
144.4
144.4
144.4
144.4
144.4
144.4
144.4
144.4
144.4
144.4
144.4
144.4
144.4
144.4
144.4
144.4
144.4
144.4
144.4
144.4
144.4
144.4
144.4
144.4
144.4
144.4
144.4
144.4
144.4
144.4
144.4
144.4
144.4
144.4
144.4
144.4
144.4
144.4
144.4
144.4
144.4
144.4
144.4
144.4
144.4
144.4
144.4
144.4
144.4
144.4
144.4
144.4
144.4
144.4
144.4
144.4
144.4
144.4
144.4
144.4
144.4
144.4
144.4
144.4
144.4
144.4
144.4
144.4
144.4
144.4
144.4
144.4
144.4
144.4
144.4
144.4
144.4
144.4
144.4
144.4
144.4
144.4
144.4
144.4
144.4
144.4
144.4
144.4
144.4
144.4
144.4
144.4
144.4
144.4
144.4
144.4
144.4
144.4
144.4
144.4
144.4
144.4
144.4
144.4
144.4
144.4
144.4
144.4
144.4
144.4
144.4
144.4
144.4
144.4
144.4
144.4
144.4
144.4
144.4
144.4
144.4
144.4
144.4
144.4
144.4
144.4
144.4
144.4
144.4
144.4
144.4
144.4
144.4
144.4
144.4
144.4
144.4
144.4
144.4
144.4
144.4
144.4
144.4
144.4
144.4
144.4
144.4
144.4
144.4
144.4
144.4
144.4
144.4
144.4
144.4
144.4
144.4
144.4
144.4
144.4
144.4
144.4
144.4
144.4
144.4
144.4
144.4
144.4
144.4
144.4
144.4
144.4
144.4
144.4
144.4
144.4
144.4
144.4
144.4
144.4
144.4
144.4
144.4
144.4
144.4
144.4
144.4
144.4
144.4
144.4
144.4
144.4
144.4
144.4
144.4
144.4
144.4
144.4
144.4
144.4
144.4
144.4
144.4
144.4
144.4
144.4
144.4
144.4
144.4
144.4
144.4
144.4
144.4
144.4
144.4
144.4
144.4
144.4
144.4
144.4
144.4
144.4
144.4
144.4
144.4
144.4
144.4
144.4
144.4
144.4
144.4
144.4
144.4
144.4
144.4
144.4
144.4
144.4
144.4
144.4
144.4
144.4
144.4
144.4
144.4
144.4
144.4
144.4
144.4
144.4
144.4
144.4
144.4
144.4
144.4
144.4
144.4
144.4
144.4
144.4
144.4
144.4
144.4
144.4
144.4
144.4
144.4
144.4
144.4
144.4
144.4
144.4
144.4
144.4
144.4
144.4
144.4
144.4
144.4
144.4
144.4
144.4
144.4
144.4
144.4
144.4
144.4
144.4
144.4
144.4
144.4
144.4
144.4
144.4
144.4
144.4
144.4
144.4
144.4
144.4
144.4
144.4
144.4
144.4
144.4
144.4
144.4
144.4
144.4
144.4
144.4
144.4
144.4
144.4
144.4
144.4
144.4
144.4
144.4
144.4
144.4
144.4
144.4
144.4
144.4
144.4
144.4
144.4
144.4
144.4
144.4
144.4
144.4
144.4
144.4
144.4
144.4
144.4
144.4
144.4
144.4
144.4
144.4
144.4
144.4
144.4
144.4
144.4
144.4
144.4
144.4
144.4
144.4
144.4
144.4
144.4
144.4
144.4
144.4
144.4
144.4
144.4
144.4
144.4
144.4
144.4
144.4
144.4
144.4
144.4
144.4
144.4
144.4
144.4
144.4
144.4
144.4
144.4
144.4
144.4
144.4
144.4
144.4
144.4
144.4
144.4
144.4
144.4
144.4
144.4
144.4
144.4
144.4
144.4
144.4
144.4
144.4
144.4
144.4
144.4
144.4
144.4
144.4
144.4
144.4
144.4
144.4
144.4
144.4
144.4
144.4
144.4
144.4
144.4
144.4
144.4
144.4
144.4
144.4
144.4
144.4
144.4
144.4
144.4
144.4
144.4
144.4
144.4
144.4
144.4
144.4
144.4
144.4
144.4
144.4
144.4
144.4
144.4
144.4
144.4
144.4
144.4
144.4
144.4
144.4
144.4
144.4
144.4
144.4
144.4
144.4
144.4
144.4
144.4
144.4
144.4
144.4
144.4
144.4
144.4
144.4
144.4
144.4
144.4
144.4
144.4
144.4
144.4
144.4
144.4
144.4
144.4
144.4
144.4
144.4
144.4
144.4
144.4
144.4
144.4
144.4
144.4
144.4
144.4
144.4
144.4
144.4
144.4
144.4
144.4
144.4
144.4
144.4
144.4
144.4
144.4
144.4
144.4
144.4
144.4
144.4
144.4
144.4
144.4
144.4
144.4
144.4
144.4
144.4
144.4
144.4
144.4
144.4
144.4
144.4
144.4
144.4
144.4
144.4
144.4
144.4
144.4
144.4
144.4
144.4
144.4
144.4
144.4
144.4
144.4
144.4
144.4
144.4
144.4
144.4
144.4
144.4
144.4
144.4
144.4
144.4
144.4
144.4
144.4
144.4
144.4
144.4
144.4
144.4
144.4
144.4
144.4
144.4
144.4
144.4
144.4
144.4
144.4
144.4
144.4
144.4
144.4
144.4
144.4
144.4
144.4
144.4
144.4
144.4
144.4
144.4
144.4
144.4
144.4
144.4
144.4
144.4
144.4
144.4
144.4
144.4
144.4
144.4
144.4
144.4
144.4
144.4
144.4
144.4
144.4
144.4
144.4
144.4
144.4
144.4
144.4
144.4
144.4
144.4
144.4
144.4
144.4
144.4
144.4
144.4
144.4
144.4
144.4
144.4
144.4
144.4
144.4
144.4
144.4
144.4
144.4
144.4
144.4
144.4
144.4
144.4
144.4
144.4
144.4
144.4
144.4
144.4
144.4
144.4
144.4
144.4
144.4
144.4
144.4
144.4
144.4
144.4
144.4
144.4
144.4
144.4
144.4
144.4
144.4
144.4
144.4
144.4
144.4
144.4
144.4
144.4
144.4
144.4
144.4
144.4
144.4
144.4
144.4
144.4
144.4
144.4
144.4
144.4
144.4
144.4
144.4
144.4
144.4
144.4
144.4
144.4
144.4
144.4
144.4
144.4
144.4
144.4
144.4
144.4
144.4
144.4
144.4
144.4
144.4
144.4
144.4
144.4
144.4
144.4
144.4
144.4
144.4
144.4
144.4
144.4
144.4
144.4
144.4
144.4
144.4
144.4
144.4
144.4
144.4
144.4
144.4
144.4
144.4
144.4
144.4
144.4
144.4
144.4
144.4
144.4
144.4
144.4
144.4
144.4
144.4
144.4
144.4
144.4
144.4
144.4
144.4
144.4
144.4
144.4
144.4
144.4
144.4
144.4
144.4
144.4
144.4
144.4
144.4
144.4
144.4
144.4
144.4
144.4
144.4
144.4
144.4
144.4
144.4
144.4
144.4
144.4
144.4
144.4
144.4
144.4
144.4
144.4
144.4
144.4
144.4
144.4
144.4
144.4
144.4
144.4
144.4
144.4
144.4
144.4
144.4
144.4
144.4
144.4
144.4
144.4
144.4
144.4
144.4
144.4
144.4
144.4
144.4
144.4
144.4
144.4
144.4
144.4
144.4
144.4
144.4
144.4
144.4
144.4
144.4
144.4
144.4
144.4
144.4
144.4
144.4
144.4
144.4
144.4
144.4
144.4
144.4
144.4
144.4
144.4
144.4
144.4
144.4
144.4
144.4
144.4
144.4
144.4
144.4
144.4
144.4
144.4
144.4
144.4
144.4
144.4
144.4
144.4
144.4
144.4
144.4
144.4
144.4
144.4
144.4
144.4
144.4
144.4
144.4
144.4
144.4
144.4
144.4
144.4
144.4
144.4
144.4
144.4
144.4
144.4
144.4
144.4
144.4
144.4
144.4
144.4
144.4
144.4
144.4
144.4
144.4
144.4
144.4
144.4
144.4
144.4
144.4
144.4
144.4
144.4
144.4
144.4
144.4
144.4
144.4
144.4
144.4
144.4
144.4
144.4
144.4
144.4
144.4
144.4
144.4
144.4
144.4
144.4
144.4
144.4
144.4
144.4
144.4
144.4
144.4
144.4
144.4
144.4
144.4
144.4
144.4
144.4
144.4
144.4
144.4
144.4
144.4
144.4
144.4
144.4
144.4
144.4
144.4
144.4
144.4
144.4
144.4
144.4
144.4
144.4
144.4
144.4
144.4
144.4
144.4
144.4
144.4
144.4
144.4
144.4
144.4
144.4
144.4
144.4
144.4
144.4
144.4
144.4
144.4
144.4
144.4
144.4
144.4
144.4
144.4
144.4
144.4
144.4
144.4
144.4
144.4
144.4
144.4
144.4
144.4
144.4
144.4
144.4
144.4
144.4
144.4
144.4
144.4
144.4
144.4
144.4
144.4
144.4
144.4
144.4
144.4
144.4
144.4
144.4
144.4
144.4
144.4
144.4
144.4
144.4
144.4
144.4
144.4
144.4
144.4
144.4
144.4
144.4
144.4
144.4
144.4
144.4
144.4
144.4
144.4
144.4
144.4
144.4
144.4
144.4
144.4
144.4
144.4
144.4
144.4
144.4
144.4
144.4
144.4
144.4
144.4
144.4
144.4
144.4
144.4
144.4
144.4
144.4
144.4
144.4
144.4
144.4
144.4
144.4
144.4
144.4
144.4
144.4
144.4
144.4
144.4
144.4
144.4
144.4
144.4
144.4
144.4
144.4
144.4
144.4
144.4
144.4
144.4
144.4
144.4
144.4
144.4
144.4
144.4
144.4
144.4
144.4
144.4
144.4
144.4
144.4
144.4
144.4
144.4
144.4
144.4
144.4
144.4
144.4
144.4
144.4
144.4
144.4
144.4
144.4
144.4
144.4
144.4
144.4
144.4
144.4
144.4
144.4
144.4
144.4
144.4
144.4
144.4
144.4
144.4
144.4
144.4
144.4
144.4
144.4
144.4
144.4
144.4
144.4
144.4
144.4
144.4
144.4
144.4
144.4
144.4
144.4
144.4
144.4
144.4
144.4
144.4
144.4
144.4
144.4
144.4
144.4
144.4
144.4
144.4
144.4
144.4
144.4
144.4
144.4
144.4
144.4
144.4
144.4
144.4
144.4
144.4
144.4
144.4
144.4
144.4
144.4
144.4
144.4
144.4
144.4
144.4
144.4
144.4
144.4
144.4
144.4
144.4
144.4
144.4
144.4
144.4
144.4
144.4
144.4
144.4
144.4
144.4
144.4
144.4
144.401
144.401
144.4
144.4
144.4
144.4
144.4
144.4
144.4
144.4
144.4
144.4
144.4
144.4
144.4
144.4
144.4
144.4
144.4
144.4
144.4
144.4
144.4
144.4
144.4
144.4
144.4
144.4
144.4
144.4
144.4
144.4
144.4
144.4
144.4
144.4
144.4
144.4
144.4
144.4
144.4
144.4
144.401
144.401
144.401
144.402
144.402
144.403
144.404
144.405
144.406
144.409
144.4
144.4
144.4
144.4
144.4
144.4
144.4
144.4
144.4
144.4
144.4
144.4
144.4
144.4
144.4
144.4
144.4
144.4
144.4
144.4
144.4
144.4
144.4
144.4
144.4
144.4
144.4
144.4
144.4
144.4
144.4
144.4
144.401
144.401
144.401
144.401
144.402
144.403
144.404
144.405
144.407
144.409
144.412
144.416
144.421
144.428
144.436
144.448
144.462
144.487
144.4
144.4
144.4
144.4
144.4
144.4
144.4
144.4
144.4
144.4
144.4
144.4
144.4
144.4
144.4
144.4
144.4
144.4
144.4
144.4
144.4
144.4
144.4
144.4
144.4
144.401
144.401
144.401
144.402
144.402
144.403
144.404
144.405
144.407
144.41
144.414
144.419
144.426
144.435
144.447
144.463
144.485
144.514
144.551
144.6
144.663
144.745
144.848
144.979
145.191
144.4
144.4
144.4
144.4
144.4
144.4
144.4
144.4
144.4
144.4
144.4
144.4
144.4
144.4
144.4
144.4
144.4
144.4
144.401
144.401
144.401
144.402
144.402
144.403
144.404
144.406
144.408
144.411
144.415
144.42
144.428
144.438
144.452
144.471
144.497
144.532
144.579
144.642
144.726
144.835
144.979
145.166
145.405
145.708
146.086
146.549
147.106
147.763
148.527
149.599
144.4
144.4
144.4
144.4
144.4
144.4
144.4
144.4
144.4
144.4
144.401
144.401
144.401
144.401
144.402
144.402
144.403
144.404
144.406
144.408
144.411
144.415
144.421
144.429
144.44
144.454
144.474
144.502
144.539
144.59
144.659
144.751
144.875
145.04
145.259
145.544
145.911
146.374
146.949
147.65
148.486
149.462
150.576
151.821
153.185
154.654
156.212
157.841
159.535
161.581
144.4
144.4
144.4
144.401
144.401
144.401
144.402
144.402
144.403
144.404
144.405
144.407
144.409
144.412
144.417
144.423
144.431
144.442
144.457
144.477
144.505
144.543
144.595
144.665
144.76
144.887
145.058
145.286
145.585
145.973
146.469
147.089
147.853
148.775
149.863
151.116
152.521
154.064
155.733
157.513
159.389
161.345
163.366
165.437
167.546
169.677
171.818
173.957
176.095
178.472
144.402
144.403
144.403
144.405
144.406
144.408
144.411
144.414
144.419
144.426
144.434
144.446
144.462
144.484
144.513
144.552
144.605
144.676
144.772
144.901
145.073
145.301
145.6
145.989
146.488
147.117
147.894
148.831
149.942
151.228
152.684
154.294
156.044
157.925
159.927
162.039
164.238
166.503
168.819
171.178
173.572
175.99
178.419
180.847
183.258
185.638
187.97
190.241
192.439
194.572
196.783
144.418
144.424
144.432
144.442
144.456
144.474
144.498
144.53
144.573
144.63
144.706
144.808
144.942
145.12
145.353
145.656
146.048
146.547
147.172
147.94
148.871
149.971
151.243
152.685
154.293
156.056
157.957
159.98
162.119
164.365
166.702
169.111
171.58
174.107
176.692
179.327
181.989
184.647
187.286
189.897
192.47
194.994
197.454
199.837
202.131
204.325
206.408
208.375
210.222
211.968
213.691
144.524
144.562
144.613
144.68
144.768
144.882
145.032
145.228
145.48
145.804
146.214
146.729
147.368
148.147
149.076
150.164
151.418
152.839
154.417
156.142
158.004
159.998
162.114
164.333
166.647
169.057
171.556
174.127
176.757
179.446
182.191
184.972
187.762
190.546
193.316
196.072
198.81
201.497
204.097
206.596
208.995
211.292
213.484
215.566
217.536
219.388
221.121
222.734
224.227
225.605
226.888
228.121
145.422
145.713
146.08
146.538
147.102
147.785
148.602
149.563
150.676
151.937
153.343
154.895
156.589
158.414
160.356
162.407
164.566
166.832
169.192
171.633
174.155
176.761
179.443
182.179
184.961
187.79
190.659
193.538
196.404
199.257
202.096
204.894
207.616
210.25
212.794
215.26
217.649
219.937
222.095
224.123
226.034
227.836
229.533
231.126
232.613
233.995
235.274
236.45
237.527
238.508
239.412
240.271
150.397
151.56
152.863
154.3
155.863
157.544
159.339
161.247
163.259
165.363
167.553
169.833
172.208
174.669
177.202
179.8
182.472
185.217
188.018
190.85
193.712
196.606
199.515
202.405
205.26
208.089
210.885
213.615
216.252
218.807
221.292
223.685
225.958
228.114
230.156
232.115
234.015
235.823
237.507
239.071
240.531
241.9
243.185
244.383
245.496
246.524
247.467
248.324
249.099
249.795
250.426
251.018
162.719
164.7
166.771
168.928
171.163
173.47
175.854
178.319
180.86
183.459
186.11
188.82
191.595
194.418
197.261
200.112
202.977
205.854
208.715
211.527
214.29
217.019
219.7
222.294
224.79
227.214
229.565
231.817
233.949
235.996
237.988
239.897
241.692
243.376
244.96
246.478
247.934
249.305
250.579
251.766
252.878
253.919
254.894
255.802
256.642
257.414
258.118
258.752
259.316
259.811
260.25
260.656
180.164
182.639
185.181
187.787
190.443
193.136
195.871
198.652
201.464
204.279
207.082
209.879
212.678
215.456
218.181
220.839
223.45
226.023
228.531
230.94
233.261
235.522
237.71
239.796
241.778
243.707
245.587
247.379
249.059
250.668
252.218
253.691
255.077
256.381
257.61
258.807
259.978
261.09
262.112
263.051
263.92
264.727
265.476
266.167
266.798
267.369
267.879
268.326
268.706
269.021
269.278
269.501
200.856
203.594
206.351
209.12
211.881
214.613
217.321
220.014
222.674
225.272
227.796
230.262
232.695
235.075
237.366
239.563
241.697
243.778
245.786
247.694
249.525
251.328
253.081
254.743
256.314
257.838
259.309
260.704
262.017
263.301
264.562
265.771
266.901
267.953
268.944
269.901
270.819
271.686
272.491
273.237
273.928
274.565
275.145
275.669
276.131
276.529
276.865
277.128
277.315
277.434
277.482
277.482
222.619
225.216
227.775
230.293
232.751
235.133
237.452
239.737
241.968
244.117
246.176
248.17
250.125
252.022
253.836
255.567
257.261
258.932
260.547
262.072
263.536
264.969
266.352
267.66
268.913
270.157
271.376
272.533
273.62
274.669
275.68
276.644
277.554
278.413
279.232
280.02
280.765
281.457
282.091
282.668
283.191
283.654
284.055
284.395
284.66
284.851
284.974
285.005
284.947
284.821
284.605
284.335
244.945
247.065
249.14
251.149
253.078
254.943
256.772
258.548
260.251
261.879
263.463
265.037
266.573
268.036
269.427
270.792
272.13
273.415
274.632
275.825
277.016
278.175
279.271
280.319
281.342
282.33
283.272
284.176
285.053
285.894
286.69
287.434
288.131
288.791
289.413
289.989
290.506
290.956
291.341
291.661
291.904
292.078
292.182
292.19
292.121
291.978
291.742
291.41
290.988
290.477
289.907
261.955
263.654
265.312
266.912
268.446
269.938
271.419
272.866
274.249
275.568
276.856
278.13
279.367
280.545
281.679
282.814
283.94
285.025
286.054
287.057
288.042
288.995
289.908
290.793
291.654
292.478
293.259
294.007
294.727
295.409
296.041
296.617
297.139
297.61
298.03
298.392
298.682
298.896
299.04
299.108
299.08
298.987
298.815
298.554
298.205
297.771
297.248
296.635
295.931
295.138
294.28
276.642
278.019
279.374
280.686
281.942
283.168
284.38
285.557
286.685
287.767
288.843
289.921
290.97
291.97
292.934
293.888
294.828
295.734
296.606
297.459
298.287
299.08
299.84
300.574
301.281
301.947
302.566
303.144
303.68
304.163
304.587
304.948
305.247
305.478
305.649
305.755
305.775
305.717
305.594
305.388
305.096
304.723
304.271
303.736
303.117
302.412
301.622
300.745
299.78
298.727
297.604
290.829
291.952
293.036
294.08
295.111
296.14
297.144
298.105
299.029
299.944
300.852
301.736
302.586
303.411
304.22
305.005
305.759
306.484
307.188
307.863
308.497
309.092
309.65
310.167
310.633
311.044
311.404
311.709
311.946
312.12
312.229
312.269
312.231
312.138
311.974
311.731
311.41
311.014
310.541
309.99
309.36
308.651
307.862
306.992
306.04
305.005
303.884
302.678
301.385
300.019
302.555
303.51
304.436
305.332
306.216
307.093
307.948
308.77
309.565
310.344
311.107
311.842
312.547
313.23
313.891
314.52
315.111
315.668
316.19
316.671
317.104
317.488
317.824
318.108
318.331
318.496
318.606
318.655
318.627
318.543
318.395
318.178
317.89
317.535
317.112
316.618
316.05
315.408
314.691
313.9
313.032
312.088
311.066
309.965
308.784
307.522
306.178
304.75
303.238
301.649
313.519
314.339
315.136
315.908
316.665
317.404
318.117
318.8
319.458
320.095
320.705
321.28
321.819
322.328
322.802
323.234
323.621
323.965
324.265
324.513
324.706
324.85
324.941
324.974
324.941
324.859
324.719
324.517
324.249
323.917
323.522
323.063
322.539
321.948
321.291
320.565
319.768
318.9
317.96
316.946
315.86
314.699
313.462
312.149
310.758
309.289
307.741
306.11
304.398
302.61
323.869
324.558
325.221
325.861
326.477
327.065
327.62
328.14
328.629
329.086
329.504
329.88
330.215
330.51
330.761
330.962
331.117
331.226
331.288
331.288
331.239
331.145
330.996
330.79
330.525
330.205
329.829
329.396
328.901
328.344
327.726
327.045
326.302
325.495
324.622
323.683
322.675
321.599
320.453
319.237
317.949
316.589
315.156
313.65
312.067
310.408
308.675
306.862
304.971
303.005
333.575
334.108
334.611
335.082
335.521
335.923
336.284
336.605
336.888
337.13
337.327
337.478
337.589
337.655
337.673
337.639
337.564
337.443
337.273
337.051
336.778
336.455
336.082
335.656
335.176
334.641
334.051
333.405
332.7
331.936
331.113
330.229
329.285
328.278
327.207
326.072
324.872
323.605
322.271
320.868
319.396
317.854
316.241
314.557
312.801
310.971
309.071
307.116
305.098
303.008
342.468
342.811
343.118
343.389
343.621
343.808
343.954
344.059
344.123
344.142
344.113
344.044
343.936
343.782
343.582
343.335
343.043
342.707
342.325
341.895
341.416
340.888
340.311
339.683
339.003
338.27
337.484
336.643
335.746
334.791
333.779
332.709
331.579
330.389
329.137
327.823
326.445
325.003
323.495
321.921
320.281
318.572
316.795
314.952
313.056
311.103
309.085
306.999
304.849
302.634
350.388
350.523
350.622
350.682
350.699
350.67
350.604
350.501
350.355
350.165
349.932
349.657
349.342
348.985
348.586
348.142
347.655
347.123
346.547
345.925
345.257
344.541
343.776
342.963
342.1
341.185
340.218
339.198
338.124
336.995
335.809
334.567
333.267
331.908
330.49
329.01
327.468
325.865
324.199
322.467
320.674
318.83
316.932
314.974
312.952
310.871
308.732
306.53
304.269
301.948
357.229
357.127
356.985
356.803
356.58
356.317
356.016
355.676
355.296
354.875
354.414
353.912
353.37
352.787
352.162
351.494
350.784
350.031
349.233
348.39
347.501
346.565
345.581
344.549
343.467
342.334
341.149
339.912
338.621
337.275
335.875
334.417
332.902
331.33
329.698
328.006
326.256
324.457
322.608
320.703
318.737
316.716
314.64
312.504
310.312
308.069
305.774
303.431
301.037
363.011
362.72
362.393
362.029
361.626
361.184
360.705
360.189
359.633
359.039
358.407
357.734
357.023
356.272
355.48
354.647
353.773
352.856
351.896
350.892
349.844
348.75
347.609
346.421
345.184
343.898
342.561
341.173
339.733
338.238
336.691
335.088
333.429
331.715
329.956
328.15
326.29
324.375
322.407
320.387
318.309
316.178
313.997
311.767
309.49
307.169
304.809
302.412
299.976
367.96
367.499
367.003
366.471
365.903
365.298
364.656
363.978
363.262
362.509
361.719
360.89
360.023
359.117
358.171
357.186
356.16
355.093
353.984
352.832
351.636
350.396
349.11
347.777
346.397
344.969
343.49
341.962
340.383
338.751
337.068
335.342
333.573
331.753
329.882
327.96
325.99
323.965
321.889
319.764
317.592
315.374
313.113
310.812
308.474
306.103
303.704
301.282
298.837
371.549
370.898
370.213
369.493
368.738
367.947
367.12
366.257
365.357
364.421
363.448
362.437
361.388
360.301
359.175
358.009
356.802
355.555
354.265
352.932
351.556
350.135
348.667
347.155
345.594
343.984
342.327
340.63
338.892
337.106
335.272
333.392
331.465
329.487
327.459
325.386
323.267
321.103
318.896
316.65
314.366
312.048
309.7
307.327
304.933
302.525
300.11
297.688
374.945
374.153
373.327
372.467
371.573
370.643
369.679
368.68
367.645
366.574
365.467
364.323
363.142
361.923
360.667
359.37
358.034
356.658
355.24
353.779
352.277
350.73
349.138
347.501
345.829
344.117
342.361
340.559
338.715
336.826
334.889
332.905
330.877
328.806
326.691
324.534
322.339
320.106
317.838
315.539
313.211
310.861
308.491
306.109
303.721
301.334
298.956
296.59
376.83
375.874
374.884
373.861
372.804
371.713
370.587
369.427
368.231
366.999
365.732
364.427
363.086
361.707
360.289
358.832
357.337
355.798
354.219
352.599
350.947
349.258
347.526
345.753
343.939
342.084
340.183
338.237
336.25
334.222
332.151
330.041
327.892
325.706
323.486
321.233
318.951
316.642
314.312
311.965
309.606
307.241
304.878
302.523
300.187
297.876
295.597
378.983
377.906
376.797
375.654
374.478
373.269
372.025
370.748
369.435
368.088
366.705
365.285
363.829
362.337
360.805
359.235
357.628
355.993
354.321
352.61
350.86
349.073
347.247
345.377
343.466
341.516
339.525
337.495
335.427
333.321
331.179
329.003
326.794
324.555
322.288
319.997
317.686
315.359
313.021
310.678
308.336
306.002
303.684
301.391
299.132
296.917
294.751
379.471
378.249
376.995
375.708
374.388
373.035
371.648
370.226
368.771
367.279
365.752
364.189
362.595
360.972
359.313
357.618
355.888
354.124
352.323
350.48
348.599
346.681
344.725
342.731
340.7
338.634
336.533
334.397
332.23
330.032
327.806
325.555
323.28
320.987
318.679
316.36
314.036
311.713
309.398
307.097
304.819
302.573
300.367
298.211
296.113
294.082
380.606
379.281
377.922
376.531
375.107
373.652
372.161
370.637
369.079
367.497
365.884
364.237
362.556
360.843
359.097
357.316
355.496
353.641
351.752
349.826
347.865
345.869
343.839
341.775
339.678
337.55
335.391
333.204
330.99
328.752
326.494
324.217
321.926
319.626
317.32
315.015
312.717
310.432
308.168
305.933
303.735
301.582
299.485
297.451
295.49
293.609
381.348
379.925
378.467
376.978
375.458
373.909
372.334
370.729
369.091
367.423
365.725
363.995
362.231
360.431
358.599
356.735
354.836
352.904
350.939
348.941
346.911
344.85
342.758
340.636
338.486
336.309
334.108
331.884
329.64
327.379
325.105
322.822
320.534
318.246
315.963
313.693
311.442
309.217
307.026
304.877
302.779
300.739
298.767
296.87
295.057
293.333
381.725
380.209
378.67
377.103
375.505
373.876
372.22
370.535
368.819
367.069
365.287
363.476
361.633
359.757
357.851
355.914
353.946
351.947
349.918
347.86
345.773
343.658
341.516
339.35
337.161
334.95
332.72
330.475
328.217
325.95
323.678
321.407
319.14
316.884
314.645
312.43
310.246
308.101
306.002
303.957
301.975
300.062
298.226
296.475
294.814
293.237
381.797
380.206
378.589
376.944
375.271
373.566
371.83
370.065
368.272
366.448
364.593
362.71
360.798
358.856
356.885
354.886
352.859
350.804
348.722
346.615
344.482
342.326
340.148
337.951
335.736
333.505
331.263
329.012
326.757
324.501
322.249
320.007
317.78
315.575
313.398
311.257
309.158
307.108
305.117
303.19
301.334
299.557
297.863
296.259
294.736
293.297
381.591
379.929
378.235
376.513
374.764
372.986
371.18
369.345
367.483
365.593
363.676
361.731
359.758
357.759
355.734
353.683
351.607
349.506
347.383
345.237
343.072
340.887
338.686
336.471
334.244
332.009
329.769
327.529
325.292
323.064
320.849
318.654
316.485
314.347
312.249
310.197
308.197
306.257
304.384
302.583
300.86
299.221
297.67
296.196
294.804
293.504
381.114
379.38
377.618
375.828
374.013
372.17
370.301
368.406
366.484
364.537
362.564
360.566
358.543
356.496
354.426
352.333
350.219
348.084
345.93
343.758
341.571
339.371
337.16
334.941
332.717
330.492
328.27
326.055
323.853
321.668
319.507
317.375
315.278
313.224
311.218
309.268
307.378
305.557
303.808
302.137
300.548
299.045
297.617
296.268
295.006
293.829
378.594
376.77
374.921
373.046
371.147
369.223
367.274
365.301
363.305
361.285
359.243
357.179
355.094
352.989
350.865
348.723
346.565
344.392
342.206
340.011
337.807
335.599
333.39
331.183
328.983
326.793
324.62
322.467
320.341
318.247
316.192
314.182
312.222
310.319
308.479
306.707
305.007
303.385
301.842
300.384
298.998
297.689
296.462
295.314
294.243
377.597
375.719
373.816
371.891
369.942
367.97
365.976
363.961
361.924
359.867
357.79
355.694
353.581
351.451
349.305
347.147
344.976
342.796
340.609
338.417
336.223
334.032
331.846
329.67
327.508
325.365
323.246
321.156
319.102
317.089
315.122
313.208
311.352
309.559
307.834
306.181
304.604
303.105
301.686
300.34
299.066
297.87
296.749
295.698
294.715
376.414
374.488
372.54
370.571
368.58
366.569
364.538
362.488
360.419
358.333
356.231
354.113
351.98
349.836
347.68
345.515
343.344
341.168
338.991
336.815
334.644
332.482
330.332
328.2
326.089
324.006
321.954
319.939
317.968
316.045
314.175
312.364
310.617
308.937
307.328
305.793
304.334
302.952
301.641
300.399
299.231
298.134
297.103
296.132
295.219
373.103
371.116
369.11
367.086
365.043
362.983
360.907
358.815
356.709
354.59
352.459
350.318
348.169
346.013
343.854
341.693
339.533
337.378
335.23
333.093
330.973
328.871
326.795
324.747
322.734
320.759
318.83
316.949
315.123
313.356
311.652
310.015
308.447
306.952
305.53
304.182
302.903
301.69
300.547
299.471
298.456
297.499
296.593
295.735
371.585
369.567
367.532
365.481
363.414
361.334
359.24
357.133
355.016
352.89
350.756
348.617
346.474
344.329
342.185
340.045
337.913
335.79
333.682
331.591
329.523
327.481
325.471
323.496
321.562
319.674
317.835
316.052
314.327
312.665
311.068
309.539
308.08
306.692
305.375
304.127
302.94
301.818
300.76
299.76
298.814
297.915
297.06
296.245
369.956
367.913
365.857
363.787
361.705
359.612
357.509
355.397
353.278
351.154
349.027
346.899
344.771
342.647
340.53
338.422
336.327
334.248
332.189
330.155
328.149
326.176
324.24
322.347
320.499
318.702
316.96
315.276
313.653
312.095
310.603
309.179
307.822
306.533
305.312
304.148
303.046
302.003
301.016
300.079
299.187
298.335
297.518
296.733
368.236
366.177
364.107
362.026
359.937
357.839
355.735
353.627
351.515
349.403
347.291
345.183
343.081
340.988
338.907
336.841
334.793
332.768
330.768
328.799
326.864
324.967
323.113
321.306
319.549
317.847
316.202
314.618
313.096
311.638
310.246
308.919
307.656
306.459
305.316
304.231
303.203
302.226
301.297
300.41
299.561
298.743
297.954
297.19
364.377
362.301
360.217
358.128
356.034
353.938
351.842
349.746
347.654
345.568
343.49
341.423
339.37
337.334
335.318
333.326
331.363
329.43
327.533
325.675
323.861
322.093
320.376
318.712
317.105
315.557
314.07
312.645
311.282
309.982
308.744
307.567
306.445
305.375
304.359
303.392
302.47
301.587
300.739
299.921
299.129
298.359
297.607
362.533
360.458
358.379
356.298
354.217
352.137
350.06
347.989
345.926
343.874
341.834
339.81
337.806
335.823
333.866
331.939
330.043
328.184
326.365
324.589
322.861
321.182
319.555
317.985
316.471
315.017
313.622
312.288
311.013
309.797
308.639
307.535
306.48
305.474
304.515
303.598
302.718
301.871
301.052
300.258
299.483
298.724
297.98
360.663
358.596
356.529
354.464
352.403
350.347
348.299
346.261
344.235
342.224
340.231
338.258
336.31
334.388
332.496
330.638
328.817
327.036
325.298
323.607
321.966
320.376
318.84
317.359
315.936
314.57
313.262
312.011
310.816
309.676
308.588
307.546
306.55
305.598
304.685
303.807
302.961
302.141
301.343
300.564
299.8
299.047
298.303
356.731
354.684
352.643
350.609
348.585
346.573
344.574
342.593
340.631
338.692
336.777
334.891
333.036
331.214
329.431
327.687
325.987
324.333
322.728
321.173
319.67
318.221
316.828
315.489
314.206
312.977
311.802
310.677
309.602
308.574
307.586
306.64
305.732
304.856
304.009
303.187
302.387
301.603
300.834
300.075
299.323
298.577
354.879
352.859
350.848
348.849
346.864
344.894
342.943
341.013
339.107
337.226
335.375
333.556
331.772
330.025
328.319
326.656
325.037
323.467
321.945
320.475
319.057
317.691
316.379
315.119
313.911
312.753
311.645
310.583
309.564
308.586
307.645
306.74
305.865
305.018
304.195
303.391
302.603
301.829
301.064
300.306
299.551
298.799
353.053
351.066
349.093
347.135
345.195
343.274
341.376
339.503
337.658
335.842
334.059
332.311
330.601
328.93
327.303
325.719
324.183
322.694
321.255
319.865
318.527
317.239
316.001
314.813
313.672
312.578
311.528
310.519
309.549
308.613
307.71
306.837
305.99
305.164
304.357
303.566
302.786
302.016
301.251
300.491
299.731
298.971
351.265
349.318
347.388
345.478
343.588
341.722
339.883
338.071
336.29
334.543
332.83
331.156
329.521
327.928
326.379
324.875
323.418