/*--------------------------------*- C++ -*----------------------------------*\
| =========                 |                                                 |
| \\      /  F ield         | OpenFOAM: The Open Source CFD Toolbox           |
|  \\    /   O peration     | Version:  v1706                                 |
|   \\  /    A nd           | Web:      www.OpenFOAM.com                      |
|    \\/     M anipulation  |                                                 |
\*---------------------------------------------------------------------------*/
FoamFile
{
    version     2.0;
    format      ascii;
    class       volVectorField;
    location    "6e-06";
    object      U;
}
// * * * * * * * * * * * * * * * * * * * * * * * * * * * * * * * * * * * * * //

dimensions      [0 1 -1 0 0 0 0];


internalField   nonuniform List<vector> 
30038
(
(2764.5 -3.69902e-11 9.38876e-15)
(2764.5 -3.2219e-11 1.88291e-15)
(2764.5 -3.32e-11 6.73112e-15)
(2764.5 -3.45799e-11 3.87207e-15)
(2764.5 -4.02007e-11 4.39421e-15)
(2764.5 -3.85439e-11 3.07537e-15)
(2764.5 -3.83986e-11 6.93555e-15)
(2764.5 -4.0101e-11 9.15646e-15)
(2764.5 -4.02377e-11 6.77655e-15)
(2764.5 -3.9245e-11 3.11624e-15)
(2764.5 -3.65398e-11 1.06881e-14)
(2764.5 -3.6952e-11 7.68187e-15)
(2764.5 -3.79211e-11 5.73352e-15)
(2764.5 -3.8373e-11 3.78171e-15)
(2764.5 -4.14651e-11 2.32282e-15)
(2764.5 -4.60219e-11 1.14128e-14)
(2764.5 -4.95851e-11 6.94532e-15)
(2764.5 -5.1453e-11 2.74704e-15)
(2764.5 -5.13459e-11 3.24842e-15)
(2764.5 -5.10692e-11 7.53794e-15)
(2764.5 -5.19134e-11 4.99092e-15)
(2764.5 -5.61567e-11 1.01047e-14)
(2764.5 -5.87257e-11 -1.98289e-16)
(2764.5 -6.12898e-11 7.66067e-15)
(2764.5 -6.257e-11 8.61509e-15)
(2764.5 -6.48366e-11 4.30088e-15)
(2764.5 -6.37184e-11 1.53403e-15)
(2764.5 -6.26884e-11 4.07746e-15)
(2764.5 -6.29092e-11 9.4812e-15)
(2764.5 -6.21942e-11 1.02914e-14)
(2764.5 -5.90424e-11 4.43698e-15)
(2764.5 -6.34389e-11 1.04077e-14)
(2764.5 -6.51358e-11 8.27858e-15)
(2764.5 -7.01433e-11 6.06015e-15)
(2764.5 -7.3498e-11 8.7143e-15)
(2764.5 -7.81154e-11 1.14368e-14)
(2764.5 -7.33839e-11 8.49711e-16)
(2764.5 -7.57439e-11 3.4819e-15)
(2764.5 -1.19726e-10 1.92853e-14)
(2764.5 -1.1683e-10 1.85432e-14)
(2764.5 -1.19503e-10 2.35342e-14)
(2764.5 -1.08944e-10 1.05802e-14)
(2764.5 -1.10677e-10 2.58327e-14)
(2764.5 -1.18865e-10 2.20703e-14)
(2764.5 -1.17208e-10 2.34449e-14)
(2764.5 -1.18984e-10 2.33468e-14)
(2764.5 -1.20759e-10 1.92526e-14)
(2764.5 -1.24428e-10 2.00214e-14)
(2764.5 -1.30923e-10 2.45897e-14)
(2764.5 -1.25828e-10 1.54021e-14)
(2764.5 -1.32197e-10 1.91803e-14)
(2764.5 -1.28793e-10 2.02453e-14)
(2764.5 -1.27592e-10 1.57058e-14)
(2764.5 -1.28549e-10 1.91899e-14)
(2764.5 -1.28723e-10 1.87592e-14)
(2764.5 -1.35401e-10 2.09733e-14)
(2764.5 -1.39209e-10 1.63657e-14)
(2764.5 -1.42935e-10 1.84542e-14)
(2764.5 -1.43702e-10 1.63076e-14)
(2764.5 -1.46713e-10 2.13713e-14)
(2764.5 -1.47213e-10 1.98928e-14)
(2764.5 -1.52511e-10 1.98014e-14)
(2764.5 -1.49841e-10 1.82281e-14)
(2764.5 -1.59048e-10 1.85257e-14)
(2764.5 -1.64615e-10 1.87214e-14)
(2764.5 -1.71262e-10 1.72791e-14)
(2764.5 -1.76864e-10 1.76767e-14)
(2764.5 -1.83244e-10 2.41923e-14)
(2764.5 -1.83606e-10 1.27096e-14)
(2764.5 -1.81286e-10 2.3324e-14)
(2764.5 -1.88817e-10 2.83177e-14)
(2764.5 -1.89412e-10 2.19408e-14)
(2764.5 -1.9589e-10 2.49415e-14)
(2764.5 -2.0051e-10 1.91599e-14)
(2764.5 -2.12388e-10 1.91699e-14)
(2764.5 -2.19398e-10 2.10364e-14)
(2764.5 -1.87266e-10 3.23423e-14)
(2764.5 -1.89157e-10 3.61121e-14)
(2764.5 -1.95182e-10 3.59619e-14)
(2764.5 -1.97314e-10 2.83826e-14)
(2764.5 -1.87621e-10 2.96561e-14)
(2764.5 -1.90443e-10 3.29978e-14)
(2764.5 -1.93479e-10 3.75451e-14)
(2764.5 -1.93573e-10 2.82804e-14)
(2764.5 -1.98554e-10 2.89918e-14)
(2764.5 -2.00573e-10 3.10265e-14)
(2764.5 -2.06801e-10 2.80445e-14)
(2764.5 -2.06928e-10 3.02068e-14)
(2764.5 -2.10007e-10 3.20728e-14)
(2764.5 -2.16228e-10 3.41681e-14)
(2764.5 -2.18346e-10 3.02473e-14)
(2764.5 -2.20727e-10 3.58303e-14)
(2764.5 -2.22318e-10 3.30149e-14)
(2764.5 -2.2345e-10 3.46365e-14)
(2764.5 -2.26919e-10 3.25415e-14)
(2764.5 -2.31115e-10 3.2248e-14)
(2764.5 -2.36083e-10 2.87342e-14)
(2764.5 -2.39132e-10 3.2984e-14)
(2764.5 -2.44637e-10 2.86123e-14)
(2764.5 -2.5091e-10 2.88589e-14)
(2764.5 -2.50172e-10 3.32266e-14)
(2764.5 -2.49706e-10 3.40847e-14)
(2764.5 -2.53586e-10 3.03852e-14)
(2764.5 -2.56739e-10 2.66491e-14)
(2764.5 -2.62982e-10 2.8593e-14)
(2764.5 -2.75013e-10 3.33887e-14)
(2764.5 -2.84659e-10 3.07303e-14)
(2764.5 -2.86068e-10 3.36553e-14)
(2764.5 -2.90877e-10 3.24176e-14)
(2764.5 -2.91494e-10 3.29461e-14)
(2764.5 -3.00569e-10 3.25602e-14)
(2764.5 -3.00653e-10 3.69845e-14)
(2764.5 -3.13088e-10 3.08269e-14)
(2764.5 -3.26033e-10 3.21399e-14)
(2764.5 -2.52385e-10 4.52323e-14)
(2764.5 -2.54072e-10 4.50633e-14)
(2764.5 -2.59447e-10 4.54626e-14)
(2764.5 -2.66105e-10 4.01937e-14)
(2764.5 -2.66091e-10 4.61195e-14)
(2764.5 -2.65912e-10 4.29671e-14)
(2764.5 -2.6943e-10 4.32853e-14)
(2764.5 -2.67747e-10 3.98173e-14)
(2764.5 -2.71635e-10 4.46584e-14)
(2764.5 -2.7678e-10 3.98417e-14)
(2764.5 -2.84787e-10 4.4917e-14)
(2764.5 -2.86796e-10 4.42569e-14)
(2764.5 -2.8633e-10 4.83148e-14)
(2764.5 -2.90139e-10 4.2388e-14)
(2764.5 -2.91426e-10 4.10658e-14)
(2764.5 -2.94757e-10 4.27648e-14)
(2764.5 -2.98236e-10 3.66969e-14)
(2764.5 -3.04862e-10 4.30574e-14)
(2764.5 -3.07929e-10 4.56878e-14)
(2764.5 -3.09368e-10 4.42836e-14)
(2764.5 -3.13612e-10 4.32586e-14)
(2764.5 -3.17443e-10 4.07052e-14)
(2764.5 -3.21813e-10 4.41773e-14)
(2764.5 -3.33224e-10 4.86049e-14)
(2764.5 -3.44683e-10 4.38945e-14)
(2764.5 -3.47769e-10 4.42832e-14)
(2764.5 -3.54896e-10 4.38844e-14)
(2764.5 -3.63451e-10 4.2227e-14)
(2764.5 -3.64635e-10 4.24799e-14)
(2764.5 -3.72907e-10 4.93349e-14)
(2764.5 -3.85395e-10 4.60141e-14)
(2764.5 -3.90987e-10 4.72649e-14)
(2764.5 -3.9907e-10 4.58859e-14)
(2764.5 -4.01679e-10 4.40359e-14)
(2764.5 -4.10397e-10 4.55974e-14)
(2764.5 -4.16466e-10 4.97825e-14)
(2764.5 -4.21225e-10 4.8007e-14)
(2764.5 -4.30269e-10 4.88384e-14)
(2764.5 -3.10145e-10 5.62122e-14)
(2764.5 -3.13295e-10 5.66488e-14)
(2764.5 -3.1849e-10 5.85096e-14)
(2764.5 -3.26639e-10 5.68644e-14)
(2764.5 -3.28734e-10 5.56029e-14)
(2764.5 -3.33244e-10 5.38175e-14)
(2764.5 -3.43279e-10 5.97837e-14)
(2764.5 -3.48613e-10 5.78646e-14)
(2764.5 -3.50923e-10 5.93492e-14)
(2764.5 -3.48678e-10 5.93101e-14)
(2764.5 -3.55502e-10 5.87278e-14)
(2764.5 -3.6528e-10 5.43539e-14)
(2764.5 -3.69091e-10 5.42375e-14)
(2764.5 -3.72967e-10 5.19041e-14)
(2764.5 -3.7446e-10 5.21567e-14)
(2764.5 -3.77766e-10 5.54828e-14)
(2764.5 -3.78907e-10 6.07353e-14)
(2764.5 -3.84172e-10 5.96437e-14)
(2764.5 -3.91306e-10 5.37808e-14)
(2764.5 -3.93e-10 5.95141e-14)
(2764.5 -3.94993e-10 5.68818e-14)
(2764.5 -4.00449e-10 4.84964e-14)
(2764.5 -4.02572e-10 5.8653e-14)
(2764.5 -4.06261e-10 5.70834e-14)
(2764.5 -4.17827e-10 5.78019e-14)
(2764.5 -4.25187e-10 6.03619e-14)
(2764.5 -4.32254e-10 6.41279e-14)
(2764.5 -4.41056e-10 5.60309e-14)
(2764.5 -4.48836e-10 5.03138e-14)
(2764.5 -4.54892e-10 4.94886e-14)
(2764.5 -4.66976e-10 5.27596e-14)
(2764.5 -4.76345e-10 6.22477e-14)
(2764.5 -4.85242e-10 5.96855e-14)
(2764.5 -4.93764e-10 5.77675e-14)
(2764.5 -5.05693e-10 5.76904e-14)
(2764.5 -5.14829e-10 5.78838e-14)
(2764.5 -5.27182e-10 6.14644e-14)
(2764.5 -5.37455e-10 6.23175e-14)
(2764.5 -3.71379e-10 7.12051e-14)
(2764.5 -3.7412e-10 7.25646e-14)
(2764.5 -3.77382e-10 7.06627e-14)
(2764.5 -3.85135e-10 6.25359e-14)
(2764.5 -3.94758e-10 6.24065e-14)
(2764.5 -4.00331e-10 6.67439e-14)
(2764.5 -4.06829e-10 6.2004e-14)
(2764.5 -4.14447e-10 7.12915e-14)
(2764.5 -4.25457e-10 7.66396e-14)
(2764.5 -4.28872e-10 7.17549e-14)
(2764.5 -4.30544e-10 7.19914e-14)
(2764.5 -4.37343e-10 6.89182e-14)
(2764.5 -4.44854e-10 6.76447e-14)
(2764.5 -4.50356e-10 6.90645e-14)
(2764.5 -4.55041e-10 6.9261e-14)
(2764.5 -4.57283e-10 6.68753e-14)
(2764.5 -4.60713e-10 7.28133e-14)
(2764.5 -4.64537e-10 7.19928e-14)
(2764.5 -4.68563e-10 6.49875e-14)
(2764.5 -4.69804e-10 6.81968e-14)
(2764.5 -4.72055e-10 7.08328e-14)
(2764.5 -4.79005e-10 7.24548e-14)
(2764.5 -4.85313e-10 7.3128e-14)
(2764.5 -4.89863e-10 6.91861e-14)
(2764.5 -4.94601e-10 6.63363e-14)
(2764.5 -5.04643e-10 6.86245e-14)
(2764.5 -5.12226e-10 7.73304e-14)
(2764.5 -5.19159e-10 6.78722e-14)
(2764.5 -5.27596e-10 7.19598e-14)
(2764.5 -5.38244e-10 7.58691e-14)
(2764.5 -5.49543e-10 6.79809e-14)
(2764.5 -5.57963e-10 6.85898e-14)
(2764.5 -5.66825e-10 6.93962e-14)
(2764.5 -5.74007e-10 7.52483e-14)
(2764.5 -5.86459e-10 7.57289e-14)
(2764.5 -5.94776e-10 6.80163e-14)
(2764.5 -6.08548e-10 6.88994e-14)
(2764.5 -6.27422e-10 7.27234e-14)
(2764.5 -4.326e-10 7.92331e-14)
(2764.5 -4.35664e-10 7.46802e-14)
(2764.5 -4.38104e-10 8.11494e-14)
(2764.5 -4.45521e-10 8.5203e-14)
(2764.5 -4.54336e-10 8.10865e-14)
(2764.5 -4.62788e-10 7.92442e-14)
(2764.5 -4.67014e-10 7.99476e-14)
(2764.5 -4.73489e-10 8.65447e-14)
(2764.5 -4.81627e-10 7.58108e-14)
(2764.5 -4.90636e-10 8.11641e-14)
(2764.5 -4.99878e-10 8.58055e-14)
(2764.5 -5.07169e-10 8.15087e-14)
(2764.5 -5.14703e-10 8.04399e-14)
(2764.5 -5.2107e-10 7.9381e-14)
(2764.5 -5.28112e-10 7.70932e-14)
(2764.5 -5.32893e-10 8.10375e-14)
(2764.5 -5.35482e-10 7.93658e-14)
(2764.5 -5.38322e-10 8.56294e-14)
(2764.5 -5.43726e-10 8.14451e-14)
(2764.5 -5.47089e-10 8.30393e-14)
(2764.5 -5.51579e-10 8.43758e-14)
(2764.5 -5.59007e-10 8.19681e-14)
(2764.5 -5.65048e-10 8.08234e-14)
(2764.5 -5.71671e-10 8.50233e-14)
(2764.5 -5.76227e-10 8.35257e-14)
(2764.5 -5.8178e-10 8.32731e-14)
(2764.5 -5.88486e-10 8.89504e-14)
(2764.5 -5.97309e-10 7.92103e-14)
(2764.5 -6.08671e-10 7.67099e-14)
(2764.5 -6.17771e-10 8.08808e-14)
(2764.5 -6.28574e-10 8.21309e-14)
(2764.5 -6.37682e-10 8.05517e-14)
(2764.5 -6.48754e-10 8.35893e-14)
(2764.5 -6.58299e-10 8.57781e-14)
(2764.5 -6.70136e-10 8.92537e-14)
(2764.5 -6.79183e-10 8.56081e-14)
(2764.5 -6.90555e-10 8.51973e-14)
(2764.5 -7.07168e-10 8.80816e-14)
(2764.5 -4.89947e-10 9.46342e-14)
(2764.5 -4.96062e-10 9.42313e-14)
(2764.5 -5.00449e-10 9.4054e-14)
(2764.5 -5.06257e-10 9.76602e-14)
(2764.5 -5.12879e-10 9.6888e-14)
(2764.5 -5.23249e-10 9.10377e-14)
(2764.5 -5.29743e-10 9.10637e-14)
(2764.5 -5.35168e-10 9.37736e-14)
(2764.5 -5.38526e-10 9.58666e-14)
(2764.5 -5.45495e-10 9.67514e-14)
(2764.5 -5.54318e-10 9.06913e-14)
(2764.5 -5.64229e-10 9.40234e-14)
(2764.5 -5.73254e-10 9.02236e-14)
(2764.5 -5.82327e-10 9.43701e-14)
(2764.5 -5.89659e-10 9.1541e-14)
(2764.5 -5.95333e-10 9.56639e-14)
(2764.5 -5.99859e-10 9.87204e-14)
(2764.5 -6.06459e-10 9.79544e-14)
(2764.5 -6.14971e-10 9.44548e-14)
(2764.5 -6.20867e-10 9.90126e-14)
(2764.5 -6.26854e-10 9.10278e-14)
(2764.5 -6.34234e-10 9.76446e-14)
(2764.5 -6.4219e-10 9.2544e-14)
(2764.5 -6.47979e-10 9.28555e-14)
(2764.5 -6.53134e-10 8.9653e-14)
(2764.5 -6.59524e-10 9.5312e-14)
(2764.5 -6.6514e-10 9.37833e-14)
(2764.5 -6.7241e-10 9.15196e-14)
(2764.5 -6.79794e-10 9.75455e-14)
(2764.5 -6.87323e-10 9.91913e-14)
(2764.5 -6.98318e-10 1.02205e-13)
(2764.5 -7.11316e-10 9.91167e-14)
(2764.5 -7.22628e-10 1.01935e-13)
(2764.5 -7.34052e-10 9.73862e-14)
(2764.5 -7.46746e-10 9.58186e-14)
(2764.5 -7.54417e-10 1.05097e-13)
(2764.5 -7.64339e-10 1.00951e-13)
(2764.5 -7.81743e-10 9.43066e-14)
(2764.5 -5.43702e-10 1.07425e-13)
(2764.5 -5.48283e-10 1.05879e-13)
(2764.5 -5.53749e-10 1.13595e-13)
(2764.5 -5.59242e-10 1.10667e-13)
(2764.5 -5.66544e-10 1.09321e-13)
(2764.5 -5.73231e-10 1.07085e-13)
(2764.5 -5.81334e-10 1.13273e-13)
(2764.5 -5.89238e-10 1.09076e-13)
(2764.5 -5.96783e-10 1.08636e-13)
(2764.5 -6.02462e-10 1.0787e-13)
(2764.5 -6.09006e-10 9.91598e-14)
(2764.5 -6.14541e-10 1.10346e-13)
(2764.5 -6.21478e-10 1.00488e-13)
(2764.5 -6.26959e-10 1.061e-13)
(2764.5 -6.36453e-10 1.08783e-13)
(2764.5 -6.47537e-10 1.08121e-13)
(2764.5 -6.59281e-10 1.10416e-13)
(2764.5 -6.68447e-10 1.05431e-13)
(2764.5 -6.76668e-10 1.05571e-13)
(2764.5 -6.87567e-10 1.06266e-13)
(2764.5 -6.96671e-10 1.07319e-13)
(2764.5 -7.03356e-10 1.07173e-13)
(2764.5 -7.07857e-10 1.05374e-13)
(2764.5 -7.13425e-10 1.02811e-13)
(2764.5 -7.19045e-10 1.06912e-13)
(2764.5 -7.24795e-10 1.07418e-13)
(2764.5 -7.33596e-10 1.10112e-13)
(2764.5 -7.39344e-10 1.06256e-13)
(2764.5 -7.47516e-10 1.08215e-13)
(2764.5 -7.55136e-10 1.0753e-13)
(2764.5 -7.61395e-10 1.10066e-13)
(2764.5 -7.69442e-10 1.0963e-13)
(2764.5 -7.82238e-10 1.12166e-13)
(2764.5 -7.93697e-10 1.09017e-13)
(2764.5 -8.05282e-10 1.15588e-13)
(2764.5 -8.17925e-10 1.15829e-13)
(2764.5 -8.28422e-10 1.12221e-13)
(2764.5 -8.36151e-10 1.09836e-13)
(2764.5 -8.53126e-10 1.08814e-13)
(2764.5 -6.01434e-10 1.22755e-13)
(2764.5 -6.05989e-10 1.17438e-13)
(2764.5 -6.1193e-10 1.17302e-13)
(2764.5 -6.17863e-10 1.24078e-13)
(2764.5 -6.24875e-10 1.24206e-13)
(2764.5 -6.32987e-10 1.2334e-13)
(2764.5 -6.40606e-10 1.26349e-13)
(2764.5 -6.47869e-10 1.17778e-13)
(2764.5 -6.53772e-10 1.16531e-13)
(2764.5 -6.60439e-10 1.14586e-13)
(2764.5 -6.67014e-10 1.20494e-13)
(2764.5 -6.73724e-10 1.1681e-13)
(2764.5 -6.85294e-10 1.10815e-13)
(2764.5 -6.91797e-10 1.21095e-13)
(2764.5 -6.99707e-10 1.18921e-13)
(2764.5 -7.09034e-10 1.20104e-13)
(2764.5 -7.20669e-10 1.13334e-13)
(2764.5 -7.31631e-10 1.20135e-13)
(2764.5 -7.41511e-10 1.18868e-13)
(2764.5 -7.52544e-10 1.20788e-13)
(2764.5 -7.62408e-10 1.17404e-13)
(2764.5 -7.72392e-10 1.16677e-13)
(2764.5 -7.79941e-10 1.16802e-13)
(2764.5 -7.85255e-10 1.18355e-13)
(2764.5 -7.89969e-10 1.22384e-13)
(2764.5 -7.98928e-10 1.19581e-13)
(2764.5 -8.09554e-10 1.22669e-13)
(2764.5 -8.16838e-10 1.17688e-13)
(2764.5 -8.23983e-10 1.15695e-13)
(2764.5 -8.31524e-10 1.22059e-13)
(2764.5 -8.37868e-10 1.2273e-13)
(2764.5 -8.43623e-10 1.22359e-13)
(2764.5 -8.52692e-10 1.23975e-13)
(2764.5 -8.65304e-10 1.22509e-13)
(2764.5 -8.77834e-10 1.25404e-13)
(2764.5 -8.90985e-10 1.23566e-13)
(2764.5 -9.02363e-10 1.19029e-13)
(2764.5 -9.09815e-10 1.23736e-13)
(2764.5 -9.25078e-10 1.2552e-13)
(2764.5 -6.55833e-10 1.35365e-13)
(2764.5 -6.59647e-10 1.3889e-13)
(2764.5 -6.65362e-10 1.33592e-13)
(2764.5 -6.73029e-10 1.35306e-13)
(2764.5 -6.81759e-10 1.29667e-13)
(2764.5 -6.89056e-10 1.28891e-13)
(2764.5 -6.96725e-10 1.34534e-13)
(2764.5 -7.03991e-10 1.36226e-13)
(2764.5 -7.10341e-10 1.28219e-13)
(2764.5 -7.16498e-10 1.30308e-13)
(2764.5 -7.22392e-10 1.29859e-13)
(2764.5 -7.2851e-10 1.31813e-13)
(2764.5 -7.40005e-10 1.29529e-13)
(2764.5 -7.49826e-10 1.23546e-13)
(2764.5 -7.60536e-10 1.32032e-13)
(2764.5 -7.71426e-10 1.37166e-13)
(2764.5 -7.81023e-10 1.39685e-13)
(2764.5 -7.9029e-10 1.36893e-13)
(2764.5 -7.99433e-10 1.29766e-13)
(2764.5 -8.07463e-10 1.30466e-13)
(2764.5 -8.17439e-10 1.33544e-13)
(2764.5 -8.29188e-10 1.35468e-13)
(2764.5 -8.4238e-10 1.32579e-13)
(2764.5 -8.54565e-10 1.32213e-13)
(2764.5 -8.61712e-10 1.31493e-13)
(2764.5 -8.68168e-10 1.36253e-13)
(2764.5 -8.77981e-10 1.29449e-13)
(2764.5 -8.87542e-10 1.27283e-13)
(2764.5 -8.95409e-10 1.34067e-13)
(2764.5 -9.02244e-10 1.36518e-13)
(2764.5 -9.07395e-10 1.37669e-13)
(2764.5 -9.15278e-10 1.33519e-13)
(2764.5 -9.22231e-10 1.33396e-13)
(2764.5 -9.32882e-10 1.328e-13)
(2764.5 -9.45415e-10 1.33848e-13)
(2764.5 -9.59081e-10 1.3442e-13)
(2764.5 -9.68827e-10 1.36572e-13)
(2764.5 -9.77413e-10 1.38461e-13)
(2764.5 -9.92395e-10 1.35284e-13)
(2764.5 -7.08953e-10 1.51101e-13)
(2764.5 -7.07e-10 1.47564e-13)
(2764.5 -7.09611e-10 1.42042e-13)
(2764.5 -7.15989e-10 1.46694e-13)
(2764.5 -7.21926e-10 1.46354e-13)
(2764.5 -7.29833e-10 1.48429e-13)
(2764.5 -7.38148e-10 1.46783e-13)
(2764.5 -7.48362e-10 1.47133e-13)
(2764.5 -7.57306e-10 1.4435e-13)
(2764.5 -7.66129e-10 1.47345e-13)
(2764.5 -7.75316e-10 1.46412e-13)
(2764.5 -7.82533e-10 1.46589e-13)
(2764.5 -7.87356e-10 1.44471e-13)
(2764.5 -7.97921e-10 1.37605e-13)
(2764.5 -8.09617e-10 1.44583e-13)
(2764.5 -8.20917e-10 1.47857e-13)
(2764.5 -8.31069e-10 1.43378e-13)
(2764.5 -8.37677e-10 1.44169e-13)
(2764.5 -8.45512e-10 1.45516e-13)
(2764.5 -8.54859e-10 1.47022e-13)
(2764.5 -8.62385e-10 1.40128e-13)
(2764.5 -8.72667e-10 1.41027e-13)
(2764.5 -8.8384e-10 1.42214e-13)
(2764.5 -8.9735e-10 1.39935e-13)
(2764.5 -9.12826e-10 1.40971e-13)
(2764.5 -9.24362e-10 1.49424e-13)
(2764.5 -9.3243e-10 1.46117e-13)
(2764.5 -9.38847e-10 1.38605e-13)
(2764.5 -9.49468e-10 1.45862e-13)
(2764.5 -9.61098e-10 1.45068e-13)
(2764.5 -9.70583e-10 1.48016e-13)
(2764.5 -9.76253e-10 1.44629e-13)
(2764.5 -9.84685e-10 1.44234e-13)
(2764.5 -9.92113e-10 1.46297e-13)
(2764.5 -1.00082e-09 1.50008e-13)
(2764.5 -1.01019e-09 1.51355e-13)
(2764.5 -1.02697e-09 1.48156e-13)
(2764.5 -1.03879e-09 1.50692e-13)
(2764.5 -1.0528e-09 1.45768e-13)
(2764.5 -1.05709e-09 1.52012e-13)
(2764.5 -7.66408e-10 1.63214e-13)
(2764.5 -7.67331e-10 1.62726e-13)
(2764.5 -7.67621e-10 1.6403e-13)
(2764.5 -7.72457e-10 1.58168e-13)
(2764.5 -7.76458e-10 1.59249e-13)
(2764.5 -7.80242e-10 1.5992e-13)
(2764.5 -7.84684e-10 1.61359e-13)
(2764.5 -7.95405e-10 1.60551e-13)
(2764.5 -8.0687e-10 1.58295e-13)
(2764.5 -8.1836e-10 1.6284e-13)
(2764.5 -8.29434e-10 1.55348e-13)
(2764.5 -8.36811e-10 1.55546e-13)
(2764.5 -8.42252e-10 1.54891e-13)
(2764.5 -8.50338e-10 1.53841e-13)
(2764.5 -8.60588e-10 1.55402e-13)
(2764.5 -8.70329e-10 1.56353e-13)
(2764.5 -8.81306e-10 1.54916e-13)
(2764.5 -8.89924e-10 1.49797e-13)
(2764.5 -8.9958e-10 1.53521e-13)
(2764.5 -9.1237e-10 1.50845e-13)
(2764.5 -9.21155e-10 1.53638e-13)
(2764.5 -9.34733e-10 1.57045e-13)
(2764.5 -9.45163e-10 1.60487e-13)
(2764.5 -9.54884e-10 1.59229e-13)
(2764.5 -9.67439e-10 1.54484e-13)
(2764.5 -9.81042e-10 1.55568e-13)
(2764.5 -9.93887e-10 1.55168e-13)
(2764.5 -1.00521e-09 1.55267e-13)
(2764.5 -1.01422e-09 1.5422e-13)
(2764.5 -1.02522e-09 1.56699e-13)
(2764.5 -1.03509e-09 1.58441e-13)
(2764.5 -1.04344e-09 1.58374e-13)
(2764.5 -1.05079e-09 1.58407e-13)
(2764.5 -1.05937e-09 1.58799e-13)
(2764.5 -1.07114e-09 1.63658e-13)
(2764.5 -1.08106e-09 1.55885e-13)
(2764.5 -1.09668e-09 1.56394e-13)
(2764.5 -1.10782e-09 1.60844e-13)
(2764.5 -1.12373e-09 1.60183e-13)
(2764.5 -1.12579e-09 1.58487e-13)
(2764.5 -8.19292e-10 1.7618e-13)
(2764.5 -8.24288e-10 1.71016e-13)
(2764.5 -8.27679e-10 1.7132e-13)
(2764.5 -8.32415e-10 1.72584e-13)
(2764.5 -8.34598e-10 1.75587e-13)
(2764.5 -8.38354e-10 1.7976e-13)
(2764.5 -8.3992e-10 1.7266e-13)
(2764.5 -8.47825e-10 1.66952e-13)
(2764.5 -8.58585e-10 1.71884e-13)
(2764.5 -8.7011e-10 1.76399e-13)
(2764.5 -8.8355e-10 1.67742e-13)
(2764.5 -8.95821e-10 1.73447e-13)
(2764.5 -9.02331e-10 1.75545e-13)
(2764.5 -9.07056e-10 1.69877e-13)
(2764.5 -9.16479e-10 1.7142e-13)
(2764.5 -9.24059e-10 1.64421e-13)
(2764.5 -9.32847e-10 1.62065e-13)
(2764.5 -9.41249e-10 1.63958e-13)
(2764.5 -9.51887e-10 1.6623e-13)
(2764.5 -9.67727e-10 1.64587e-13)
(2764.5 -9.79503e-10 1.76372e-13)
(2764.5 -9.90881e-10 1.72771e-13)
(2764.5 -1.00039e-09 1.69193e-13)
(2764.5 -1.01002e-09 1.69219e-13)
(2764.5 -1.02015e-09 1.69302e-13)
(2764.5 -1.03318e-09 1.67641e-13)
(2764.5 -1.04687e-09 1.68541e-13)
(2764.5 -1.06169e-09 1.61822e-13)
(2764.5 -1.0762e-09 1.75071e-13)
(2764.5 -1.08845e-09 1.75519e-13)
(2764.5 -1.10006e-09 1.67567e-13)
(2764.5 -1.11e-09 1.65615e-13)
(2764.5 -1.12064e-09 1.64084e-13)
(2764.5 -1.1299e-09 1.67839e-13)
(2764.5 -1.14039e-09 1.72147e-13)
(2764.5 -1.15059e-09 1.72603e-13)
(2764.5 -1.16532e-09 1.70512e-13)
(2764.5 -1.1755e-09 1.68684e-13)
(2764.5 -1.19073e-09 1.7671e-13)
(2764.5 -1.19646e-09 1.8066e-13)
(2764.5 -8.67886e-10 1.89078e-13)
(2764.5 -8.73842e-10 1.89808e-13)
(2764.5 -8.79645e-10 1.91509e-13)
(2764.5 -8.86912e-10 1.85924e-13)
(2764.5 -8.91764e-10 1.83274e-13)
(2764.5 -8.97284e-10 1.88491e-13)
(2764.5 -8.99733e-10 1.91563e-13)
(2764.5 -9.04438e-10 1.80541e-13)
(2764.5 -9.13058e-10 1.81825e-13)
(2764.5 -9.2509e-10 1.87896e-13)
(2764.5 -9.36935e-10 1.80165e-13)
(2764.5 -9.50502e-10 1.87118e-13)
(2764.5 -9.63932e-10 1.85068e-13)
(2764.5 -9.72733e-10 1.77751e-13)
(2764.5 -9.80748e-10 1.81706e-13)
(2764.5 -9.84902e-10 1.82272e-13)
(2764.5 -9.88733e-10 1.76236e-13)
(2764.5 -9.94693e-10 1.78276e-13)
(2764.5 -1.0021e-09 1.80103e-13)
(2764.5 -1.0133e-09 1.83034e-13)
(2764.5 -1.02682e-09 1.86837e-13)
(2764.5 -1.03879e-09 1.79712e-13)
(2764.5 -1.05009e-09 1.83342e-13)
(2764.5 -1.06053e-09 1.85914e-13)
(2764.5 -1.06983e-09 1.78107e-13)
(2764.5 -1.08228e-09 1.84952e-13)
(2764.5 -1.09807e-09 1.78641e-13)
(2764.5 -1.11261e-09 1.78461e-13)
(2764.5 -1.12968e-09 1.83491e-13)
(2764.5 -1.14576e-09 1.77036e-13)
(2764.5 -1.16007e-09 1.8042e-13)
(2764.5 -1.17154e-09 1.82899e-13)
(2764.5 -1.18235e-09 1.82648e-13)
(2764.5 -1.1934e-09 1.76283e-13)
(2764.5 -1.2079e-09 1.82492e-13)
(2764.5 -1.21784e-09 1.82495e-13)
(2764.5 -1.23037e-09 1.83427e-13)
(2764.5 -1.23587e-09 1.84348e-13)
(2764.5 -1.25207e-09 1.85852e-13)
(2764.5 -1.24793e-09 1.71643e-13)
(2764.5 -9.21574e-10 2.00482e-13)
(2764.5 -9.27485e-10 2.01441e-13)
(2764.5 -9.35572e-10 2.00166e-13)
(2764.5 -9.40512e-10 2.00139e-13)
(2764.5 -9.44756e-10 1.99723e-13)
(2764.5 -9.51402e-10 1.92893e-13)
(2764.5 -9.58116e-10 1.9606e-13)
(2764.5 -9.63502e-10 1.96184e-13)
(2764.5 -9.68303e-10 1.96796e-13)
(2764.5 -9.73862e-10 1.96341e-13)
(2764.5 -9.81943e-10 1.93516e-13)
(2764.5 -9.93474e-10 1.96743e-13)
(2764.5 -1.00975e-09 1.92282e-13)
(2764.5 -1.02344e-09 1.89687e-13)
(2764.5 -1.03512e-09 1.93846e-13)
(2764.5 -1.04361e-09 1.94591e-13)
(2764.5 -1.04754e-09 1.93605e-13)
(2764.5 -1.05189e-09 1.95053e-13)
(2764.5 -1.05835e-09 1.91684e-13)
(2764.5 -1.0659e-09 1.92222e-13)
(2764.5 -1.07551e-09 1.93338e-13)
(2764.5 -1.08603e-09 1.92458e-13)
(2764.5 -1.0961e-09 1.91658e-13)
(2764.5 -1.10706e-09 1.92067e-13)
(2764.5 -1.11682e-09 1.91009e-13)
(2764.5 -1.12653e-09 1.89755e-13)
(2764.5 -1.14044e-09 1.91066e-13)
(2764.5 -1.1572e-09 1.95166e-13)
(2764.5 -1.17792e-09 1.89319e-13)
(2764.5 -1.19747e-09 1.9443e-13)
(2764.5 -1.21556e-09 1.92349e-13)
(2764.5 -1.23071e-09 1.996e-13)
(2764.5 -1.2447e-09 1.95232e-13)
(2764.5 -1.25556e-09 1.90874e-13)
(2764.5 -1.26895e-09 1.9426e-13)
(2764.5 -1.27973e-09 1.99319e-13)
(2764.5 -1.29284e-09 1.99763e-13)
(2764.5 -1.2971e-09 1.97381e-13)
(2764.5 -1.31142e-09 1.9499e-13)
(2764.5 -1.31322e-09 1.96342e-13)
(2764.5 -9.7911e-10 2.13685e-13)
(2764.5 -9.81604e-10 2.11957e-13)
(2764.5 -9.85994e-10 2.13154e-13)
(2764.5 -9.90096e-10 2.10671e-13)
(2764.5 -9.93505e-10 2.07301e-13)
(2764.5 -9.98468e-10 2.14499e-13)
(2764.5 -1.003e-09 2.17556e-13)
(2764.5 -1.01113e-09 2.09488e-13)
(2764.5 -1.01742e-09 2.09321e-13)
(2764.5 -1.02239e-09 2.11038e-13)
(2764.5 -1.0273e-09 2.09131e-13)
(2764.5 -1.03745e-09 2.11182e-13)
(2764.5 -1.04942e-09 2.05695e-13)
(2764.5 -1.06332e-09 2.03013e-13)
(2764.5 -1.07801e-09 2.10067e-13)
(2764.5 -1.0888e-09 2.03984e-13)
(2764.5 -1.09446e-09 2.02413e-13)
(2764.5 -1.09808e-09 2.11692e-13)
(2764.5 -1.10499e-09 2.09909e-13)
(2764.5 -1.1133e-09 2.02967e-13)
(2764.5 -1.12169e-09 2.0441e-13)
(2764.5 -1.13236e-09 1.98299e-13)
(2764.5 -1.14459e-09 2.04303e-13)
(2764.5 -1.15603e-09 2.07634e-13)
(2764.5 -1.1665e-09 2.1002e-13)
(2764.5 -1.17515e-09 2.10159e-13)
(2764.5 -1.18419e-09 2.0445e-13)
(2764.5 -1.1969e-09 2.04742e-13)
(2764.5 -1.21569e-09 2.02072e-13)
(2764.5 -1.23957e-09 2.0644e-13)
(2764.5 -1.26096e-09 2.04665e-13)
(2764.5 -1.27936e-09 2.02813e-13)
(2764.5 -1.29696e-09 2.04057e-13)
(2764.5 -1.31214e-09 2.07926e-13)
(2764.5 -1.32697e-09 2.02376e-13)
(2764.5 -1.33655e-09 2.04438e-13)
(2764.5 -1.34964e-09 2.0656e-13)
(2764.5 -1.35876e-09 2.0352e-13)
(2764.5 -1.37377e-09 2.03102e-13)
(2764.5 -1.38012e-09 2.0816e-13)
(2764.5 -1.03093e-09 2.3069e-13)
(2764.5 -1.03802e-09 2.2854e-13)
(2764.5 -1.04169e-09 2.26428e-13)
(2764.5 -1.04361e-09 2.21978e-13)
(2764.5 -1.04551e-09 2.25868e-13)
(2764.5 -1.04601e-09 2.21579e-13)
(2764.5 -1.0502e-09 2.23955e-13)
(2764.5 -1.05721e-09 2.22773e-13)
(2764.5 -1.06519e-09 2.2642e-13)
(2764.5 -1.07136e-09 2.24229e-13)
(2764.5 -1.07416e-09 2.18823e-13)
(2764.5 -1.08124e-09 2.21902e-13)
(2764.5 -1.0921e-09 2.1904e-13)
(2764.5 -1.10387e-09 2.21362e-13)
(2764.5 -1.1178e-09 2.21147e-13)
(2764.5 -1.13199e-09 2.23883e-13)
(2764.5 -1.14459e-09 2.27243e-13)
(2764.5 -1.15122e-09 2.22458e-13)
(2764.5 -1.15663e-09 2.22281e-13)
(2764.5 -1.16502e-09 2.26277e-13)
(2764.5 -1.17341e-09 2.21426e-13)
(2764.5 -1.18101e-09 2.18177e-13)
(2764.5 -1.19126e-09 2.20632e-13)
(2764.5 -1.20263e-09 2.16194e-13)
(2764.5 -1.21504e-09 2.18456e-13)
(2764.5 -1.22657e-09 2.16102e-13)
(2764.5 -1.23719e-09 2.14605e-13)
(2764.5 -1.24747e-09 2.18581e-13)
(2764.5 -1.25755e-09 2.13307e-13)
(2764.5 -1.27363e-09 2.13832e-13)
(2764.5 -1.29758e-09 2.17308e-13)
(2764.5 -1.3212e-09 2.18559e-13)
(2764.5 -1.33991e-09 2.20983e-13)
(2764.5 -1.35717e-09 2.16883e-13)
(2764.5 -1.37492e-09 2.1512e-13)
(2764.5 -1.38788e-09 2.18609e-13)
(2764.5 -1.40154e-09 2.20608e-13)
(2764.5 -1.41323e-09 2.19528e-13)
(2764.5 -1.43249e-09 2.18958e-13)
(2764.5 -1.44487e-09 2.21223e-13)
(2764.5 -1.0618e-09 2.42233e-13)
(2764.5 -1.07267e-09 2.45165e-13)
(2764.5 -1.0831e-09 2.39703e-13)
(2764.5 -1.09243e-09 2.37754e-13)
(2764.5 -1.09809e-09 2.42798e-13)
(2764.5 -1.10525e-09 2.34984e-13)
(2764.5 -1.10638e-09 2.3853e-13)
(2764.5 -1.11061e-09 2.37746e-13)
(2764.5 -1.11382e-09 2.31115e-13)
(2764.5 -1.11895e-09 2.35384e-13)
(2764.5 -1.12322e-09 2.34925e-13)
(2764.5 -1.1262e-09 2.32235e-13)
(2764.5 -1.13043e-09 2.31087e-13)
(2764.5 -1.13879e-09 2.33482e-13)
(2764.5 -1.14788e-09 2.33703e-13)
(2764.5 -1.15931e-09 2.31828e-13)
(2764.5 -1.17578e-09 2.3887e-13)
(2764.5 -1.19017e-09 2.34339e-13)
(2764.5 -1.20253e-09 2.29027e-13)
(2764.5 -1.21006e-09 2.2918e-13)
(2764.5 -1.21727e-09 2.32835e-13)
(2764.5 -1.22599e-09 2.30269e-13)
(2764.5 -1.2345e-09 2.30694e-13)
(2764.5 -1.24366e-09 2.31582e-13)
(2764.5 -1.25501e-09 2.24956e-13)
(2764.5 -1.26597e-09 2.32384e-13)
(2764.5 -1.2763e-09 2.3296e-13)
(2764.5 -1.28576e-09 2.28082e-13)
(2764.5 -1.29631e-09 2.2867e-13)
(2764.5 -1.30575e-09 2.31617e-13)
(2764.5 -1.31348e-09 2.34887e-13)
(2764.5 -1.33185e-09 2.2471e-13)
(2764.5 -1.35548e-09 2.27484e-13)
(2764.5 -1.37722e-09 2.35441e-13)
(2764.5 -1.39422e-09 2.28545e-13)
(2764.5 -1.41316e-09 2.29401e-13)
(2764.5 -1.43178e-09 2.34083e-13)
(2764.5 -1.44985e-09 2.35367e-13)
(2764.5 -1.46293e-09 2.29753e-13)
(2764.5 -1.48407e-09 2.32258e-13)
(2764.5 -1.50102e-09 2.31272e-13)
(2764.5 -1.10017e-09 2.61655e-13)
(2764.5 -1.11527e-09 2.63505e-13)
(2764.5 -1.12741e-09 2.51724e-13)
(2764.5 -1.13864e-09 2.51393e-13)
(2764.5 -1.14703e-09 2.54871e-13)
(2764.5 -1.15297e-09 2.50205e-13)
(2764.5 -1.15543e-09 2.50044e-13)
(2764.5 -1.15951e-09 2.46195e-13)
(2764.5 -1.16232e-09 2.48069e-13)
(2764.5 -1.1669e-09 2.5267e-13)
(2764.5 -1.17239e-09 2.48537e-13)
(2764.5 -1.17782e-09 2.45534e-13)
(2764.5 -1.18456e-09 2.46529e-13)
(2764.5 -1.19444e-09 2.47413e-13)
(2764.5 -1.20649e-09 2.44079e-13)
(2764.5 -1.21477e-09 2.45547e-13)
(2764.5 -1.22606e-09 2.47473e-13)
(2764.5 -1.23797e-09 2.44753e-13)
(2764.5 -1.2507e-09 2.43903e-13)
(2764.5 -1.26015e-09 2.44413e-13)
(2764.5 -1.26626e-09 2.42892e-13)
(2764.5 -1.2781e-09 2.47229e-13)
(2764.5 -1.29048e-09 2.45194e-13)
(2764.5 -1.30073e-09 2.33029e-13)
(2764.5 -1.31107e-09 2.38957e-13)
(2764.5 -1.32113e-09 2.48012e-13)
(2764.5 -1.33098e-09 2.38859e-13)
(2764.5 -1.33757e-09 2.38938e-13)
(2764.5 -1.34327e-09 2.38694e-13)
(2764.5 -1.35405e-09 2.41533e-13)
(2764.5 -1.36519e-09 2.37442e-13)
(2764.5 -1.37952e-09 2.38904e-13)
(2764.5 -1.39806e-09 2.46087e-13)
(2764.5 -1.42026e-09 2.44168e-13)
(2764.5 -1.44162e-09 2.49062e-13)
(2764.5 -1.45806e-09 2.49103e-13)
(2764.5 -1.47603e-09 2.4297e-13)
(2764.5 -1.49739e-09 2.44235e-13)
(2764.5 -1.51318e-09 2.5036e-13)
(2764.5 -1.53457e-09 2.46352e-13)
(2764.5 -1.55051e-09 2.43734e-13)
(2764.5 -1.12277e-09 2.76996e-13)
(2764.5 -1.13893e-09 2.81396e-13)
(2764.5 -1.1539e-09 2.6451e-13)
(2764.5 -1.16761e-09 2.60931e-13)
(2764.5 -1.18106e-09 2.67091e-13)
(2764.5 -1.1912e-09 2.66131e-13)
(2764.5 -1.19793e-09 2.63267e-13)
(2764.5 -1.2025e-09 2.65639e-13)
(2764.5 -1.20757e-09 2.62511e-13)
(2764.5 -1.21128e-09 2.66518e-13)
(2764.5 -1.21562e-09 2.69512e-13)
(2764.5 -1.22286e-09 2.59353e-13)
(2764.5 -1.23022e-09 2.58494e-13)
(2764.5 -1.23714e-09 2.57902e-13)
(2764.5 -1.24556e-09 2.57655e-13)
(2764.5 -1.25603e-09 2.61667e-13)
(2764.5 -1.26613e-09 2.66705e-13)
(2764.5 -1.27798e-09 2.57992e-13)
(2764.5 -1.28944e-09 2.55118e-13)
(2764.5 -1.30406e-09 2.52999e-13)
(2764.5 -1.3186e-09 2.54482e-13)
(2764.5 -1.3261e-09 2.56854e-13)
(2764.5 -1.33665e-09 2.54754e-13)
(2764.5 -1.34803e-09 2.54575e-13)
(2764.5 -1.35779e-09 2.56613e-13)
(2764.5 -1.36757e-09 2.58833e-13)
(2764.5 -1.3778e-09 2.57391e-13)
(2764.5 -1.38731e-09 2.55541e-13)
(2764.5 -1.39891e-09 2.55166e-13)
(2764.5 -1.40562e-09 2.5436e-13)
(2764.5 -1.41167e-09 2.53478e-13)
(2764.5 -1.41815e-09 2.64065e-13)
(2764.5 -1.43127e-09 2.60028e-13)
(2764.5 -1.44786e-09 2.49244e-13)
(2764.5 -1.46259e-09 2.50479e-13)
(2764.5 -1.48018e-09 2.52545e-13)
(2764.5 -1.49972e-09 2.53438e-13)
(2764.5 -1.51703e-09 2.52752e-13)
(2764.5 -1.54185e-09 2.56813e-13)
(2764.5 -1.56232e-09 2.59052e-13)
(2764.5 -1.58703e-09 2.55928e-13)
(2764.5 -1.60421e-09 2.57313e-13)
(2764.5 -1.15451e-09 2.84465e-13)
(2764.5 -1.16514e-09 2.85951e-13)
(2764.5 -1.17743e-09 2.82023e-13)
(2764.5 -1.19166e-09 2.76989e-13)
(2764.5 -1.20538e-09 2.8259e-13)
(2764.5 -1.22024e-09 2.83567e-13)
(2764.5 -1.23241e-09 2.80064e-13)
(2764.5 -1.24051e-09 2.8035e-13)
(2764.5 -1.2465e-09 2.79205e-13)
(2764.5 -1.25053e-09 2.78006e-13)
(2764.5 -1.25539e-09 2.79954e-13)
(2764.5 -1.2617e-09 2.77816e-13)
(2764.5 -1.27072e-09 2.70026e-13)
(2764.5 -1.27934e-09 2.67576e-13)
(2764.5 -1.28752e-09 2.70293e-13)
(2764.5 -1.29636e-09 2.68894e-13)
(2764.5 -1.30567e-09 2.7384e-13)
(2764.5 -1.31515e-09 2.67288e-13)
(2764.5 -1.32866e-09 2.64876e-13)
(2764.5 -1.34195e-09 2.64094e-13)
(2764.5 -1.35724e-09 2.66185e-13)
(2764.5 -1.37258e-09 2.72253e-13)
(2764.5 -1.38324e-09 2.68066e-13)
(2764.5 -1.39208e-09 2.63447e-13)
(2764.5 -1.40464e-09 2.69798e-13)
(2764.5 -1.41588e-09 2.68857e-13)
(2764.5 -1.42483e-09 2.67486e-13)
(2764.5 -1.43338e-09 2.64718e-13)
(2764.5 -1.44327e-09 2.66039e-13)
(2764.5 -1.45531e-09 2.65712e-13)
(2764.5 -1.46282e-09 2.65632e-13)
(2764.5 -1.46908e-09 2.66572e-13)
(2764.5 -1.47618e-09 2.65391e-13)
(2764.5 -1.48633e-09 2.60733e-13)
(2764.5 -1.50284e-09 2.6428e-13)
(2764.5 -1.51737e-09 2.62953e-13)
(2764.5 -1.53013e-09 2.60836e-13)