/*--------------------------------*- C++ -*----------------------------------*\
| =========                 |                                                 |
| \\      /  F ield         | OpenFOAM: The Open Source CFD Toolbox           |
|  \\    /   O peration     | Version:  v1706                                 |
|   \\  /    A nd           | Web:      www.OpenFOAM.com                      |
|    \\/     M anipulation  |                                                 |
\*---------------------------------------------------------------------------*/
FoamFile
{
    version     2.0;
    format      ascii;
    class       volScalarField;
    location    "6e-06";
    object      wallHeatFlux;
}
// * * * * * * * * * * * * * * * * * * * * * * * * * * * * * * * * * * * * * //

dimensions      [1 0 -3 0 0 0 0];


internalField   uniform 0;

boundaryField
{
    cone
    {
        type            calculated;
        value           nonuniform List<scalar> 
153
(
168478
166660
165051
163657
162481
161532
160811
160324
160076
160075
160325
160836
161606
162637
163930
165489
167315
169407
171766
174392
177280
180426
183820
187455
191315
195379
199623
204017
208520
213086
217659
222173
226548
230710
234563
238009
240956
243321
245009
245903
245913
245004
243147
240356
236658
232097
226725
220582
213709
206652
199726
193038
186651
180631
175028
169878
165201
161003
157286
154049
151280
148965
147090
145641
144602
143966
143732
143904
144491
145498
146929
148790
151087
153825
157011
160651
164755
169333
174396
179956
186026
192619
199750
207430
215674
224492
233894
243886
254467
265631
277367
289656
302440
315494
328256
339920
350048
359003
367339
375059
381869
387618
392397
396449
400039
403322
406325
408978
411169
412806
413851
414335
414333
413935
413245
412377
411416
410402
409354
408275
407165
406026
404858
403663
402446
401212
399966
398713
397460
396213
394978
393759
392562
391392
390253
389151
388089
387072
386105
385192
384339
383551
382834
382193
381634
381161
380782
380504
380332
380274
380337
380528
380852
)
;
    }
    inlet
    {
        type            calculated;
        value           uniform 0;
    }
    rWedge
    {
        type            wedge;
    }
    lWedge
    {
        type            wedge;
    }
    outlet
    {
        type            calculated;
        value           nonuniform 0();
    }
    procBoundary2to0
    {
        type            processor;
        value           uniform 0;
    }
    procBoundary2to1
    {
        type            processor;
        value           uniform 0;
    }
    procBoundary2to3
    {
        type            processor;
        value           uniform 0;
    }
}


// ************************************************************************* //
