/*--------------------------------*- C++ -*----------------------------------*\
| =========                 |                                                 |
| \\      /  F ield         | OpenFOAM: The Open Source CFD Toolbox           |
|  \\    /   O peration     | Version:  v1706                                 |
|   \\  /    A nd           | Web:      www.OpenFOAM.com                      |
|    \\/     M anipulation  |                                                 |
\*---------------------------------------------------------------------------*/
FoamFile
{
    version     2.0;
    format      ascii;
    class       volScalarField;
    location    "1e-05";
    object      kappatr;
}
// * * * * * * * * * * * * * * * * * * * * * * * * * * * * * * * * * * * * * //

dimensions      [1 1 -3 -1 0 0 0];


internalField   nonuniform List<scalar> 
29871
(
0.014593
0.014593
0.014593
0.014593
0.014593
0.014593
0.014593
0.014593
0.014593
0.014593
0.014593
0.014593
0.014593
0.014593
0.014593
0.014593
0.014593
0.014593
0.014593
0.014593
0.014593
0.014593
0.014593
0.014593
0.014593
0.014593
0.014593
0.014593
0.014593
0.014593
0.014593
0.014593
0.014593
0.014593
0.014593
0.014593
0.014593
0.014593
0.014593
0.014593
0.014593
0.014593
0.014593
0.014593
0.014593
0.014593
0.014593
0.014593
0.014593
0.014593
0.014593
0.014593
0.014593
0.014593
0.014593
0.014593
0.014593
0.014593
0.014593
0.014593
0.014593
0.014593
0.014593
0.014593
0.014593
0.014593
0.014593
0.014593
0.014593
0.014593
0.014593
0.014593
0.014593
0.014593
0.014593
0.014593
0.014593
0.014593
0.014593
0.014593
0.014593
0.014593
0.014593
0.014593
0.014593
0.014593
0.014593
0.014593
0.014593
0.014593
0.014593
0.014593
0.014593
0.014593
0.014593
0.014593
0.014593
0.014593
0.014593
0.014593
0.014593
0.014593
0.014593
0.014593
0.014593
0.014593
0.014593
0.014593
0.014593
0.014593
0.014593
0.014593
0.014593
0.014593
0.014593
0.014593
0.014593
0.014593
0.014593
0.014593
0.014593
0.014593
0.014593
0.014593
0.014593
0.014593
0.014593
0.014593
0.014593
0.014593
0.014593
0.014593
0.014593
0.014593
0.014593
0.014593
0.014593
0.014593
0.014593
0.014593
0.014593
0.014593
0.014593
0.014593
0.014593
0.014593
0.014593
0.014593
0.014593
0.014593
0.014593
0.014593
0.014593
0.014593
0.014593
0.014593
0.014593
0.014593
0.014593
0.014593
0.014593
0.014593
0.014593
0.014593
0.014593
0.014593
0.014593
0.014593
0.014593
0.014593
0.014593
0.014593
0.014593
0.014593
0.014593
0.014593
0.014593
0.014593
0.014593
0.014593
0.014593
0.014593
0.014593
0.014593
0.014593
0.014593
0.014593
0.014593
0.014593
0.014593
0.014593
0.014593
0.014593
0.014593
0.014593
0.014593
0.014593
0.014593
0.014593
0.014593
0.014593
0.014593
0.014593
0.014593
0.014593
0.014593
0.014593
0.014593
0.014593
0.014593
0.014593
0.014593
0.014593
0.014593
0.014593
0.014593
0.014593
0.014593
0.014593
0.014593
0.014593
0.014593
0.014593
0.014593
0.014593
0.014593
0.014593
0.014593
0.014593
0.014593
0.014593
0.014593
0.014593
0.014593
0.014593
0.014593
0.014593
0.014593
0.014593
0.014593
0.014593
0.014593
0.014593
0.014593
0.014593
0.014593
0.014593
0.014593
0.014593
0.014593
0.014593
0.014593
0.014593
0.014593
0.014593
0.014593
0.014593
0.014593
0.014593
0.014593
0.014593
0.014593
0.014593
0.014593
0.014593
0.014593
0.014593
0.014593
0.014593
0.014593
0.014593
0.014593
0.014593
0.014593
0.014593
0.014593
0.014593
0.014593
0.014593
0.014593
0.014593
0.014593
0.014593
0.014593
0.014593
0.014593
0.014593
0.014593
0.014593
0.014593
0.014593
0.014593
0.014593
0.014593
0.014593
0.014593
0.014593
0.014593
0.014593
0.014593
0.014593
0.014593
0.014593
0.014593
0.014593
0.014593
0.014593
0.014593
0.014593
0.014593
0.014593
0.014593
0.014593
0.014593
0.014593
0.014593
0.014593
0.014593
0.014593
0.014593
0.014593
0.014593
0.014593
0.014593
0.014593
0.014593
0.014593
0.014593
0.014593
0.014593
0.014593
0.014593
0.014593
0.014593
0.014593
0.014593
0.014593
0.014593
0.014593
0.014593
0.014593
0.014593
0.014593
0.014593
0.014593
0.014593
0.014593
0.014593
0.014593
0.014593
0.014593
0.014593
0.014593
0.014593
0.014593
0.014593
0.014593
0.014593
0.014593
0.014593
0.014593
0.014593
0.014593
0.014593
0.014593
0.014593
0.014593
0.014593
0.014593
0.014593
0.014593
0.014593
0.014593
0.014593
0.014593
0.014593
0.014593
0.014593
0.014593
0.014593
0.014593
0.014593
0.014593
0.014593
0.014593
0.014593
0.014593
0.014593
0.014593
0.014593
0.014593
0.014593
0.014593
0.014593
0.014593
0.014593
0.014593
0.014593
0.014593
0.014593
0.014593
0.014593
0.014593
0.014593
0.014593
0.014593
0.014593
0.014593
0.014593
0.014593
0.014593
0.014593
0.014593
0.014593
0.014593
0.014593
0.014593
0.014593
0.014593
0.014593
0.014593
0.014593
0.014593
0.014593
0.014593
0.014593
0.014593
0.014593
0.014593
0.014593
0.014593
0.014593
0.014593
0.014593
0.014593
0.014593
0.014593
0.014593
0.014593
0.014593
0.014593
0.014593
0.014593
0.014593
0.014593
0.014593
0.014593
0.014593
0.014593
0.014593
0.014593
0.014593
0.014593
0.014593
0.014593
0.014593
0.014593
0.014593
0.014593
0.014593
0.014593
0.014593
0.014593
0.014593
0.014593
0.014593
0.014593
0.014593
0.014593
0.014593
0.014593
0.014593
0.014593
0.014593
0.014593
0.014593
0.014593
0.014593
0.014593
0.014593
0.014593
0.014593
0.014593
0.014593
0.014593
0.014593
0.014593
0.014593
0.014593
0.014593
0.014593
0.014593
0.014593
0.014593
0.014593
0.014593
0.014593
0.014593
0.014593
0.014593
0.014593
0.014593
0.014593
0.014593
0.014593
0.014593
0.014593
0.014593
0.014593
0.014593
0.014593
0.014593
0.014593
0.014593
0.014593
0.014593
0.014593
0.014593
0.014593
0.014593
0.014593
0.014593
0.014593
0.014593
0.014593
0.014593
0.014593
0.014593
0.014593
0.014593
0.014593
0.014593
0.014593
0.014593
0.014593
0.014593
0.014593
0.014593
0.014593
0.014593
0.014593
0.014593
0.014593
0.014593
0.014593
0.014593
0.014593
0.014593
0.014593
0.014593
0.014593
0.014593
0.014593
0.014593
0.014593
0.014593
0.014593
0.014593
0.014593
0.014593
0.014593
0.014593
0.014593
0.014593
0.014593
0.014593
0.014593
0.014593
0.014593
0.014593
0.014593
0.014593
0.014593
0.014593
0.014593
0.014593
0.014593
0.014593
0.014593
0.014593
0.014593
0.014593
0.014593
0.014593
0.014593
0.014593
0.014593
0.014593
0.014593
0.014593
0.014593
0.014593
0.014593
0.014593
0.014593
0.014593
0.014593
0.014593
0.014593
0.014593
0.014593
0.014593
0.014593
0.014593
0.014593
0.014593
0.014593
0.014593
0.014593
0.014593
0.014593
0.014593
0.014593
0.014593
0.014593
0.014593
0.014593
0.014593
0.014593
0.014593
0.014593
0.014593
0.014593
0.014593
0.014593
0.014593
0.014593
0.014593
0.014593
0.014593
0.014593
0.014593
0.014593
0.014593
0.014593
0.014593
0.014593
0.014593
0.014593
0.014593
0.014593
0.014593
0.014593
0.014593
0.014593
0.014593
0.014593
0.014593
0.014593
0.014593
0.014593
0.014593
0.014593
0.014593
0.014593
0.014593
0.014593
0.014593
0.014593
0.014593
0.014593
0.014593
0.014593
0.014593
0.014593
0.014593
0.014593
0.014593
0.014593
0.014593
0.014593
0.014593
0.014593
0.014593
0.014593
0.014593
0.014593
0.014593
0.014593
0.014593
0.014593
0.014593
0.014593
0.014593
0.014593
0.014593
0.014593
0.014593
0.014593
0.014593
0.014593
0.014593
0.014593
0.014593
0.014593
0.014593
0.014593
0.014593
0.014593
0.014593
0.014593
0.014593
0.014593
0.014593
0.014593
0.014593
0.014593
0.014593
0.014593
0.014593
0.014593
0.014593
0.014593
0.014593
0.014593
0.014593
0.014593
0.014593
0.014593
0.014593
0.014593
0.014593
0.014593
0.014593
0.014593
0.014593
0.014593
0.014593
0.014593
0.014593
0.014593
0.014593
0.014593
0.014593
0.014593
0.014593
0.014593
0.014593
0.014593
0.014593
0.014593
0.014593
0.014593
0.014593
0.014593
0.014593
0.014593
0.014593
0.014593
0.014593
0.014593
0.014593
0.014593
0.014593
0.014593
0.014593
0.014593
0.014593
0.014593
0.014593
0.014593
0.014593
0.014593
0.014593
0.014593
0.014593
0.014593
0.014593
0.014593
0.014593
0.014593
0.014593
0.014593
0.014593
0.014593
0.014593
0.014593
0.014593
0.014593
0.014593
0.014593
0.014593
0.014593
0.014593
0.014593
0.014593
0.014593
0.014593
0.014593
0.014593
0.014593
0.014593
0.014593
0.014593
0.014593
0.014593
0.014593
0.014593
0.014593
0.014593
0.014593
0.014593
0.014593
0.014593
0.014593
0.014593
0.014593
0.014593
0.014593
0.014593
0.014593
0.014593
0.014593
0.014593
0.014593
0.014593
0.014593
0.014593
0.014593
0.014593
0.014593
0.014593
0.014593
0.014593
0.014593
0.014593
0.014593
0.014593
0.014593
0.014593
0.014593
0.014593
0.014593
0.014593
0.014593
0.014593
0.014593
0.014593
0.014593
0.014593
0.014593
0.014593
0.014593
0.014593
0.014593
0.014593
0.014593
0.014593
0.014593
0.014593
0.014593
0.014593
0.014593
0.014593
0.014593
0.014593
0.014593
0.014593
0.014593
0.014593
0.014593
0.014593
0.014593
0.014593
0.014593
0.014593
0.014593
0.014593
0.014593
0.014593
0.014593
0.014593
0.014593
0.014593
0.014593
0.014593
0.014593
0.014593
0.014593
0.014593
0.014593
0.014593
0.014593
0.014593
0.014593
0.014593
0.014593
0.014593
0.014593
0.014593
0.014593
0.014593
0.014593
0.014593
0.014593
0.014593
0.014593
0.014593
0.014593
0.014593
0.014593
0.014593
0.014593
0.014593
0.014593
0.014593
0.014593
0.014593
0.014593
0.014593
0.014593
0.014593
0.014593
0.014593
0.014593
0.014593
0.014593
0.014593
0.014593
0.014593
0.014593
0.014593
0.014593
0.014593
0.014593
0.014593
0.014593
0.014593
0.014593
0.014593
0.014593
0.014593
0.014593
0.014593
0.014593
0.014593
0.014593
0.014593
0.014593
0.014593
0.014593
0.014593
0.014593
0.014593
0.014593
0.014593
0.014593
0.014593
0.014593
0.014593
0.014593
0.014593
0.014593
0.014593
0.014593
0.014593
0.014593
0.014593
0.014593
0.014593
0.014593
0.014593
0.014593
0.014593
0.014593
0.014593
0.014593
0.014593
0.014593
0.014593
0.014593
0.014593
0.014593
0.014593
0.014593
0.014593
0.014593
0.014593
0.014593
0.014593
0.014593
0.014593
0.014593
0.014593
0.014593
0.014593
0.014593
0.014593
0.014593
0.014593
0.014593
0.014593
0.014593
0.014593
0.014593
0.014593
0.014593
0.014593
0.014593
0.014593
0.014593
0.014593
0.014593
0.014593
0.014593
0.014593
0.014593
0.014593
0.014593
0.014593
0.014593
0.014593
0.014593
0.014593
0.014593
0.014593
0.014593
0.014593
0.014593
0.014593
0.014593
0.014593
0.014593
0.014593
0.014593
0.014593
0.014593
0.014593
0.014593
0.014593
0.014593
0.014593
0.014593
0.014593
0.014593
0.014593
0.014593
0.014593
0.014593
0.014593
0.014593
0.014593
0.014593
0.014593
0.014593
0.014593
0.014593
0.014593
0.014593
0.014593
0.014593
0.014593
0.014593
0.014593
0.014593
0.014593
0.014593
0.014593
0.014593
0.014593
0.014593
0.014593
0.014593
0.014593
0.014593
0.014593
0.014593
0.014593
0.014593
0.014593
0.014593
0.014593
0.014593
0.014593
0.014593
0.014593
0.014593
0.014593
0.014593
0.014593
0.014593
0.014593
0.014593
0.014593
0.014593
0.014593
0.014593
0.014593
0.014593
0.014593
0.014593
0.014593
0.014593
0.014593
0.014593
0.014593
0.014593
0.014593
0.014593
0.014593
0.014593
0.014593
0.014593
0.014593
0.014593
0.014593
0.014593
0.014593
0.014593
0.014593
0.014593
0.014593
0.014593
0.014593
0.014593
0.014593
0.014593
0.014593
0.014593
0.014593
0.014593
0.014593
0.014593
0.014593
0.014593
0.014593
0.014593
0.014593
0.014593
0.014593
0.014593
0.014593
0.014593
0.014593
0.014593
0.014593
0.014593
0.014593
0.014593
0.014593
0.014593
0.014593
0.014593
0.014593
0.014593
0.014593
0.014593
0.014593
0.014593
0.014593
0.014593
0.014593
0.014593
0.014593
0.014593
0.014593
0.014593
0.014593
0.014593
0.014593
0.014593
0.014593
0.014593
0.014593
0.014593
0.014593
0.014593
0.014593
0.014593
0.014593
0.014593
0.014593
0.014593
0.014593
0.014593
0.014593
0.014593
0.014593
0.014593
0.014593
0.014593
0.014593
0.014593
0.014593
0.014593
0.014593
0.014593
0.014593
0.014593
0.014593
0.014593
0.014593
0.014593
0.014593
0.014593
0.014593
0.014593
0.014593
0.014593
0.014593
0.014593
0.014593
0.014593
0.014593
0.014593
0.014593
0.014593
0.014593
0.014593
0.014593
0.014593
0.014593
0.014593
0.014593
0.014593
0.014593
0.014593
0.014593
0.014593
0.014593
0.014593
0.014593
0.014593
0.014593
0.014593
0.014593
0.014593
0.014593
0.014593
0.014593
0.014593
0.014593
0.014593
0.014593
0.014593
0.014593
0.014593
0.014593
0.014593
0.014593
0.014593
0.014593
0.014593
0.014593
0.014593
0.014593
0.014593
0.014593
0.014593
0.014593
0.014593
0.014593
0.014593
0.014593
0.014593
0.014593
0.014593
0.014593
0.014593
0.014593
0.014593
0.014593
0.014593
0.014593
0.014593
0.014593
0.014593
0.014593
0.014593
0.014593
0.014593
0.014593
0.014593
0.014593
0.014593
0.014593
0.014593
0.014593
0.014593
0.014593
0.014593
0.014593
0.014593
0.014593
0.014593
0.014593
0.014593
0.014593
0.014593
0.014593
0.014593
0.014593
0.014593
0.014593
0.014593
0.014593
0.014593
0.014593
0.014593
0.014593
0.014593
0.014593
0.014593
0.014593
0.014593
0.014593
0.014593
0.014593
0.014593
0.014593
0.0145931
0.0145931
0.0145931
0.0145931
0.0145931
0.0145931
0.0145931
0.0145931
0.0145931
0.0145931
0.0145931
0.0145931
0.0145931
0.0145931
0.0145931
0.0145931
0.0145931
0.0145931
0.0145931
0.0145931
0.0145931
0.0145931
0.0145931
0.0145931
0.014593
0.014593
0.014593
0.014593
0.014593
0.014593
0.014593
0.014593
0.014593
0.014593
0.014593
0.014593
0.014593
0.014593
0.014593
0.014593
0.014593
0.014593
0.014593
0.014593
0.014593
0.014593
0.014593
0.014593
0.014593
0.014593
0.014593
0.014593
0.014593
0.014593
0.014593
0.014593
0.014593
0.014593
0.014593
0.014593
0.014593
0.014593
0.014593
0.014593
0.014593
0.014593
0.014593
0.014593
0.014593
0.014593
0.014593
0.014593
0.014593
0.014593
0.014593
0.014593
0.014593
0.014593
0.014593
0.014593
0.014593
0.014593
0.014593
0.014593
0.014593
0.014593
0.014593
0.014593
0.014593
0.014593
0.014593
0.014593
0.014593
0.014593
0.014593
0.014593
0.014593
0.014593
0.014593
0.014593
0.0145931
0.0145931
0.0145931
0.0145931
0.0145931
0.0145932
0.0145932
0.0145932
0.0145932
0.0145933
0.0145933
0.0145933
0.0145933
0.0145934
0.0145934
0.0145934
0.0145934
0.0145935
0.0145935
0.0145935
0.0145935
0.0145936
0.0145936
0.0145936
0.0145936
0.0145936
0.0145936
0.0145936
0.0145936
0.0145936
0.0145935
0.0145935
0.0145935
0.0145935
0.0145934
0.0145934
0.0145934
0.0145933
0.0145933
0.0145933
0.0145932
0.0145932
0.0145932
0.0145932
0.0145931
0.0145931
0.0145931
0.0145931
0.0145931
0.0145931
0.014593
0.014593
0.014593
0.014593
0.014593
0.014593
0.014593
0.014593
0.014593
0.014593
0.014593
0.014593
0.014593
0.014593
0.014593
0.014593
0.014593
0.014593
0.014593
0.014593
0.014593
0.014593
0.014593
0.014593
0.014593
0.014593
0.014593
0.014593
0.014593
0.014593
0.014593
0.014593
0.014593
0.014593
0.014593
0.014593
0.014593
0.014593
0.014593
0.014593
0.014593
0.014593
0.014593
0.014593
0.014593
0.014593
0.014593
0.014593
0.014593
0.014593
0.014593
0.014593
0.014593
0.014593
0.014593
0.014593
0.014593
0.014593
0.014593
0.014593
0.014593
0.014593
0.014593
0.0145935
0.0145935
0.0145936
0.0145937
0.0145938
0.0145939
0.014594
0.0145942
0.0145943
0.0145945
0.0145946
0.0145948
0.014595
0.0145952
0.0145954
0.0145956
0.0145958
0.014596
0.0145962
0.0145964
0.0145966
0.0145967
0.0145969
0.014597
0.0145971
0.0145972
0.0145973
0.0145973
0.0145973
0.0145972
0.0145972
0.0145971
0.0145969
0.0145968
0.0145966
0.0145964
0.0145961
0.0145959
0.0145957
0.0145954
0.0145952
0.014595
0.0145947
0.0145945
0.0145943
0.0145941
0.014594
0.0145938
0.0145937
0.0145936
0.0145934
0.0145934
0.0145933
0.0145932
0.0145932
0.0145931
0.0145931
0.0145931
0.0145931
0.014593
0.014593
0.014593
0.014593
0.014593
0.014593
0.014593
0.014593
0.014593
0.014593
0.014593
0.014593
0.014593
0.014593
0.014593
0.014593
0.014593
0.014593
0.014593
0.014593
0.014593
0.014593
0.014593
0.014593
0.014593
0.014593
0.014593
0.014593
0.014593
0.014593
0.014593
0.014593
0.014593
0.014593
0.014593
0.014593
0.014593
0.014593
0.014593
0.014593
0.014593
0.014593
0.014593
0.014593
0.014593
0.014593
0.014593
0.014593
0.014593
0.014593
0.014593
0.014593
0.014593
0.014593
0.014593
0.014593
0.0145962
0.0145967
0.0145972
0.0145979
0.0145986
0.0145994
0.0146003
0.0146012
0.0146023
0.0146034
0.0146046
0.0146059
0.0146073
0.0146086
0.0146101
0.0146115
0.014613
0.0146144
0.0146159
0.0146173
0.0146186
0.0146199
0.0146211
0.0146221
0.0146229
0.0146236
0.014624
0.0146242
0.0146241
0.0146238
0.0146232
0.0146224
0.0146214
0.0146202
0.0146189
0.0146174
0.0146157
0.014614
0.0146123
0.0146105
0.0146088
0.0146071
0.0146056
0.0146041
0.0146026
0.0146013
0.0146001
0.0145989
0.0145979
0.014597
0.0145963
0.0145956
0.0145951
0.0145946
0.0145943
0.014594
0.0145938
0.0145936
0.0145934
0.0145933
0.0145932
0.0145932
0.0145931
0.0145931
0.0145931
0.014593
0.014593
0.014593
0.014593
0.014593
0.014593
0.014593
0.014593
0.014593
0.014593
0.014593
0.014593
0.014593
0.014593
0.014593
0.014593
0.014593
0.014593
0.014593
0.014593
0.014593
0.014593
0.014593
0.014593
0.014593
0.014593
0.014593
0.014593
0.014593
0.014593
0.014593
0.014593
0.014593
0.014593
0.014593
0.014593
0.014593
0.014593
0.014593
0.014593
0.014593
0.014593
0.014593
0.014593
0.014593
0.014593
0.014593
0.014593
0.014593
0.014593
0.014593
0.0146001
0.0146014
0.014603
0.0146048
0.0146069
0.0146092
0.0146119
0.014615
0.0146185
0.0146224
0.0146268
0.0146318
0.0146373
0.0146434
0.0146502
0.0146575
0.0146655
0.0146739
0.0146828
0.014692
0.0147016
0.0147114
0.0147214
0.0147316
0.0147419
0.0147521
0.0147621
0.0147717
0.0147807
0.014789
0.0147963
0.0148025
0.0148073
0.0148106
0.0148118
0.0148115
0.0148095
0.0148058
0.0148005
0.0147937
0.0147854
0.0147759
0.0147653
0.0147538
0.0147417
0.0147292
0.0147167
0.0147045
0.0146927
0.0146815
0.014671
0.0146612
0.0146519
0.0146433
0.0146354
0.0146282
0.0146219
0.0146164
0.0146117
0.0146079
0.0146047
0.0146022
0.0146002
0.0145985
0.0145971
0.0145961
0.0145953
0.0145947
0.0145942
0.0145939
0.0145936
0.0145934
0.0145933
0.0145932
0.0145931
0.0145931
0.0145931
0.014593
0.014593
0.014593
0.014593
0.014593
0.014593
0.014593
0.014593
0.014593
0.014593
0.014593
0.014593
0.014593
0.014593
0.014593
0.014593
0.014593
0.014593
0.014593
0.014593
0.014593
0.014593
0.014593
0.014593
0.014593
0.014593
0.014593
0.014593
0.014593
0.014593
0.014593
0.014593
0.014593
0.014593
0.014593
0.014593
0.014593
0.014593
0.014593
0.014593
0.014593
0.014593
0.014593
0.014593
0.014593
0.014593
0.0146413
0.0146503
0.0146608
0.014673
0.0146869
0.0147029
0.014721
0.0147414
0.0147646
0.0147909
0.0148205
0.0148538
0.0148909
0.014932
0.0149769
0.0150255
0.0150775
0.0151324
0.0151898
0.0152491
0.0153103
0.015373
0.0154373
0.0155026
0.0155684
0.0156338
0.0156978
0.0157592
0.0158167
0.0158692
0.0159155
0.0159544
0.0159851
0.0160065
0.0160147
0.0160129
0.0160016
0.01598
0.0159484
0.015907
0.0158565
0.0157976
0.0157314
0.0156591
0.0155821
0.0155021
0.0154208
0.0153403
0.0152625
0.0151887
0.0151198
0.0150553
0.0149947
0.0149378
0.0148849
0.0148366
0.0147933
0.0147553
0.014723
0.0146962
0.0146745
0.0146569
0.0146428
0.0146312
0.0146219
0.0146145
0.0146088
0.0146046
0.0146014
0.014599
0.0145972
0.0145959
0.014595
0.0145944
0.0145939
0.0145936
0.0145934
0.0145933
0.0145932
0.0145931
0.0145931
0.014593
0.014593
0.014593
0.014593
0.014593
0.014593
0.014593
0.014593
0.014593
0.014593
0.014593
0.014593
0.014593
0.014593
0.014593
0.014593
0.014593
0.014593
0.014593
0.014593
0.014593
0.014593
0.014593
0.014593
0.014593
0.014593
0.014593
0.014593
0.014593
0.014593
0.014593
0.014593
0.014593
0.014593
0.014593
0.014593
0.014593
0.014593
0.014593
0.014593
0.014593
0.014593
0.0149101
0.0149683
0.0150358
0.0151133
0.0152015
0.0153011
0.015413
0.0155386
0.0156798
0.0158381
0.0160147
0.0162103
0.0164245
0.0166566
0.0169051
0.0171677
0.0174417
0.017724
0.0180115
0.0183024
0.0185971
0.0188963
0.0191992
0.0195034
0.0198051
0.0201002
0.0203839
0.0206516
0.0208987
0.0211209
0.0213143
0.0214753
0.0216018
0.0216908
0.0217264
0.0217196
0.0216775
0.0215947
0.0214708
0.0213064
0.0211025
0.0208601
0.0205817
0.0202706
0.0199305
0.0195665
0.0191856
0.0187964
0.018409
0.0180336
0.0176773
0.0173404
0.0170185
0.0167089
0.0164129
0.0161344
0.0158777
0.0156465
0.0154445
0.0152736
0.0151332
0.0150193
0.0149265
0.0148506
0.0147886
0.0147391
0.0147006
0.0146715
0.0146498
0.0146337
0.0146218
0.0146131
0.0146068
0.0146024
0.0145994
0.0145972
0.0145958
0.0145948
0.0145942
0.0145937
0.0145935
0.0145933
0.0145932
0.0145931
0.0145931
0.014593
0.014593
0.014593
0.014593
0.014593
0.014593
0.014593
0.014593
0.014593
0.014593
0.014593
0.014593
0.014593
0.014593
0.014593
0.014593
0.014593
0.014593
0.014593
0.014593
0.014593
0.014593
0.014593
0.014593
0.014593
0.014593
0.014593
0.014593
0.014593
0.014593
0.014593
0.014593
0.014593
0.014593
0.014593
0.014593
0.014593
0.014593
0.0164922
0.0168101
0.0171677
0.0175655
0.0180024
0.0184775
0.018992
0.0195504
0.0201568
0.0208122
0.0215143
0.0222579
0.0230355
0.0238383
0.0246568
0.0254807
0.0263
0.0271055
0.0278906
0.0286567
0.0294164
0.0301718
0.030917
0.0316427
0.0323397
0.0329996
0.0336148
0.0341788
0.0346863
0.0351325
0.0355129
0.0358237
0.0360645
0.0362325
0.0362994
0.0362832
0.0362019
0.0360446
0.0358088
0.0354938
0.0350967
0.0346151
0.0340488
0.0333983
0.0326641
0.0318483
0.030958
0.030006
0.02901
0.0279931
0.0269848
0.0260015
0.0250252
0.0240376
0.0230369
0.022034
0.0210463
0.0200938
0.0192005
0.0183938
0.017695
0.0171039
0.016604
0.0161787
0.0158191
0.015522
0.0152854
0.0151031
0.0149652
0.0148613
0.0147836
0.0147263
0.014685
0.0146558
0.0146355
0.0146213
0.0146117
0.0146051
0.0146008
0.014598
0.0145961
0.0145949
0.0145942
0.0145937
0.0145934
0.0145933
0.0145932
0.0145931
0.0145931
0.014593
0.014593
0.014593
0.014593
0.014593
0.014593
0.014593
0.014593
0.014593
0.014593
0.014593
0.014593
0.014593
0.014593
0.014593
0.014593
0.014593
0.014593
0.014593
0.014593
0.014593
0.014593
0.014593
0.014593
0.014593
0.014593
0.014593
0.014593
0.014593
0.014593
0.014593
0.014593
0.014593
0.014593
0.014593
0.014593
0.0231197
0.0241768
0.0252946
0.026461
0.0276629
0.0288913
0.0301488
0.0314489
0.0327908
0.0341626
0.035548
0.0369303
0.0382939
0.0396254
0.0409128
0.0421453
0.0433144
0.0444146
0.0454457
0.0464221
0.0474177
0.0484131
0.049383
0.0503077
0.0511732
0.0519699
0.0526913
0.0533338
0.0538956
0.0543763
0.0547752
0.05509
0.055327
0.0554911
0.0555499
0.0555236
0.055431
0.0552598
0.0550141
0.0546914
0.0542825
0.0537773
0.0531714
0.05246
0.051633
0.0506806
0.0495973
0.0483815
0.0470375
0.0455882
0.0441012
0.0426805
0.0412526
0.0397407
0.0381167
0.0363792
0.034539
0.0326155
0.0306446
0.0286866
0.0268238
0.0251062
0.0235201
0.0220427
0.020673
0.0194349
0.018364
0.0174803
0.0167705
0.0162066
0.0157639
0.0154253
0.015175
0.0149948
0.0148667
0.0147767
0.0147144
0.0146721
0.014644
0.0146255
0.0146134
0.0146057
0.0146008
0.0145977
0.0145958
0.0145947
0.014594
0.0145936
0.0145933
0.0145932
0.0145931
0.0145931
0.014593
0.014593
0.014593
0.014593
0.014593
0.014593
0.014593
0.014593
0.014593
0.014593
0.014593
0.014593
0.014593
0.014593
0.014593
0.014593
0.014593
0.014593
0.014593
0.014593
0.014593
0.014593
0.014593
0.014593
0.014593
0.014593
0.014593
0.014593
0.014593
0.014593
0.014593
0.014593
0.014593
0.0381716
0.0399022
0.0416127
0.0432864
0.044909
0.0464749
0.0480064
0.0495826
0.0511771
0.0527539
0.0542814
0.0557347
0.0570956
0.0583536
0.0595032
0.0605407
0.0614668
0.0622868
0.0630104
0.0636459
0.0641941
0.0646675
0.0650761
0.0654273
0.0657268
0.0659788
0.0661856
0.0663514
0.0664791
0.0665705
0.06663
0.0666445
0.0666308
0.0665939
0.0665236
0.0664259
0.0663134
0.0661654
0.0659841
0.0657874
0.0655664
0.0653123
0.0650238
0.0646991
0.0643293
0.0639081
0.0634309
0.0628951
0.0622919
0.0616021
0.0608067
0.0598851
0.0588262
0.0576154
0.0562325
0.0546483
0.0528432
0.0508045
0.0485172
0.0459999
0.0434049
0.0409294
0.0384876
0.0359953
0.0334313
0.0308405
0.0283219
0.0259919
0.023889
0.0220037
0.0203372
0.0189174
0.0177691
0.016878
0.0162025
0.0157007
0.0153388
0.0150862
0.0149142
0.0147991
0.0147233
0.0146742
0.014643
0.0146234
0.0146112
0.0146038
0.0145993
0.0145966
0.0145951
0.0145942
0.0145936
0.0145934
0.0145932
0.0145931
0.0145931
0.014593
0.014593
0.014593
0.014593
0.014593
0.014593
0.014593
0.014593
0.014593
0.014593
0.014593
0.014593
0.014593
0.014593
0.014593
0.014593
0.014593
0.014593
0.014593
0.014593
0.014593
0.014593
0.014593
0.014593
0.014593
0.014593
0.014593
0.014593
0.014593
0.014593
0.0548806
0.056646
0.0583187
0.0598775
0.0613092
0.0626063
0.063765
0.0647866
0.0656704
0.0664367
0.0671035
0.0676847
0.0681909
0.0686294
0.0690045
0.0693201
0.0695781
0.0697854
0.0699525
0.0700909
0.070208
0.070307
0.0703895
0.070457
0.0705101
0.0705496
0.0705762
0.0705828
0.0705772
0.0705607
0.0705292
0.0704832
0.0704207
0.0703415
0.0702471
0.0701406
0.0700249
0.0699007
0.069762
0.0696179
0.0694529
0.0692653
0.0690655
0.0688571
0.0686361
0.0683917
0.0681225
0.0678277
0.0675173
0.0671873
0.0668236
0.0664207
0.0659883
0.0655235
0.0650116
0.0644373
0.0637985
0.0630967
0.0623267
0.061459
0.0604469
0.0592152
0.0576793
0.0558044
0.0535859
0.0510173
0.048103
0.044917
0.0417474
0.0386579
0.0355624
0.0324439
0.0293905
0.0265613
0.0240443
0.0218483
0.0199786
0.0184585
0.0172876
0.0164228
0.0158044
0.0153765
0.0150899
0.0149026
0.0147826
0.0147074
0.014661
0.0146329
0.0146161
0.0146062
0.0146004
0.0145971
0.0145953
0.0145942
0.0145936
0.0145933
0.0145932
0.0145931
0.014593
0.014593
0.014593
0.014593
0.014593
0.014593
0.014593
0.014593
0.014593
0.014593
0.014593
0.014593
0.014593
0.014593
0.014593
0.014593
0.014593
0.014593
0.014593
0.014593
0.014593
0.014593
0.014593
0.014593
0.014593
0.014593
0.014593
0.014593
0.0685927
0.0692758
0.0698649
0.0703708
0.0708004
0.0711575
0.0714448
0.0716779
0.0718741
0.0720464
0.0722019
0.0723407
0.0724659
0.072582
0.0726802
0.0727593
0.0728176
0.0728541
0.0728681
0.0728653
0.0728562
0.0728392
0.0728161
0.0727848
0.072748
0.0727065
0.0726572
0.0726003
0.0725391
0.0724736
0.0724017
0.0723233
0.0722385
0.0721453
0.0720412
0.0719292
0.0718116
0.0716862
0.0715503
0.0714084
0.0712438
0.0710638
0.0708673
0.0706514
0.0704359
0.0702182
0.0699644
0.0696906
0.0694206
0.0691414
0.0688679
0.0685625
0.0682399
0.0679211
0.0676071
0.0672287
0.0668539
0.0664908
0.0660827
0.0656375
0.0651466
0.0645887
0.0639418
0.0631887
0.0623278
0.0613446
0.0602367
0.0589427
0.0573115
0.0552039
0.0525632
0.0493966
0.0457919
0.0420909
0.0384926
0.034939
0.0314254
0.028082
0.0250712
0.0224628
0.0202839
0.0185552
0.017259
0.0163315
0.0156941
0.0152731
0.0150042
0.014837
0.0147352
0.0146746
0.0146391
0.0146187
0.0146071
0.0146006
0.0145971
0.0145951
0.0145941
0.0145936
0.0145933
0.0145931
0.0145931
0.014593
0.014593
0.014593
0.014593
0.014593
0.014593
0.014593
0.014593
0.014593
0.014593
0.014593
0.014593
0.014593
0.014593
0.014593
0.014593
0.014593
0.014593
0.014593
0.014593
0.014593
0.014593
0.014593
0.014593
0.014593
0.014593
0.014593
0.0736708
0.0738348
0.073984
0.0741216
0.0742423
0.074342
0.0744123
0.0744545
0.0744826
0.0745029
0.0745204
0.0745285
0.0745413
0.0745592
0.0745707
0.0745855
0.0746105
0.0746402
0.0746685
0.0746719
0.0746617
0.0746385
0.0746023
0.0745545
0.0744997
0.0744385
0.074368
0.0742896
0.0742064
0.0741188
0.0740242
0.0739218
0.0738144
0.0737018
0.0735793
0.0734499
0.0733168
0.0731771
0.0730272
0.0728693
0.0727034
0.0725305
0.0723459
0.0721285
0.071914
0.0717093
0.0714684
0.0712086
0.0709529
0.070693
0.0704485
0.0701728
0.0698777
0.06959
0.0693106
0.0689685
0.0686334
0.068304
0.0679218
0.0675056
0.0670728
0.0666205
0.0661775
0.0657449
0.0652614
0.0647274
0.0641864
0.0635961
0.0629072
0.0620723
0.0610796
0.0599123
0.0585075
0.0567253
0.0543882
0.0513946
0.047754
0.0436952
0.0396453
0.0356651
0.0317711
0.0281037
0.0248327
0.0220413
0.0197745
0.018047
0.0168086
0.0159657
0.0154183
0.0150768
0.0148705
0.0147491
0.0146793
0.01464
0.0146182
0.0146063
0.0145999
0.0145965
0.0145948
0.0145939
0.0145934
0.0145932
0.0145931
0.014593
0.014593
0.014593
0.014593
0.014593
0.014593
0.014593
0.014593
0.014593
0.014593
0.014593
0.014593
0.014593
0.014593
0.014593
0.014593
0.014593
0.014593
0.014593
0.014593
0.014593
0.014593
0.014593
0.014593
0.014593
0.0760003
0.0760175
0.0760377
0.0760625
0.0760886
0.0761256
0.0761747
0.0762271
0.0762672
0.0762874
0.0762918
0.0762804
0.0762712
0.0762625
0.0762437
0.0762248
0.0762143
0.0762098
0.076209
0.0762011
0.0761828
0.0761545
0.0761124
0.0760578
0.0759958
0.0759253
0.0758445
0.075754
0.0756574
0.0755564
0.0754468
0.0753247
0.0752014
0.0750759
0.0749388
0.0747935
0.0746475
0.0744957
0.0743323
0.0741625
0.0739869
0.0738
0.0736136
0.0733964
0.0731746
0.0729536
0.0727204
0.0724722
0.0722153
0.0719528
0.0717067
0.071453
0.0711802
0.0709042
0.0706254
0.0703246
0.0700084
0.0696811
0.0693272
0.068952
0.0685663
0.0681697
0.067784
0.0674168
0.0670028
0.0665301
0.0660345
0.0655169
0.0649936
0.0644952
0.0639788
0.0633767
0.0627064
0.0619422
0.0610222
0.0599222
0.0586047
0.0569125
0.0546149
0.0515474
0.047695
0.0433511
0.0389814
0.034683
0.0305293
0.0267181
0.0234099
0.0206932
0.0186094
0.0171196
0.0161189
0.015483
0.0150974
0.014872
0.0147441
0.0146733
0.014635
0.0146146
0.0146039
0.0145984
0.0145956
0.0145943
0.0145936
0.0145933
0.0145931
0.0145931
0.014593
0.014593
0.014593
0.014593
0.014593
0.014593
0.014593
0.014593
0.014593
0.014593
0.014593
0.014593
0.014593
0.014593
0.014593
0.014593
0.014593
0.014593
0.014593
0.014593
0.014593
0.014593
0.0777306
0.0777346
0.0777336
0.0777305
0.0777238
0.0777269
0.0777405
0.0777618
0.0777883
0.0778071
0.0778068
0.0777994
0.0777862
0.0777684
0.0777446
0.0777161
0.0776881
0.0776665
0.0776508
0.0776365
0.0776194
0.0775975
0.0775659
0.0775239
0.077474
0.0774136
0.0773403
0.0772552
0.0771639
0.0770644
0.0769529
0.076826
0.0766988
0.0765659
0.0764197
0.0762638
0.076106
0.075943
0.0757688
0.0755862
0.0753983
0.0752014
0.0749998
0.0747798
0.0745468
0.0743126
0.0740706
0.0738174
0.0735529
0.0732801
0.0730126
0.0727414
0.0724579
0.0721655
0.0718628
0.0715446
0.0712098
0.0708586
0.0704946
0.0701253
0.0697552
0.0693889
0.0690399
0.0687012
0.0683316
0.0679221
0.0674807
0.067023
0.0665634
0.0661309
0.0656981
0.0651564
0.0645682
0.0639667
0.0634158
0.0628657
0.0622189
0.0614502
0.0605175
0.059394
0.0580245
0.0562029
0.0536604
0.0502167
0.0459104
0.0412533
0.0366065
0.0320825
0.0278719
0.0241801
0.0211398
0.0188194
0.0171832
0.0161089
0.0154466
0.0150587
0.0148405
0.0147216
0.0146585
0.0146258
0.0146091
0.0146007
0.0145967
0.0145947
0.0145938