/*--------------------------------*- C++ -*----------------------------------*\
| =========                 |                                                 |
| \\      /  F ield         | OpenFOAM: The Open Source CFD Toolbox           |
|  \\    /   O peration     | Version:  v1706                                 |
|   \\  /    A nd           | Web:      www.OpenFOAM.com                      |
|    \\/     M anipulation  |                                                 |
\*---------------------------------------------------------------------------*/
FoamFile
{
    version     2.0;
    format      ascii;
    class       volScalarField;
    location    "1e-05";
    object      Mach;
}
// * * * * * * * * * * * * * * * * * * * * * * * * * * * * * * * * * * * * * //

dimensions      [0 0 0 0 0 0 0];


internalField   nonuniform List<scalar> 
29871
(
11.2859
11.2859
11.2859
11.2859
11.2859
11.2859
11.2859
11.2859
11.2859
11.2859
11.2859
11.2859
11.2859
11.2859
11.2859
11.2859
11.2859
11.2859
11.2859
11.2859
11.2859
11.2859
11.2859
11.2859
11.2859
11.2859
11.2859
11.2859
11.2859
11.2859
11.2859
11.2859
11.2859
11.2859
11.2859
11.2859
11.2859
11.2859
11.2859
11.2859
11.2859
11.2859
11.2859
11.2859
11.2859
11.2859
11.2859
11.2859
11.2859
11.2859
11.2859
11.2859
11.2859
11.2859
11.2859
11.2859
11.2859
11.2859
11.2859
11.2859
11.2859
11.2859
11.2859
11.2859
11.2859
11.2859
11.2859
11.2859
11.2859
11.2859
11.2859
11.2859
11.2859
11.2859
11.2859
11.2859
11.2859
11.2859
11.2859
11.2859
11.2859
11.2859
11.2859
11.2859
11.2859
11.2859
11.2859
11.2859
11.2859
11.2859
11.2859
11.2859
11.2859
11.2859
11.2859
11.2859
11.2859
11.2859
11.2859
11.2859
11.2859
11.2859
11.2859
11.2859
11.2859
11.2859
11.2859
11.2859
11.2859
11.2859
11.2859
11.2859
11.2859
11.2859
11.2859
11.2859
11.2859
11.2859
11.2859
11.2859
11.2859
11.2859
11.2859
11.2859
11.2859
11.2859
11.2859
11.2859
11.2859
11.2859
11.2859
11.2859
11.2859
11.2859
11.2859
11.2859
11.2859
11.2859
11.2859
11.2859
11.2859
11.2859
11.2859
11.2859
11.2859
11.2859
11.2859
11.2859
11.2859
11.2859
11.2859
11.2859
11.2859
11.2859
11.2859
11.2859
11.2859
11.2859
11.2859
11.2859
11.2859
11.2859
11.2859
11.2859
11.2859
11.2859
11.2859
11.2859
11.2859
11.2859
11.2859
11.2859
11.2859
11.2859
11.2859
11.2859
11.2859
11.2859
11.2859
11.2859
11.2859
11.2859
11.2859
11.2859
11.2859
11.2859
11.2859
11.2859
11.2859
11.2859
11.2859
11.2859
11.2859
11.2859
11.2859
11.2859
11.2859
11.2859
11.2859
11.2859
11.2859
11.2859
11.2859
11.2859
11.2859
11.2859
11.2859
11.2859
11.2859
11.2859
11.2859
11.2859
11.2859
11.2859
11.2859
11.2859
11.2859
11.2859
11.2859
11.2859
11.2859
11.2859
11.2859
11.2859
11.2859
11.2859
11.2859
11.2859
11.2859
11.2859
11.2859
11.2859
11.2859
11.2859
11.2859
11.2859
11.2859
11.2859
11.2859
11.2859
11.2859
11.2859
11.2859
11.2859
11.2859
11.2859
11.2859
11.2859
11.2859
11.2859
11.2859
11.2859
11.2859
11.2859
11.2859
11.2859
11.2859
11.2859
11.2859
11.2859
11.2859
11.2859
11.2859
11.2859
11.2859
11.2859
11.2859
11.2859
11.2859
11.2859
11.2859
11.2859
11.2859
11.2859
11.2859
11.2859
11.2859
11.2859
11.2859
11.2859
11.2859
11.2859
11.2859
11.2859
11.2859
11.2859
11.2859
11.2859
11.2859
11.2859
11.2859
11.2859
11.2859
11.2859
11.2859
11.2859
11.2859
11.2859
11.2859
11.2859
11.2859
11.2859
11.2859
11.2859
11.2859
11.2859
11.2859
11.2859
11.2859
11.2859
11.2859
11.2859
11.2859
11.2859
11.2859
11.2859
11.2859
11.2859
11.2859
11.2859
11.2859
11.2859
11.2859
11.2859
11.2859
11.2859
11.2859
11.2859
11.2859
11.2859
11.2859
11.2859
11.2859
11.2859
11.2859
11.2859
11.2859
11.2859
11.2859
11.2859
11.2859
11.2859
11.2859
11.2859
11.2859
11.2859
11.2859
11.2859
11.2859
11.2859
11.2859
11.2859
11.2859
11.2859
11.2859
11.2859
11.2859
11.2859
11.2859
11.2859
11.2859
11.2859
11.2859
11.2859
11.2859
11.2859
11.2859
11.2859
11.2859
11.2859
11.2859
11.2859
11.2859
11.2859
11.2859
11.2859
11.2859
11.2859
11.2859
11.2859
11.2859
11.2859
11.2859
11.2859
11.2859
11.2859
11.2859
11.2859
11.2859
11.2859
11.2859
11.2859
11.2859
11.2859
11.2859
11.2859
11.2859
11.2859
11.2859
11.2859
11.2859
11.2859
11.2859
11.2859
11.2859
11.2859
11.2859
11.2859
11.2859
11.2859
11.2859
11.2859
11.2859
11.2859
11.2859
11.2859
11.2859
11.2859
11.2859
11.2859
11.2859
11.2859
11.2859
11.2859
11.2859
11.2859
11.2859
11.2859
11.2859
11.2859
11.2859
11.2859
11.2859
11.2859
11.2859
11.2859
11.2859
11.2859
11.2859
11.2859
11.2859
11.2859
11.2859
11.2859
11.2859
11.2859
11.2859
11.2859
11.2859
11.2859
11.2859
11.2859
11.2859
11.2859
11.2859
11.2859
11.2859
11.2859
11.2859
11.2859
11.2859
11.2859
11.2859
11.2859
11.2859
11.2859
11.2859
11.2859
11.2859
11.2859
11.2859
11.2859
11.2859
11.2859
11.2859
11.2859
11.2859
11.2859
11.2859
11.2859
11.2859
11.2859
11.2859
11.2859
11.2859
11.2859
11.2859
11.2859
11.2859
11.2859
11.2859
11.2859
11.2859
11.2859
11.2859
11.2859
11.2859
11.2859
11.2859
11.2859
11.2859
11.2859
11.2859
11.2859
11.2859
11.2859
11.2859
11.2859
11.2859
11.2859
11.2859
11.2859
11.2859
11.2859
11.2859
11.2859
11.2859
11.2859
11.2859
11.2859
11.2859
11.2859
11.2859
11.2859
11.2859
11.2859
11.2859
11.2859
11.2859
11.2859
11.2859
11.2859
11.2859
11.2859
11.2859
11.2859
11.2859
11.2859
11.2859
11.2859
11.2859
11.2859
11.2859
11.2859
11.2859
11.2859
11.2859
11.2859
11.2859
11.2859
11.2859
11.2859
11.2859
11.2859
11.2859
11.2859
11.2859
11.2859
11.2859
11.2859
11.2859
11.2859
11.2859
11.2859
11.2859
11.2859
11.2859
11.2859
11.2859
11.2859
11.2859
11.2859
11.2859
11.2859
11.2859
11.2859
11.2859
11.2859
11.2859
11.2859
11.2859
11.2859
11.2859
11.2859
11.2859
11.2859
11.2859
11.2859
11.2859
11.2859
11.2859
11.2859
11.2859
11.2859
11.2859
11.2859
11.2859
11.2859
11.2859
11.2859
11.2859
11.2859
11.2859
11.2859
11.2859
11.2859
11.2859
11.2859
11.2859
11.2859
11.2859
11.2859
11.2859
11.2859
11.2859
11.2859
11.2859
11.2859
11.2859
11.2859
11.2859
11.2859
11.2859
11.2859
11.2859
11.2859
11.2859
11.2859
11.2859
11.2859
11.2859
11.2859
11.2859
11.2859
11.2859
11.2859
11.2859
11.2859
11.2859
11.2859
11.2859
11.2859
11.2859
11.2859
11.2859
11.2859
11.2859
11.2859
11.2859
11.2859
11.2859
11.2859
11.2859
11.2859
11.2859
11.2859
11.2859
11.2859
11.2859
11.2859
11.2859
11.2859
11.2859
11.2859
11.2859
11.2859
11.2859
11.2859
11.2859
11.2859
11.2859
11.2859
11.2859
11.2859
11.2859
11.2859
11.2859
11.2859
11.2859
11.2859
11.2859
11.2859
11.2859
11.2859
11.2859
11.2859
11.2859
11.2859
11.2859
11.2859
11.2859
11.2859
11.2859
11.2859
11.2859
11.2859
11.2859
11.2859
11.2859
11.2859
11.2859
11.2859
11.2859
11.2859
11.2859
11.2859
11.2859
11.2859
11.2859
11.2859
11.2859
11.2859
11.2859
11.2859
11.2859
11.2859
11.2859
11.2859
11.2859
11.2859
11.2859
11.2859
11.2859
11.2859
11.2859
11.2859
11.2859
11.2859
11.2859
11.2859
11.2859
11.2859
11.2859
11.2859
11.2859
11.2859
11.2859
11.2859
11.2859
11.2859
11.2859
11.2859
11.2859
11.2859
11.2859
11.2859
11.2859
11.2859
11.2859
11.2859
11.2859
11.2859
11.2859
11.2859
11.2859
11.2859
11.2859
11.2859
11.2859
11.2859
11.2859
11.2859
11.2859
11.2859
11.2859
11.2859
11.2859
11.2859
11.2859
11.2859
11.2859
11.2859
11.2859
11.2859
11.2859
11.2859
11.2859
11.2859
11.2859
11.2859
11.2859
11.2859
11.2859
11.2859
11.2859
11.2859
11.2859
11.2859
11.2859
11.2859
11.2859
11.2859
11.2859
11.2859
11.2859
11.2859
11.2859
11.2859
11.2859
11.2859
11.2859
11.2859
11.2859
11.2859
11.2859
11.2859
11.2859
11.2859
11.2859
11.2859
11.2859
11.2859
11.2859
11.2859
11.2859
11.2859
11.2859
11.2859
11.2859
11.2859
11.2859
11.2859
11.2859
11.2859
11.2859
11.2859
11.2859
11.2859
11.2859
11.2859
11.2859
11.2859
11.2859
11.2859
11.2859
11.2859
11.2859
11.2859
11.2859
11.2859
11.2859
11.2859
11.2859
11.2859
11.2859
11.2859
11.2859
11.2859
11.2859
11.2859
11.2859
11.2859
11.2859
11.2859
11.2859
11.2859
11.2859
11.2859
11.2859
11.2859
11.2859
11.2859
11.2859
11.2859
11.2859
11.2859
11.2859
11.2859
11.2859
11.2859
11.2859
11.2859
11.2859
11.2859
11.2859
11.2859
11.2859
11.2859
11.2859
11.2859
11.2859
11.2859
11.2859
11.2859
11.2859
11.2859
11.2859
11.2859
11.2859
11.2859
11.2859
11.2859
11.2859
11.2859
11.2859
11.2859
11.2859
11.2859
11.2859
11.2859
11.2859
11.2859
11.2859
11.2859
11.2859
11.2859
11.2859
11.2859
11.2859
11.2859
11.2859
11.2859
11.2859
11.2859
11.2859
11.2859
11.2859
11.2859
11.2859
11.2859
11.2859
11.2859
11.2859
11.2859
11.2859
11.2859
11.2859
11.2859
11.2859
11.2859
11.2859
11.2859
11.2859
11.2859
11.2859
11.2859
11.2859
11.2859
11.2859
11.2859
11.2859
11.2859
11.2859
11.2859
11.2859
11.2859
11.2859
11.2859
11.2859
11.2859
11.2859
11.2859
11.2859
11.2859
11.2859
11.2859
11.2859
11.2859
11.2859
11.2859
11.2859
11.2859
11.2859
11.2859
11.2859
11.2859
11.2859
11.2859
11.2859
11.2859
11.2859
11.2859
11.2859
11.2859
11.2859
11.2859
11.2859
11.2859
11.2859
11.2859
11.2859
11.2859
11.2859
11.2859
11.2859
11.2859
11.2859
11.2859
11.2859
11.2859
11.2859
11.2859
11.2859
11.2859
11.2859
11.2859
11.2859
11.2859
11.2859
11.2859
11.2859
11.2859
11.2859
11.2859
11.2859
11.2859
11.2859
11.2859
11.2859
11.2859
11.2859
11.2859
11.2859
11.2859
11.2859
11.2859
11.2859
11.2859
11.2859
11.2859
11.2859
11.2859
11.2859
11.2859
11.2859
11.2859
11.2859
11.2859
11.2859
11.2859
11.2859
11.2859
11.2859
11.2859
11.2859
11.2859
11.2859
11.2859
11.2859
11.2859
11.2859
11.2859
11.2859
11.2859
11.2859
11.2859
11.2859
11.2859
11.2859
11.2859
11.2859
11.2859
11.2859
11.2859
11.2859
11.2859
11.2859
11.2859
11.2859
11.2859
11.2859
11.2859
11.2859
11.2859
11.2859
11.2859
11.2859
11.2859
11.2859
11.2859
11.2859
11.2859
11.2859
11.2859
11.2859
11.2859
11.2859
11.2859
11.2859
11.2859
11.2859
11.2859
11.2859
11.2859
11.2859
11.2859
11.2859
11.2859
11.2859
11.2859
11.2859
11.2859
11.2859
11.2859
11.2859
11.2859
11.2859
11.2859
11.2859
11.2859
11.2859
11.2859
11.2859
11.2859
11.2859
11.2859
11.2859
11.2859
11.2859
11.2859
11.2859
11.2859
11.2859
11.2859
11.2859
11.2859
11.2859
11.2859
11.2859
11.2859
11.2859
11.2859
11.2859
11.2859
11.2859
11.2859
11.2859
11.2859
11.2859
11.2859
11.2859
11.2859
11.2859
11.2859
11.2859
11.2859
11.2859
11.2859
11.2859
11.2859
11.2859
11.2859
11.2859
11.2859
11.2859
11.2859
11.2859
11.2859
11.2859
11.2859
11.2859
11.2859
11.2859
11.2859
11.2859
11.2859
11.2859
11.2859
11.2859
11.2859
11.2859
11.2859
11.2859
11.2859
11.2859
11.2859
11.2859
11.2859
11.2859
11.2859
11.2859
11.2859
11.2859
11.2859
11.2859
11.2859
11.2859
11.2859
11.2859
11.2859
11.2859
11.2859
11.2859
11.2859
11.2859
11.2859
11.2859
11.2859
11.2859
11.2859
11.2859
11.2859
11.2859
11.2859
11.2859
11.2859
11.2859
11.2859
11.2859
11.2859
11.2859
11.2859
11.2859
11.2859
11.2859
11.2859
11.2859
11.2859
11.2859
11.2859
11.2859
11.2859
11.2859
11.2859
11.2859
11.2859
11.2859
11.2859
11.2859
11.2859
11.2859
11.2859
11.2859
11.2859
11.2859
11.2859
11.2859
11.2859
11.2859
11.2859
11.2859
11.2859
11.2859
11.2859
11.2859
11.2859
11.2859
11.2859
11.2859
11.2859
11.2859
11.2859
11.2859
11.2859
11.2859
11.2859
11.2859
11.2859
11.2859
11.2859
11.2859
11.2859
11.2859
11.2859
11.2859
11.2859
11.2859
11.2859
11.2859
11.2859
11.2859
11.2859
11.2859
11.2859
11.2859
11.2859
11.2859
11.2859
11.2859
11.2859
11.2859
11.2859
11.2859
11.2859
11.2859
11.2859
11.2859
11.2859
11.2859
11.2859
11.2859
11.2859
11.2859
11.2859
11.2859
11.2859
11.2859
11.2859
11.2859
11.2859
11.2859
11.2859
11.2859
11.2859
11.2859
11.2859
11.2859
11.2859
11.2859
11.2859
11.2858
11.2858
11.2858
11.2858
11.2858
11.2858
11.2858
11.2858
11.2858
11.2858
11.2858
11.2858
11.2858
11.2858
11.2858
11.2858
11.2858
11.2858
11.2858
11.2858
11.2858
11.2858
11.2858
11.2858
11.2858
11.2858
11.2858
11.2858
11.2858
11.2858
11.2858
11.2858
11.2858
11.2858
11.2858
11.2858
11.2858
11.2858
11.2858
11.2858
11.2858
11.2858
11.2859
11.2859
11.2859
11.2859
11.2859
11.2859
11.2859
11.2859
11.2859
11.2859
11.2859
11.2859
11.2859
11.2859
11.2859
11.2859
11.2859
11.2859
11.2859
11.2859
11.2859
11.2859
11.2859
11.2859
11.2859
11.2859
11.2859
11.2859
11.2859
11.2859
11.2859
11.2859
11.2859
11.2859
11.2859
11.2859
11.2859
11.2859
11.2859
11.2859
11.2859
11.2859
11.2859
11.2859
11.2859
11.2859
11.2859
11.2859
11.2859
11.2859
11.2859
11.2859
11.2859
11.2859
11.2859
11.2859
11.2859
11.2859
11.2859
11.2859
11.2859
11.2859
11.2859
11.2859
11.2859
11.2859
11.2859
11.2859
11.2858
11.2858
11.2858
11.2858
11.2858
11.2858
11.2858
11.2857
11.2857
11.2857
11.2857
11.2857
11.2857
11.2857
11.2856
11.2856
11.2856
11.2856
11.2856
11.2856
11.2856
11.2856
11.2855
11.2855
11.2855
11.2855
11.2855
11.2855
11.2855
11.2856
11.2856
11.2856
11.2856
11.2856
11.2856
11.2856
11.2857
11.2857
11.2857
11.2857
11.2857
11.2857
11.2858
11.2858
11.2858
11.2858
11.2858
11.2858
11.2858
11.2858
11.2858
11.2858
11.2858
11.2858
11.2859
11.2859
11.2859
11.2859
11.2859
11.2859
11.2859
11.2859
11.2859
11.2859
11.2859
11.2859
11.2859
11.2859
11.2859
11.2859
11.2859
11.2859
11.2859
11.2859
11.2859
11.2859
11.2859
11.2859
11.2859
11.2859
11.2859
11.2859
11.2859
11.2859
11.2859
11.2859
11.2859
11.2859
11.2859
11.2859
11.2859
11.2859
11.2859
11.2859
11.2859
11.2859
11.2859
11.2859
11.2859
11.2859
11.2859
11.2859
11.2859
11.2859
11.2859
11.2859
11.2859
11.2859
11.2859
11.2859
11.2859
11.2859
11.2859
11.2856
11.2856
11.2855
11.2855
11.2854
11.2854
11.2853
11.2852
11.2851
11.2851
11.285
11.2849
11.2848
11.2846
11.2845
11.2844
11.2843
11.2842
11.2841
11.284
11.2839
11.2838
11.2837
11.2836
11.2836
11.2835
11.2835
11.2835
11.2835
11.2835
11.2836
11.2836
11.2837
11.2838
11.2839
11.284
11.2841
11.2843
11.2844
11.2845
11.2847
11.2848
11.2849
11.285
11.2851
11.2852
11.2853
11.2854
11.2855
11.2856
11.2856
11.2857
11.2857
11.2857
11.2858
11.2858
11.2858
11.2858
11.2858
11.2858
11.2858
11.2858
11.2858
11.2859
11.2859
11.2859
11.2859
11.2859
11.2859
11.2859
11.2859
11.2859
11.2859
11.2859
11.2859
11.2859
11.2859
11.2859
11.2859
11.2859
11.2859
11.2859
11.2859
11.2859
11.2859
11.2859
11.2859
11.2859
11.2859
11.2859
11.2859
11.2859
11.2859
11.2859
11.2859
11.2859
11.2859
11.2859
11.2859
11.2859
11.2859
11.2859
11.2859
11.2859
11.2859
11.2859
11.2859
11.2859
11.2859
11.2859
11.2859
11.2859
11.2859
11.2859
11.2859
11.2841
11.2838
11.2835
11.2832
11.2828
11.2823
11.2819
11.2813
11.2807
11.2801
11.2794
11.2787
11.278
11.2773
11.2765
11.2757
11.2749
11.2741
11.2733
11.2725
11.2718
11.2711
11.2705
11.2699
11.2695
11.2691
11.2689
11.2688
11.2688
11.269
11.2693
11.2697
11.2703
11.2709
11.2717
11.2725
11.2734
11.2744
11.2753
11.2763
11.2772
11.2782
11.279
11.2798
11.2806
11.2813
11.282
11.2826
11.2832
11.2837
11.2841
11.2844
11.2847
11.285
11.2852
11.2853
11.2854
11.2855
11.2856
11.2857
11.2857
11.2858
11.2858
11.2858
11.2858
11.2858
11.2858
11.2858
11.2859
11.2859
11.2859
11.2859
11.2859
11.2859
11.2859
11.2859
11.2859
11.2859
11.2859
11.2859
11.2859
11.2859
11.2859
11.2859
11.2859
11.2859
11.2859
11.2859
11.2859
11.2859
11.2859
11.2859
11.2859
11.2859
11.2859
11.2859
11.2859
11.2859
11.2859
11.2859
11.2859
11.2859
11.2859
11.2859
11.2859
11.2859
11.2859
11.2859
11.2859
11.2859
11.2859
11.2859
11.2859
11.2859
11.2859
11.2859
11.2819
11.2812
11.2803
11.2793
11.2782
11.2769
11.2754
11.2737
11.2718
11.2697
11.2673
11.2646
11.2616
11.2582
11.2545
11.2505
11.2462
11.2416
11.2367
11.2317
11.2265
11.2212
11.2158
11.2103
11.2048
11.1993
11.194
11.1888
11.184
11.1796
11.1758
11.1726
11.1701
11.1684
11.1678
11.168
11.1691
11.1711
11.174
11.1777
11.1821
11.1872
11.1929
11.199
11.2055
11.2122
11.2189
11.2254
11.2318
11.2378
11.2435
11.2488
11.2538
11.2585
11.2628
11.2667
11.2701
11.2731
11.2757
11.2778
11.2795
11.2809
11.282
11.2829
11.2836
11.2842
11.2846
11.285
11.2852
11.2854
11.2855
11.2856
11.2857
11.2858
11.2858
11.2858
11.2858
11.2858
11.2858
11.2859
11.2859
11.2859
11.2859
11.2859
11.2859
11.2859
11.2859
11.2859
11.2859
11.2859
11.2859
11.2859
11.2859
11.2859
11.2859
11.2859
11.2859
11.2859
11.2859
11.2859
11.2859
11.2859
11.2859
11.2859
11.2859
11.2859
11.2859
11.2859
11.2859
11.2859
11.2859
11.2859
11.2859
11.2859
11.2859
11.2859
11.2859
11.2859
11.2859
11.2859
11.2859
11.2859
11.2859
11.2593
11.2544
11.2487
11.2421
11.2345
11.2258
11.216
11.2049
11.1924
11.1783
11.1624
11.1446
11.125
11.1033
11.0798
11.0545
11.0276
10.9994
10.9701
10.9401
10.9093
10.8779
10.846
10.8137
10.7814
10.7495
10.7184
10.6889
10.6613
10.6363
10.6144
10.5962
10.5818
10.5719
10.5683
10.5693
10.5748
10.5851
10.6001
10.6199
10.644
10.6722
10.7042
10.7393
10.777
10.8165
10.8569
10.8972
10.9365
10.9739
11.0091
11.0422
11.0736
11.1031
11.1308
11.1561
11.1789
11.199
11.216
11.2303
11.2419
11.2513
11.2589
11.2651
11.2702
11.2742
11.2773
11.2796
11.2814
11.2826
11.2836
11.2843
11.2848
11.2851
11.2854
11.2855
11.2856
11.2857
11.2858
11.2858
11.2858
11.2858
11.2858
11.2859
11.2859
11.2859
11.2859
11.2859
11.2859
11.2859
11.2859
11.2859
11.2859
11.2859
11.2859
11.2859
11.2859
11.2859
11.2859
11.2859
11.2859
11.2859
11.2859
11.2859
11.2859
11.2859
11.2859
11.2859
11.2859
11.2859
11.2859
11.2859
11.2859
11.2859
11.2859
11.2859
11.2859
11.2859
11.2859
11.2859
11.2859
11.2859
11.2859
11.1147
11.084
11.0487
11.0085
10.9633
10.9127
10.8567
10.7945
10.7257
10.6496
10.566
10.4752
10.3776
10.2742
10.1661
10.0548
9.94161
9.82815
9.71574
9.60508
9.49591
9.38798
9.28165
9.17777
9.0775
8.98208
8.89273
8.81056
8.7365
8.67137
8.6159
8.5706
8.53573
8.51185
8.50329
8.50726
8.51976
8.54432
8.5809
8.6295
8.69033
8.76354
8.84905
8.94662
9.05586
9.17593
9.30533
9.44172
9.58205
9.72283
9.86118
9.99646
10.13
10.2625
10.3929
10.519
10.6384
10.7487
10.8474
10.9326
11.0036
11.0619
11.1098
11.1493
11.1818
11.2079
11.2282
11.2436
11.2552
11.2639
11.2703
11.275
11.2784
11.2808
11.2824
11.2836
11.2844
11.2849
11.2852
11.2855
11.2856
11.2857
11.2858
11.2858
11.2858
11.2858
11.2858
11.2859
11.2859
11.2859
11.2859
11.2859
11.2859
11.2859
11.2859
11.2859
11.2859
11.2859
11.2859
11.2859
11.2859
11.2859
11.2859
11.2859
11.2859
11.2859
11.2859
11.2859
11.2859
11.2859
11.2859
11.2859
11.2859
11.2859
11.2859
11.2859
11.2859
11.2859
11.2859
11.2859
11.2859
11.2859
11.2859
10.3468
10.2069
10.0544
9.89079
9.71796
9.53774
9.35099
9.1575
8.95746
8.75218
8.54398
8.33569
8.13015
7.92991
7.73711
7.55353
7.38045
7.21871
7.06838
6.92827
6.79495
6.66733
6.54593
6.43178
6.32584
6.22888
6.14142
6.06372
5.99592
5.93801
5.89001
5.85194
5.82338
5.80431
5.79826
5.8037
5.81536
5.83707
5.86895
5.91135
5.96509
6.03107
6.11004
6.20289
6.3109
6.43528
6.5768
6.73549
6.90997
7.097
7.29208
7.49342
7.70602
7.93517
8.18304
8.44902
8.7303
9.02172
9.31514
9.59933
9.86291
10.1004
10.3127
10.5019
10.6686
10.8112
10.9279
11.0199
11.0905
11.1442
11.1848
11.2148
11.2366
11.2521
11.263
11.2706
11.2758
11.2793
11.2817
11.2832
11.2842
11.2848
11.2852
11.2855
11.2856
11.2857
11.2858
11.2858
11.2858
11.2858
11.2859
11.2859
11.2859
11.2859
11.2859
11.2859
11.2859
11.2859
11.2859
11.2859
11.2859
11.2859
11.2859
11.2859
11.2859
11.2859
11.2859
11.2859
11.2859
11.2859
11.2859
11.2859
11.2859
11.2859
11.2859
11.2859
11.2859
11.2859
11.2859
11.2859
11.2859
11.2859
11.2859
11.2859
11.2859
8.10488
7.84325
7.58658
7.33815
7.10033
6.87411
6.65817
6.44905
6.24619
6.05095
5.86532
5.69101
5.52908
5.37994
5.24359
5.11981
5.00816
4.90792
4.81813
4.73623
4.65601
4.57883
4.50645
4.43999
4.37999
4.32665
4.27996
4.23978
4.20589
4.17805
4.15609
4.13993
4.12896
4.12294
4.12369
4.13163
4.14266
4.15633
4.17593
4.20092
4.23186
4.26944
4.31405
4.36634
4.42755
4.49894
4.58154
4.67634
4.78418
4.90496
5.03527
5.16718
5.30758
5.46508
5.64499
5.85099
6.08644
6.35515
6.65949
6.99456
7.34683
7.70694
8.07663
8.45928
8.85236
9.24454
9.61733
9.9533
10.2449
10.4922
10.6968
10.8599
10.9843
11.0759
11.1418
11.1886
11.2213
11.2436
11.2585
11.2684
11.2749
11.2791
11.2817
11.2833
11.2843
11.285
11.2853
11.2856
11.2857
11.2858
11.2858
11.2858
11.2858
11.2859
11.2859
11.2859
11.2859
11.2859
11.2859
11.2859
11.2859
11.2859
11.2859
11.2859
11.2859
11.2859
11.2859
11.2859
11.2859
11.2859
11.2859
11.2859
11.2859
11.2859
11.2859
11.2859
11.2859
11.2859
11.2859
11.2859
11.2859
11.2859
11.2859
11.2859
11.2859
5.54056
5.34584
5.16608
5.00136
4.85154
4.71516
4.58884
4.46604
4.34823
4.2375
4.13523
4.04213
3.95845
3.88401
3.8184
3.76126
3.7121
3.67016
3.63456
3.60457
3.57999
3.55987
3.54354
3.53046
3.52023
3.51259
3.50734
3.50422
3.50309
3.50384
3.50632
3.51089
3.51692
3.52434
3.53381
3.54542
3.55955
3.57006
3.58327
3.59792
3.61437
3.63317
3.65359
3.67554
3.69995
3.72733
3.75744
3.79048
3.82726
3.86913
3.9173
3.97285
4.03677
4.11079
4.19701
4.29826
4.41785
4.55945
4.7276
4.92541
5.14688
5.38032
5.63615
5.9268
6.26269
6.64884
7.07779
7.53143
8.00033
8.48065
8.96295
9.4264
9.84504
10.2028
10.4964
10.7284
10.9036
11.0299
11.1177
11.1772
11.2167
11.2426
11.2591
11.2696
11.2761
11.2801
11.2825
11.2839
11.2847
11.2852
11.2855
11.2857
11.2858
11.2858
11.2858
11.2858
11.2859
11.2859
11.2859
11.2859
11.2859
11.2859
11.2859
11.2859
11.2859
11.2859
11.2859
11.2859
11.2859
11.2859
11.2859
11.2859
11.2859
11.2859
11.2859
11.2859
11.2859
11.2859
11.2859
11.2859
11.2859
11.2859
11.2859
11.2859
11.2859
4.08553
3.97261
3.87039
3.77898
3.69811
3.62741
3.56642
3.51454
3.47136
3.43527
3.40494
3.37946
3.35808
3.34033
3.32588
3.31429
3.30567
3.29979
3.29618
3.29426
3.29359
3.29394
3.2954
3.29775
3.30091
3.30481
3.3094
3.31491
3.32102
3.32772
3.33514
3.34335
3.35238
3.36227
3.37306
3.38463
3.39685
3.40971
3.42311
3.43776
3.4489
3.46263
3.47856
3.49536
3.51176
3.5292
3.54808
3.56842
3.58951
3.61156
3.63513
3.66
3.68621
3.71398
3.74336
3.77558
3.81153
3.85053
3.89363
3.94337
4.00247
4.07491
4.16586
4.279
4.41833
4.58958
4.7994
5.05146
5.33255
5.64501
6.00436
6.42403
6.90468
7.42746
7.97385
8.53125
9.0811
9.59312
10.0379
10.4008
10.681
10.886
11.0286
11.124
11.1859
11.2252
11.2496
11.2646
11.2735
11.2788
11.2819
11.2837
11.2847
11.2852
11.2855
11.2857
11.2858
11.2858
11.2858
11.2858
11.2859
11.2859
11.2859
11.2859
11.2859
11.2859
11.2859
11.2859
11.2859
11.2859
11.2859
11.2859
11.2859
11.2859
11.2859
11.2859
11.2859
11.2859
11.2859
11.2859
11.2859
11.2859
11.2859
11.2859
11.2859
11.2859
3.31919
3.28813
3.26201
3.24014
3.22206
3.20741
3.19629
3.18815
3.18223
3.17773
3.17433
3.17197
3.17051
3.1695
3.16903
3.16958
3.17134
3.17449
3.17876
3.18361
3.18867
3.19387
3.20007
3.20609
3.21268
3.21963
3.22681
3.23469
3.24305
3.25179
3.26088
3.27039
3.28029
3.29074
3.30175
3.31324
3.32503
3.33727
3.35024
3.36378
3.37824
3.39381
3.40657
3.42185
3.43883
3.45562
3.46952
3.48851
3.50896
3.52859
3.54942
3.56683
3.58951
3.61366
3.63502
3.65444
3.68334
3.70917
3.73325
3.76222
3.79461
3.82953
3.86707
3.90709
3.95059
4.00082
4.06013
4.13362
4.23016
4.35843
4.52577
4.7408
5.01141
5.32724
5.68508
6.10176
6.59146
7.14862
7.75046
8.37413
8.9911
9.56229
10.0522
10.443
10.7342
10.9377
11.0724
11.158
11.2107
11.2425
11.2613
11.2722
11.2783
11.2818
11.2837
11.2847
11.2853
11.2856
11.2857
11.2858
11.2858
11.2858
11.2859
11.2859
11.2859
11.2859
11.2859
11.2859
11.2859
11.2859
11.2859
11.2859
11.2859
11.2859
11.2859
11.2859
11.2859
11.2859
11.2859
11.2859
11.2859
11.2859
11.2859
11.2859
11.2859
11.2859
11.2859
11.2859
3.09228
3.08716
3.08303
3.07961
3.07667
3.0745
3.07414
3.07537
3.07713
3.07912
3.0816
3.08395
3.08757
3.09086
3.09275
3.09742
3.10061
3.10412
3.10827
3.11313
3.11853
3.12488
3.13143
3.13855
3.14624
3.15435
3.16274
3.17165
3.18112
3.19087
3.20071
3.21092
3.22155
3.23229
3.24321
3.25484
3.26675
3.27888
3.29142
3.30508
3.3196
3.33501
3.3485
3.36306
3.37933
3.39627
3.40954
3.42785
3.44648
3.46534
3.48474
3.50192
3.52198
3.54396
3.56392
3.58275
3.6079
3.63259
3.65484
3.68183
3.70918
3.73615
3.76705
3.79646
3.82074
3.85024
3.88362
3.92194
3.96623
4.01461
4.06572
4.12402
4.1986
4.30056
4.44194
4.63404
4.88887
5.21014
5.58557
6.02827
6.55319
7.15539
7.81129
8.49177
9.15512
9.75033
10.2395
10.6091
10.8673
11.0361
11.1409
11.2036
11.2401
11.2609
11.2725
11.2788
11.2822
11.284
11.2849
11.2854
11.2856
11.2858
11.2858
11.2858
11.2858
11.2859
11.2859
11.2859
11.2859
11.2859
11.2859
11.2859
11.2859
11.2859
11.2859
11.2859
11.2859
11.2859
11.2859
11.2859
11.2859
11.2859
11.2859
11.2859
11.2859
11.2859
11.2859
11.2859
2.99781
2.99839
2.99967
3.00125
3.00137
3.00327
3.00408
3.00539
3.00715
3.00993
3.01419
3.0175
3.02241
3.02667
3.03169
3.03735
3.04216
3.04645
3.05107
3.05584
3.06166
3.06821
3.07494
3.08261
3.09079
3.09911
3.10786
3.1171
3.12674
3.13649
3.14641
3.15692
3.16855
3.1797
3.19082
3.20293
3.21545
3.22776
3.24041
3.25443
3.26882
3.28317
3.29814
3.31203
3.32814
3.34353
3.35907
3.37597
3.39324
3.41118
3.42962
3.44774
3.46679
3.48654
3.50546
3.52562
3.54701
3.56875
3.59164
3.61608
3.64145
3.66741
3.6939
3.72072
3.74324
3.77129
3.80495
3.83621
3.87042
3.90598
3.93641
3.96429
4.00293
4.05109
4.10548
4.16342
4.23114
4.32394
4.4591
4.652
4.91783
5.26048
5.67115
6.16553
6.75549
7.42645
8.14836
8.87645
9.54949
10.1131
10.5409
10.8368
11.0262
11.1403
11.2063
11.2434
11.2636
11.2744
11.2801
11.283
11.2845
11.2852
11.2855
11.2857
11.2858
11.2858
11.2858
11.2859
11.2859
11.2859
11.2859
11.2859
11.2859
11.2859
11.2859
11.2859
11.2859
11.2859
11.2859
11.2859
11.2859
11.2859
11.2859
11.2859
11.2859
11.2859
11.2859
11.2859
2.9305
2.93319
2.93586
2.93821
2.94142
2.94485
2.94712
2.94895
2.95157
2.95441
2.9582
2.96253
2.96731
2.97208
2.97717
2.98243
2.98799
2.99347
2.99883
3.00417
3.00988
3.01598
3.02236
3.02949
3.0372
3.04512
3.05352
3.06255
3.07217
3.08178
3.09163
3.10203
3.1139
3.12502
3.13622
3.1483
3.16106
3.17364
3.18643
3.20031
3.21468
3.22885
3.24361
3.25795
3.27378
3.28976
3.30584
3.32249
3.33955
3.35716
3.37565
3.3942
3.41315
3.4324
3.45216
3.47276
3.49385
3.51552
3.53803
3.56104
3.58453
3.60855
3.63273
3.65647
3.68113
3.70731
3.73559
3.76552
3.79596
3.82674
3.85537
3.88488
3.92282
3.95806
3.99784
4.03001
4.06157
4.10653
4.16259
4.22354
4.29452
4.39416
4.54405
4.76421
5.07317
5.46564
5.94611
6.53148
7.21648
7.97245
8.7506
9.47892
10.0894
10.5467
10.8551
11.0459
11.1567
11.2182
11.2512
11.2685
11.2773
11.2818
11.2839
11.285
11.2855
11.2857
11.2858
11.2858
11.2858
11.2859
11.2859
11.2859
11.2859
11.2859
11.2859
11.2859
11.2859
11.2859
11.2859
11.2859
11.2859
11.2859
11.2859
11.2859
11.2859
11.2859
11.2859
11.2859
11.2859
2.87999
2.88287
2.88575
2.88881
2.89172
2.89465
2.89738
2.90005
2.90276
2.90582
2.90934
2.91329
2.91771
2.92248
2.92755
2.93296
2.93861
2.9444
2.95027
2.95627
2.96248
2.96893
2.97582
2.98318
2.99088
2.99898
3.00771
3.01709
3.02659
3.03635
3.04659
3.05822
3.06945
3.0807
3.09267
3.10532
3.11805
3.131
3.14459
3.15872
3.17297
3.18756
3.20267
3.21845
3.2347
3.25104
3.26759
3.28459
3.3022
3.32051
3.33915
3.35807
3.37737
3.39727
3.41781
3.43885
3.46036
3.48234
3.50472
3.52756
3.55084
3.57452
3.59899
3.6245
3.65034
3.67682
3.70408
3.73155
3.75897
3.78744
3.81783
3.84991
3.88392
3.91826
3.95096
3.98274
4.01996
4.06116
4.09511
4.12898
4.17735
4.23638
4.30106
4.38475
4.51113
4.70454
4.99018
5.37468
5.85759
6.45599
7.16747
7.96252
8.78418
9.54701
10.1728
10.6254
10.9174
11.0896
11.1849
11.2353
11.2612
11.2741
11.2804
11.2833
11.2847
11.2854
11.2857
11.2858
11.2858
11.2858
11.2859
11.2859
11.2859
11.2859
11.2859
11.2859
11.2859
11.2859
11.2859
11.2859
11.2859
11.2859
11.2859
11.2859
11.2859
11.2859
11.2859
11.2859
2.82923
2.83121
2.8335
2.83605
2.83876
2.84163
2.84455
2.84743
2.85028
2.8532
2.85632
2.85978
2.86367
2.86799
2.87272
2.8778
2.88326
2.88905
2.89511
2.90138
2.90786
2.91458
2.92159
2.92895
2.93667
2.94474
2.9533
2.96242
2.97187
2.98162
2.99177
3.00286
3.01415
3.02552
3.03742
3.04988
3.06262
3.07563
3.08908
3.10301
3.11729
3.13196
3.1472
3.163
3.17921
3.19566
3.21231
3.22929
3.24684
3.26497
3.28358
3.30248
3.32171
3.34144
3.36173
3.38251
3.40371
3.42528
3.44725
3.46967
3.49258
3.51613
3.54049
3.56546
3.59075
3.61638
3.64246
3.66919
3.69712
3.72653
3.7561
3.78585
3.81616
3.84658
3.8781
3.91166
3.9471
3.98297
4.01618
4.05015
4.09149
4.13134
4.16317
4.20615
4.26214
4.32378
4.40147
4.5188
4.70317
4.98497
5.37694
5.88122
6.51466
7.27114
8.11516
8.97373
9.74507
10.3478
10.7582
11.0066
11.1446
11.2168
11.253
11.2706
11.279
11.2828
11.2846
11.2853
11.2856
11.2858
11.2858
11.2858
11.2859
11.2859
11.2859
11.2859
11.2859
11.2859
11.2859
11.2859
11.2859
11.2859
11.2859
11.2859
11.2859
11.2859
11.2859
11.2859
2.78011
2.78184
2.78384
2.78611
2.78865
2.79142
2.79433
2.79732
2.80035
2.80349
2.80685
2.81052
2.81452
2.81895
2.82373
2.8289
2.83449
2.84045
2.84674
2.85335
2.86024
2.86743
2.87493
2.88277
2.89096
2.89954
2.90856
2.91799
2.92778
2.93793
2.94866
2.95984
2.97129
2.98317
2.99551
3.00819
3.02119
3.03458
3.04839
3.06263
3.0773
3.09247
3.10814
3.12419
3.14057
3.15725
3.17423
3.19166
3.20967
3.22814
3.24687
3.26588
3.28533
3.30528
3.3257
3.34653
3.36774
3.38936
3.41141
3.43398
3.45715
3.48092
3.50517
3.52979
3.55481
3.58042
3.60697
3.63474
3.66328
3.69191
3.72066
3.74991
3.78034
3.81259
3.84549
3.87839
3.91044
3.94235
3.97752
4.01387
4.04886
4.08608
4.12841
4.16824
4.20073
4.24222
4.29624
4.35581
4.433
4.55203
4.7438
5.04364
5.46408
6.01392
6.70747
7.52912
8.42806
9.30489
10.0446
10.5787
10.9128
11.0998
11.1968
11.2447
11.2673
11.2778
11.2824
11.2844
11.2853
11.2856
11.2858
11.2858
11.2859
11.2859
11.2859
11.2859
11.2859
11.2859
11.2859
11.2859
11.2859
11.2859
11.2859
11.2859
11.2859
11.2859
11.2859
2.73111
2.73278
2.73469
2.73688
2.73936
2.7421
2.74503
2.74811
2.75134
2.75476
2.75841
2.76233
2.76662
2.77121
2.77618
2.78156
2.78734
2.79352
2.80007
2.80697
2.81422
2.82181
2.82975
2.83804
2.84669
2.85573
2.86518
2.87501
2.88519
2.89578
2.90685
2.91831
2.93016
2.94243
2.95505
2.968
2.98134
2.99508
3.00923
3.02382
3.03885
3.05432
3.07017
3.08636
3.10291
3.11981
3.13709
3.15496
3.17321
3.19164
3.21035
3.22947
3.24904
3.26906
3.2895
3.31032
3.33155
3.35321
3.37535
3.39798
3.42111
3.44468
3.46868
3.4932
3.5184
3.54447
3.57139
3.59879
3.62647
3.65455
3.68348
3.71377
3.74519
3.77697
3.80873
3.84076
3.87404
3.90816
3.94147
3.97461
4.01109
4.04864
4.0841
4.12444
4.16828
4.20591
4.23809
4.28143
4.33377
4.39305
4.47546
4.6075
4.82542
5.16747
5.64191
6.26687
7.04603
7.94777
8.88957
9.74133
10.3927
10.8149
11.0542
11.1775
11.2371
11.2647
11.277
11.2823
11.2845
11.2854
11.2857
11.2858
11.2858
11.2859
11.2859
11.2859
11.2859
11.2859
11.2859
11.2859
11.2859
11.2859
11.2859
11.2859
11.2859
11.2859
11.2859
11.2859
2.68153
2.68307
2.6848
2.68676
2.689
2.69151
2.69429
2.6973
2.70053
2.70398
2.70766