/*--------------------------------*- C++ -*----------------------------------*\
| =========                 |                                                 |
| \\      /  F ield         | OpenFOAM: The Open Source CFD Toolbox           |
|  \\    /   O peration     | Version:  v1706                                 |
|   \\  /    A nd           | Web:      www.OpenFOAM.com                      |
|    \\/     M anipulation  |                                                 |
\*---------------------------------------------------------------------------*/
FoamFile
{
    version     2.0;
    format      ascii;
    class       volScalarField;
    location    "1e-05";
    object      p;
}
// * * * * * * * * * * * * * * * * * * * * * * * * * * * * * * * * * * * * * //

dimensions      [1 -1 -2 0 0 0 0];


internalField   nonuniform List<scalar> 
29871
(
21.9139
21.9139
21.9139
21.9139
21.9139
21.9139
21.9139
21.9139
21.9139
21.9139
21.9139
21.9139
21.9139
21.9139
21.9139
21.9139
21.9139
21.9139
21.9139
21.9139
21.9139
21.9139
21.9139
21.9139
21.9139
21.9139
21.9139
21.9139
21.9139
21.9139
21.9139
21.9139
21.9139
21.9139
21.9139
21.9139
21.9139
21.9139
21.9139
21.9139
21.9139
21.9139
21.9139
21.9139
21.9139
21.9139
21.9139
21.9139
21.9139
21.9139
21.9139
21.9139
21.9139
21.9139
21.9139
21.9139
21.9139
21.9139
21.9139
21.9139
21.9139
21.9139
21.9139
21.9139
21.9139
21.9139
21.9139
21.9139
21.9139
21.9139
21.9139
21.9139
21.9139
21.9139
21.9139
21.9139
21.9139
21.9139
21.9139
21.9139
21.9139
21.9139
21.9139
21.9139
21.9139
21.9139
21.9139
21.9139
21.9139
21.9139
21.9139
21.9139
21.9139
21.9139
21.9139
21.9139
21.9139
21.9139
21.9139
21.9139
21.9139
21.9139
21.9139
21.9139
21.9139
21.9139
21.9139
21.9139
21.9139
21.9139
21.9139
21.9139
21.9139
21.9139
21.9139
21.9139
21.9139
21.9139
21.9139
21.9139
21.9139
21.9139
21.9139
21.9139
21.9139
21.9139
21.9139
21.9139
21.9139
21.9139
21.9139
21.9139
21.9139
21.9139
21.9139
21.9139
21.9139
21.9139
21.9139
21.9139
21.9139
21.9139
21.9139
21.9139
21.9139
21.9139
21.9139
21.9139
21.9139
21.9139
21.9139
21.9139
21.9139
21.9139
21.9139
21.9139
21.9139
21.9139
21.9139
21.9139
21.9139
21.9139
21.9139
21.9139
21.9139
21.9139
21.9139
21.9139
21.9139
21.9139
21.9139
21.9139
21.9139
21.9139
21.9139
21.9139
21.9139
21.9139
21.9139
21.9139
21.9139
21.9139
21.9139
21.9139
21.9139
21.9139
21.9139
21.9139
21.9139
21.9139
21.9139
21.9139
21.9139
21.9139
21.9139
21.9139
21.9139
21.9139
21.9139
21.9139
21.9139
21.9139
21.9139
21.9139
21.9139
21.9139
21.9139
21.9139
21.9139
21.9139
21.9139
21.9139
21.9139
21.9139
21.9139
21.9139
21.9139
21.9139
21.9139
21.9139
21.9139
21.9139
21.9139
21.9139
21.9139
21.9139
21.9139
21.9139
21.9139
21.9139
21.9139
21.9139
21.9139
21.9139
21.9139
21.9139
21.9139
21.9139
21.9139
21.9139
21.9139
21.9139
21.9139
21.9139
21.9139
21.9139
21.9139
21.9139
21.9139
21.9139
21.9139
21.9139
21.9139
21.9139
21.9139
21.9139
21.9139
21.9139
21.9139
21.9139
21.9139
21.9139
21.9139
21.9139
21.9139
21.9139
21.9139
21.9139
21.9139
21.9139
21.9139
21.9139
21.9139
21.9139
21.9139
21.9139
21.9139
21.9139
21.9139
21.9139
21.9139
21.9139
21.9139
21.9139
21.9139
21.9139
21.9139
21.9139
21.9139
21.9139
21.9139
21.9139
21.9139
21.9139
21.9139
21.9139
21.9139
21.9139
21.9139
21.9139
21.9139
21.9139
21.9139
21.9139
21.9139
21.9139
21.9139
21.9139
21.9139
21.9139
21.9139
21.9139
21.9139
21.9139
21.9139
21.9139
21.9139
21.9139
21.9139
21.9139
21.9139
21.9139
21.9139
21.9139
21.9139
21.9139
21.9139
21.9139
21.9139
21.9139
21.9139
21.9139
21.9139
21.9139
21.9139
21.9139
21.9139
21.9139
21.9139
21.9139
21.9139
21.9139
21.9139
21.9139
21.9139
21.9139
21.9139
21.9139
21.9139
21.9139
21.9139
21.9139
21.9139
21.9139
21.9139
21.9139
21.9139
21.9139
21.9139
21.9139
21.9139
21.9139
21.9139
21.9139
21.9139
21.9139
21.9139
21.9139
21.9139
21.9139
21.9139
21.9139
21.9139
21.9139
21.9139
21.9139
21.9139
21.9139
21.9139
21.9139
21.9139
21.9139
21.9139
21.9139
21.9139
21.9139
21.9139
21.9139
21.9139
21.9139
21.9139
21.9139
21.9139
21.9139
21.9139
21.9139
21.9139
21.9139
21.9139
21.9139
21.9139
21.9139
21.9139
21.9139
21.9139
21.9139
21.9139
21.9139
21.9139
21.9139
21.9139
21.9139
21.9139
21.9139
21.9139
21.9139
21.9139
21.9139
21.9139
21.9139
21.9139
21.9139
21.9139
21.9139
21.9139
21.9139
21.9139
21.9139
21.9139
21.9139
21.9139
21.9139
21.9139
21.9139
21.9139
21.9139
21.9139
21.9139
21.9139
21.9139
21.9139
21.9139
21.9139
21.9139
21.9139
21.9139
21.9139
21.9139
21.9139
21.9139
21.9139
21.9139
21.9139
21.9139
21.9139
21.9139
21.9139
21.9139
21.9139
21.9139
21.9139
21.9139
21.9139
21.9139
21.9139
21.9139
21.9139
21.9139
21.9139
21.9139
21.9139
21.9139
21.9139
21.9139
21.9139
21.9139
21.9139
21.9139
21.9139
21.9139
21.9139
21.9139
21.9139
21.9139
21.9139
21.9139
21.9139
21.9139
21.9139
21.9139
21.9139
21.9139
21.9139
21.9139
21.9139
21.9139
21.9139
21.9139
21.9139
21.9139
21.9139
21.9139
21.9139
21.9139
21.9139
21.9139
21.9139
21.9139
21.9139
21.9139
21.9139
21.9139
21.9139
21.9139
21.9139
21.9139
21.9139
21.9139
21.9139
21.9139
21.9139
21.9139
21.9139
21.9139
21.9139
21.9139
21.9139
21.9139
21.9139
21.9139
21.9139
21.9139
21.9139
21.9139
21.9139
21.9139
21.9139
21.9139
21.9139
21.9139
21.9139
21.9139
21.9139
21.9139
21.9139
21.9139
21.9139
21.9139
21.9139
21.9139
21.9139
21.9139
21.9139
21.9139
21.9139
21.9139
21.9139
21.9139
21.9139
21.9139
21.9139
21.9139
21.9139
21.9139
21.9139
21.9139
21.9139
21.9139
21.9139
21.9139
21.9139
21.9139
21.9139
21.9139
21.9139
21.9139
21.9139
21.9139
21.9139
21.9139
21.9139
21.9139
21.9139
21.9139
21.9139
21.9139
21.9139
21.9139
21.9139
21.9139
21.9139
21.9139
21.9139
21.9139
21.9139
21.9139
21.9139
21.9139
21.9139
21.9139
21.9139
21.9139
21.9139
21.9139
21.9139
21.9139
21.9139
21.9139
21.9139
21.9139
21.9139
21.9139
21.9139
21.9139
21.9139
21.9139
21.9139
21.9139
21.9139
21.9139
21.9139
21.9139
21.9139
21.9139
21.9139
21.9139
21.9139
21.9139
21.9139
21.9139
21.9139
21.9139
21.9139
21.9139
21.9139
21.9139
21.9139
21.9139
21.9139
21.9139
21.9139
21.9139
21.9139
21.9139
21.9139
21.9139
21.9139
21.9139
21.9139
21.9139
21.9139
21.9139
21.9139
21.9139
21.9139
21.9139
21.9139
21.9139
21.9139
21.9139
21.9139
21.9139
21.9139
21.9139
21.9139
21.9139
21.9139
21.9139
21.9139
21.9139
21.9139
21.9139
21.9139
21.9139
21.9139
21.9139
21.9139
21.9139
21.9139
21.9139
21.9139
21.9139
21.9139
21.9139
21.9139
21.9139
21.9139
21.9139
21.9139
21.9139
21.9139
21.9139
21.9139
21.9139
21.9139
21.9139
21.9139
21.9139
21.9139
21.9139
21.9139
21.9139
21.9139
21.9139
21.9139
21.9139
21.9139
21.9139
21.9139
21.9139
21.9139
21.9139
21.9139
21.9139
21.9139
21.9139
21.9139
21.9139
21.9139
21.9139
21.9139
21.9139
21.9139
21.9139
21.9139
21.9139
21.9139
21.9139
21.9139
21.9139
21.9139
21.9139
21.9139
21.9139
21.9139
21.9139
21.9139
21.9139
21.9139
21.9139
21.9139
21.9139
21.9139
21.9139
21.9139
21.9139
21.9139
21.9139
21.9139
21.9139
21.9139
21.9139
21.9139
21.9139
21.9139
21.9139
21.9139
21.9139
21.9139
21.9139
21.9139
21.9139
21.9139
21.9139
21.9139
21.9139
21.9139
21.9139
21.9139
21.9139
21.9139
21.9139
21.9139
21.9139
21.9139
21.9139
21.9139
21.9139
21.9139
21.9139
21.9139
21.9139
21.9139
21.9139
21.9139
21.9139
21.9139
21.9139
21.9139
21.9139
21.9139
21.9139
21.9139
21.9139
21.9139
21.9139
21.9139
21.9139
21.9139
21.9139
21.9139
21.9139
21.9139
21.9139
21.9139
21.9139
21.9139
21.9139
21.9139
21.9139
21.9139
21.9139
21.9139
21.9139
21.9139
21.9139
21.9139
21.9139
21.9139
21.9139
21.9139
21.9139
21.9139
21.9139
21.9139
21.9139
21.9139
21.9139
21.9139
21.9139
21.9139
21.9139
21.9139
21.9139
21.9139
21.9139
21.9139
21.9139
21.9139
21.9139
21.9139
21.9139
21.9139
21.9139
21.9139
21.9139
21.9139
21.9139
21.9139
21.9139
21.9139
21.9139
21.9139
21.9139
21.9139
21.9139
21.9139
21.9139
21.9139
21.9139
21.9139
21.9139
21.9139
21.9139
21.9139
21.9139
21.9139
21.9139
21.9139
21.9139
21.9139
21.9139
21.9139
21.9139
21.9139
21.9139
21.9139
21.9139
21.9139
21.9139
21.9139
21.9139
21.9139
21.9139
21.9139
21.9139
21.9139
21.9139
21.9139
21.9139
21.9139
21.9139
21.9139
21.9139
21.9139
21.9139
21.9139
21.9139
21.9139
21.9139
21.9139
21.9139
21.9139
21.9139
21.9139
21.9139
21.9139
21.9139
21.9139
21.9139
21.9139
21.9139
21.9139
21.9139
21.9139
21.9139
21.9139
21.9139
21.9139
21.9139
21.9139
21.9139
21.9139
21.9139
21.9139
21.9139
21.9139
21.9139
21.9139
21.9139
21.9139
21.9139
21.9139
21.9139
21.9139
21.9139
21.9139
21.9139
21.9139
21.9139
21.9139
21.9139
21.9139
21.9139
21.9139
21.9139
21.9139
21.9139
21.9139
21.9139
21.9139
21.9139
21.9139
21.9139
21.9139
21.9139
21.9139
21.9139
21.9139
21.9139
21.9139
21.9139
21.9139
21.9139
21.9139
21.9139
21.9139
21.9139
21.9139
21.9139
21.9139
21.9139
21.9139
21.9139
21.9139
21.9139
21.9139
21.9139
21.9139
21.9139
21.9139
21.9139
21.9139
21.9139
21.9139
21.9139
21.9139
21.9139
21.9139
21.9139
21.9139
21.9139
21.9139
21.9139
21.9139
21.9139
21.9139
21.9139
21.9139
21.9139
21.9139
21.9139
21.9139
21.9139
21.9139
21.9139
21.9139
21.9139
21.9139
21.9139
21.9139
21.9139
21.9139
21.9139
21.9139
21.9139
21.9139
21.9139
21.9139
21.9139
21.9139
21.9139
21.9139
21.9139
21.9139
21.9139
21.9139
21.9139
21.9139
21.9139
21.9139
21.9139
21.9139
21.9139
21.9139
21.9139
21.9139
21.9139
21.9139
21.9139
21.9139
21.9139
21.9139
21.9139
21.9139
21.9139
21.9139
21.9139
21.9139
21.9139
21.9139
21.9139
21.9139
21.9139
21.9139
21.9139
21.9139
21.9139
21.9139
21.9139
21.9139
21.9139
21.9139
21.9139
21.9139
21.9139
21.9139
21.9139
21.9139
21.9139
21.9139
21.9139
21.9139
21.9139
21.9139
21.9139
21.9139
21.9139
21.9139
21.9139
21.9139
21.9139
21.9139
21.9139
21.9139
21.9139
21.9139
21.9139
21.9139
21.9139
21.9139
21.9139
21.9139
21.9139
21.9139
21.9139
21.9139
21.9139
21.9139
21.9139
21.9139
21.9139
21.9139
21.9139
21.9139
21.9139
21.9139
21.9139
21.9139
21.9139
21.9139
21.9139
21.9139
21.9139
21.9139
21.9139
21.9139
21.9139
21.9139
21.9139
21.9139
21.9139
21.9139
21.9139
21.9139
21.9139
21.9139
21.9139
21.9139
21.9139
21.9139
21.9139
21.9139
21.9139
21.9139
21.9139
21.9139
21.9139
21.9139
21.9139
21.9139
21.9139
21.9139
21.9139
21.9139
21.9139
21.9139
21.9139
21.9139
21.9139
21.9139
21.9139
21.9139
21.9139
21.9139
21.9139
21.9139
21.9139
21.9139
21.9139
21.9139
21.9139
21.9139
21.9139
21.9139
21.9139
21.9139
21.9139
21.9139
21.9139
21.9139
21.9139
21.9139
21.9139
21.9139
21.9139
21.9139
21.9139
21.9139
21.9139
21.9139
21.9139
21.9139
21.9139
21.9139
21.9139
21.9139
21.9139
21.9139
21.9139
21.9139
21.9139
21.9139
21.9139
21.9139
21.9139
21.9139
21.9139
21.9139
21.9139
21.9139
21.9139
21.9139
21.9139
21.9139
21.9139
21.9139
21.9139
21.9139
21.9139
21.9139
21.9139
21.9139
21.9139
21.9139
21.9139
21.9139
21.9139
21.9139
21.9139
21.9139
21.9139
21.9139
21.9139
21.9139
21.9139
21.9139
21.9139
21.9139
21.9139
21.9139
21.9139
21.9139
21.9139
21.9139
21.9139
21.9139
21.9139
21.9139
21.9139
21.9139
21.9139
21.9139
21.9139
21.9139
21.9139
21.9139
21.9139
21.9139
21.9139
21.9139
21.9139
21.9139
21.9139
21.9139
21.9139
21.9139
21.9139
21.9139
21.9139
21.9139
21.9139
21.9139
21.9139
21.9139
21.9139
21.9139
21.9139
21.9139
21.9139
21.9139
21.9139
21.9139
21.9139
21.9139
21.9139
21.9139
21.9139
21.9139
21.9139
21.9139
21.9139
21.9139
21.9139
21.9139
21.9139
21.9139
21.9139
21.9139
21.9139
21.9139
21.9139
21.9139
21.9139
21.9139
21.9139
21.9139
21.9139
21.9139
21.9139
21.9139
21.9139
21.9139
21.914
21.914
21.914
21.914
21.914
21.914
21.914
21.914
21.914
21.914
21.914
21.914
21.914
21.9141
21.9141
21.9141
21.9141
21.9141
21.9141
21.9141
21.9141
21.9141
21.9141
21.9141
21.9141
21.914
21.914
21.914
21.914
21.914
21.914
21.914
21.914
21.914
21.914
21.914
21.914
21.9139
21.9139
21.9139
21.9139
21.9139
21.9139
21.9139
21.9139
21.9139
21.9139
21.9139
21.9139
21.9139
21.9139
21.9139
21.9139
21.9139
21.9139
21.9139
21.9139
21.9139
21.9139
21.9139
21.9139
21.9139
21.9139
21.9139
21.9139
21.9139
21.9139
21.9139
21.9139
21.9139
21.9139
21.9139
21.9139
21.9139
21.9139
21.9139
21.9139
21.9139
21.9139
21.9139
21.9139
21.9139
21.9139
21.9139
21.9139
21.9139
21.9139
21.9139
21.9139
21.9139
21.9139
21.9139
21.9139
21.9139
21.9139
21.9139
21.9139
21.9139
21.9139
21.9139
21.9139
21.9139
21.9139
21.9139
21.9139
21.9139
21.9139
21.9141
21.9141
21.9141
21.9142
21.9142
21.9143
21.9143
21.9143
21.9144
21.9145
21.9145
21.9146
21.9146
21.9147
21.9148
21.9148
21.9149
21.9149
21.915
21.915
21.9151
21.9151
21.9152
21.9152
21.9152
21.9152
21.9152
21.9152
21.9152
21.9151
21.9151
21.915
21.915
21.9149
21.9148
21.9148
21.9147
21.9146
21.9146
21.9145
21.9144
21.9144
21.9143
21.9142
21.9142
21.9141
21.9141
21.9141
21.914
21.914
21.914
21.914
21.914
21.9139
21.9139
21.9139
21.9139
21.9139
21.9139
21.9139
21.9139
21.9139
21.9139
21.9139
21.9139
21.9139
21.9139
21.9139
21.9139
21.9139
21.9139
21.9139
21.9139
21.9139
21.9139
21.9139
21.9139
21.9139
21.9139
21.9139
21.9139
21.9139
21.9139
21.9139
21.9139
21.9139
21.9139
21.9139
21.9139
21.9139
21.9139
21.9139
21.9139
21.9139
21.9139
21.9139
21.9139
21.9139
21.9139
21.9139
21.9139
21.9139
21.9139
21.9139
21.9139
21.9139
21.9139
21.9139
21.9139
21.9139
21.9139
21.9139
21.9139
21.9149
21.915
21.9152
21.9154
21.9156
21.9159
21.9162
21.9165
21.9168
21.9171
21.9175
21.9179
21.9183
21.9188
21.9192
21.9196
21.9201
21.9205
21.921
21.9214
21.9218
21.9222
21.9226
21.9229
21.9231
21.9233
21.9234
21.9235
21.9235
21.9234
21.9232
21.923
21.9227
21.9223
21.9219
21.9214
21.9209
21.9204
21.9199
21.9193
21.9188
21.9183
21.9178
21.9173
21.9169
21.9165
21.9161
21.9157
21.9154
21.9151
21.9149
21.9147
21.9145
21.9144
21.9143
21.9142
21.9141
21.9141
21.914
21.914
21.914
21.914
21.9139
21.9139
21.9139
21.9139
21.9139
21.9139
21.9139
21.9139
21.9139
21.9139
21.9139
21.9139
21.9139
21.9139
21.9139
21.9139
21.9139
21.9139
21.9139
21.9139
21.9139
21.9139
21.9139
21.9139
21.9139
21.9139
21.9139
21.9139
21.9139
21.9139
21.9139
21.9139
21.9139
21.9139
21.9139
21.9139
21.9139
21.9139
21.9139
21.9139
21.9139
21.9139
21.9139
21.9139
21.9139
21.9139
21.9139
21.9139
21.9139
21.9139
21.9139
21.9139
21.9139
21.9209
21.922
21.9232
21.9246
21.9262
21.9279
21.9299
21.932
21.9343
21.9369
21.9396
21.9424
21.9454
21.9485
21.9516
21.9549
21.9581
21.9613
21.9645
21.9677
21.9707
21.9735
21.976
21.9782
21.9801
21.9816
21.9825
21.9829
21.9827
21.9821
21.9809
21.9792
21.977
21.9744
21.9714
21.9681
21.9645
21.9608
21.9569
21.9531
21.9493
21.9456
21.9421
21.9387
21.9356
21.9326
21.9299
21.9273
21.9251
21.923
21.9213
21.9198
21.9186
21.9176
21.9168
21.9162
21.9156
21.9152
21.9149
21.9146
21.9144
21.9143
21.9142
21.9141
21.914
21.914
21.914
21.9139
21.9139
21.9139
21.9139
21.9139
21.9139
21.9139
21.9139
21.9139
21.9139
21.9139
21.9139
21.9139
21.9139
21.9139
21.9139
21.9139
21.9139
21.9139
21.9139
21.9139
21.9139
21.9139
21.9139
21.9139
21.9139
21.9139
21.9139
21.9139
21.9139
21.9139
21.9139
21.9139
21.9139
21.9139
21.9139
21.9139
21.9139
21.9139
21.9139
21.9139
21.9139
21.9139
21.9139
21.9139
21.9139
21.9139
21.9139
21.9139
21.9295
21.9324
21.9358
21.9397
21.9443
21.9495
21.9555
21.9622
21.9698
21.9785
21.9882
21.9991
22.0112
22.0247
22.0395
22.0556
22.0729
22.0914
22.1109
22.1312
22.1522
22.1738
22.1959
22.2184
22.241
22.2636
22.2858
22.3072
22.3274
22.3459
22.3623
22.3762
22.3872
22.3947
22.3978
22.3973
22.3931
22.3852
22.3737
22.3588
22.3407
22.3197
22.2964
22.271
22.2443
22.2167
22.189
22.1617
22.1356
22.1108
22.0876
22.0657
22.0453
22.0262
22.0086
21.9927
21.9785
21.9663
21.9559
21.9474
21.9404
21.9348
21.9301
21.9264
21.9233
21.9209
21.9191
21.9177
21.9166
21.9158
21.9153
21.9149
21.9146
21.9144
21.9142
21.9141
21.914
21.914
21.914
21.9139
21.9139
21.9139
21.9139
21.9139
21.9139
21.9139
21.9139
21.9139
21.9139
21.9139
21.9139
21.9139
21.9139
21.9139
21.9139
21.9139
21.9139
21.9139
21.9139
21.9139
21.9139
21.9139
21.9139
21.9139
21.9139
21.9139
21.9139
21.9139
21.9139
21.9139
21.9139
21.9139
21.9139
21.9139
21.9139
21.9139
21.9139
21.9139
21.9139
21.9139
21.9139
21.9139
21.9139
22.0195
22.0392
22.0622
22.0887
22.1192
22.154
22.1935
22.2383
22.289
22.3465
22.4115
22.4847
22.5666
22.6573
22.7568
22.8648
22.9806
23.1033
23.2317
23.3649
23.5023
23.6437
23.7887
23.9363
24.0851
24.2332
24.3782
24.5174
24.6483
24.768
24.8736
24.9629
25.0337
25.0831
25.1033
25.1
25.075
25.0267
24.9554
24.862
24.7478
24.6147
24.4652
24.3021
24.1288
23.9489
23.7669
23.5869
23.4131
23.2481
23.0935
22.9488
22.813
22.6857
22.5675
22.4594
22.3627
22.278
22.2055
22.1452
22.0964
22.0572
22.0255
21.9998
21.979
21.9625
21.9498
21.9401
21.9329
21.9275
21.9236
21.9206
21.9185
21.9171
21.916
21.9153
21.9148
21.9145
21.9143
21.9141
21.9141
21.914
21.914
21.9139
21.9139
21.9139
21.9139
21.9139
21.9139
21.9139
21.9139
21.9139
21.9139
21.9139
21.9139
21.9139
21.9139
21.9139
21.9139
21.9139
21.9139
21.9139
21.9139
21.9139
21.9139
21.9139
21.9139
21.9139
21.9139
21.9139
21.9139
21.9139
21.9139
21.9139
21.9139
21.9139
21.9139
21.9139
21.9139
21.9139
21.9139
21.9139
21.9139
22.6059
22.7337
22.8824
23.0539
23.2498
23.472
23.7226
24.0051
24.3238
24.6827
25.0851
25.5327
26.0261
26.5644
27.1454
27.7652
28.4185
29.0989
29.7999
30.517
31.2518
32.0066
32.7802
33.5673
34.3591
35.1442
35.9096
36.6413
37.3254
37.9483
38.4968
38.9594
39.3276
39.5927
39.7112
39.7044
39.5971
39.3755
39.0387
38.59
38.0328
37.3725
36.618
35.7807
34.8734
33.9119
32.916
31.9102
30.9224
29.9796
29.0985
28.2769
27.501
26.7629
26.0651
25.4151
24.8214
24.2916
23.8323
23.4463
23.1302
22.8739
22.6651
22.4941
22.3547
22.2431
22.1563
22.0907
22.0418
22.0057
21.979
21.9594
21.9454
21.9354
21.9285
21.9236
21.9203
21.9181
21.9166
21.9156
21.915
21.9146
21.9143
21.9141
21.914
21.914
21.914
21.9139
21.9139
21.9139
21.9139
21.9139
21.9139
21.9139
21.9139
21.9139
21.9139
21.9139
21.9139
21.9139
21.9139
21.9139
21.9139
21.9139
21.9139
21.9139
21.9139
21.9139
21.9139
21.9139
21.9139
21.9139
21.9139
21.9139
21.9139
21.9139
21.9139
21.9139
21.9139
21.9139
21.9139
21.9139
21.9139
26.1688
26.9076
27.7479
28.6939
29.7476
30.9116
32.1933
33.6103
35.1818
36.9215
38.8348
40.918
43.1604
45.5451
48.0502
50.649
53.3119
56.0095
58.7156
61.4319
64.1853
66.9708
69.7605
72.52
75.2157
77.8161
80.2912
82.6119
84.7498
86.6759
88.3586
89.7698
90.8968
91.7089
92.0885
92.0871
91.7824
91.1409
90.1487
88.8059
87.1135
85.0779
82.7168
80.0525
77.1091
73.922
70.5471
67.0586
63.5297
60.0189
56.5889
53.2891
50.0919
46.9627
43.8999
40.9336
38.1092
35.4722
33.0716
30.9664
29.1965
27.7416
26.5405
25.5375
24.7015
24.0192
23.4803
23.0673
22.7555
22.5209
22.3451
22.2153
22.1218
22.0559
22.0099
21.9781
21.9564
21.9416
21.9318
21.9253
21.9211
21.9183
21.9166
21.9155
21.9149
21.9145
21.9142
21.9141
21.914
21.914
21.9139
21.9139
21.9139
21.9139
21.9139
21.9139
21.9139
21.9139
21.9139
21.9139
21.9139
21.9139
21.9139
21.9139
21.9139
21.9139
21.9139
21.9139
21.9139
21.9139
21.9139
21.9139
21.9139
21.9139
21.9139
21.9139
21.9139
21.9139
21.9139
21.9139
21.9139
21.9139
21.9139
21.9139
21.9139
43.2359
46.3465
49.7683
53.4897
57.4899
61.759
66.3216
71.2249
76.4705
82.0262
87.8532
93.92
100.201
106.671
113.297
120.037
126.841
133.663
140.471
147.258
154.764
163
171.81
180.999
190.364
199.711
208.854
217.627
225.878
233.47
240.262
246.112
250.986
254.84
257.327
258.369
257.885
256.321
253.632
249.743
244.567
238.05
230.272
221.341
211.323
200.33
188.545
176.177
163.486
150.953
139.502
129.878
121.053
112.316
103.541
94.8116
86.2311
77.9184
70.0595
62.8348
56.3542
50.6383
45.5923
41.1215
37.1787
33.7721
30.9452
28.7011
26.9609
25.617
24.5843
23.8056
23.2348
22.8255
22.5351
22.3307
22.1891
22.0932
22.0294
21.9876
21.9604
21.9429
21.9318
21.9248
21.9204
21.9177
21.9161
21.9152
21.9146
21.9143
21.9141
21.914
21.914
21.9139
21.9139
21.9139
21.9139
21.9139
21.9139
21.9139
21.9139
21.9139
21.9139
21.9139
21.9139
21.9139
21.9139
21.9139
21.9139
21.9139
21.9139
21.9139
21.9139
21.9139
21.9139
21.9139
21.9139
21.9139
21.9139
21.9139
21.9139
21.9139
21.9139
21.9139
21.9139
98.96
107.24
115.962
125.119
134.707
144.716
155.322
167.58
181.745
197.827
215.701
235.161
255.958
277.865
300.662
324.071
347.803
371.599
395.258
418.628
440.786
461.548
480.891
498.83
515.37
530.5
544.185
556.407
567.152
576.396
584.133
590.236
594.965
598.347
600.017
600.212
599.726
597.433
593.677
589.094
583.224
575.777
566.974
556.768
544.758
530.863
515.107
497.45
477.726
455.627
430.862
403.062
373.118
342.029
310.44
278.62
247.073
216.491
187.435
160.753
138.468
121.321
107.001
94.1022
82.2062
71.4125
61.9086
53.7786
46.9101
41.1296
36.3195
32.4417
29.4581
27.2415
25.6197
24.4457
23.6126
23.036
22.6446
22.3826
22.21
22.0983
22.0274
21.9831
21.9556
21.9387
21.9284
21.9223
21.9187
21.9166
21.9154
21.9147
21.9143
21.9141
21.914
21.914
21.9139
21.9139
21.9139
21.9139
21.9139
21.9139
21.9139
21.9139
21.9139
21.9139
21.9139
21.9139
21.9139
21.9139
21.9139
21.9139
21.9139
21.9139
21.9139
21.9139
21.9139
21.9139
21.9139
21.9139
21.9139
21.9139
21.9139
21.9139
21.9139
213.649
236.021
260.907
288.108
317.398
348.503
381.077
414.627
447.773
480.038
511.27
541.342
570.079
597.268
622.744
646.37
667.779
686.832
703.716
718.815
732.489
744.901
756.038
765.993
774.817
782.591
789.342
795.012
799.796
803.737
806.772
808.947
810.31
810.782
810.313
809.09
807.401
805.457
803.327
801.406
798.254
793.378
787.775
782.308
776.605
769.833
761.87
752.469
742.116
730.57
716.92
700.875
683.058
663.583
642.137
618.125
591.429
562.592
531.848
498.469
461.644
419.935
372.977
323.94
276.006
231.023
190.214
155.452
129.206
109.265
92.7613
78.4828
66.1973
55.9351
47.5469
40.7626
35.3762
31.2654
28.2696
26.1553
24.6932
23.7029
23.0466
22.6194
22.3459
22.1741
22.0685
22.0047
21.9666
21.9441
21.931
21.9234
21.9191
21.9167
21.9154
21.9147
21.9143
21.9141
21.914
21.9139
21.9139
21.9139
21.9139
21.9139
21.9139
21.9139
21.9139
21.9139
21.9139
21.9139
21.9139
21.9139
21.9139
21.9139
21.9139
21.9139
21.9139
21.9139
21.9139
21.9139
21.9139
21.9139
21.9139
21.9139
21.9139
21.9139
524.618
560.962
595.992
629.373
660.832
689.996
716.265
739.678
760.46
779.107
795.957
810.937
824.349
836.711
847.551
856.741
864.191
869.715
873.222
875.123
876.043
876.303
875.847
874.978
873.765
872.304
870.378
868.097
865.755
863.389
860.869
858.278
855.78
853.228
850.386
847.459
844.665
841.873
839.037
836.233
832.429
828.837
824.894
819.476
814.639
811.023
805.736
798.804
792.828
788.084
784.425
779.042
772.706
767.986
764.033
756.409
748.967
742.479
733.072
720.12
702.79
679.843
650.748
616.341
578
535.809
490.664
441.914
386.987
327.662
268.799
214.561
168.482
134.207
109.563
90.3745
74.5796
61.5416
51.0183
42.693
36.2784
31.5453
28.2127
25.9451
24.4411
23.4681
22.8525
22.4705
22.2381
22.0997
22.019
21.9726
21.9463
21.9315
21.9233
21.9188
21.9164
21.9152
21.9145
21.9142
21.9141
21.914
21.9139
21.9139
21.9139
21.9139
21.9139
21.9139
21.9139
21.9139
21.9139
21.9139
21.9139
21.9139
21.9139
21.9139
21.9139
21.9139
21.9139
21.9139
21.9139
21.9139
21.9139
21.9139
21.9139
21.9139
21.9139
21.9139
813.504
831.989
848.467
863.349
876.42
887.637
896.245
901.875
905.469
907.914
908.972
908.719
908.564
908.641
908.01
906.667
906.658
907.501
908.937
909.978
910.298
909.804
908.777
907.138
905.138
902.852
900.062
896.876
893.567
890.23
886.698
882.985
879.351
875.82
872.021
868.149
864.516
860.994
857.281
853.374
849.677
846.979
844.013
838.832
834.316
831.52
826.826
820.532
815.354
811.341
808.791
804.163
798.724
794.756
791.533
784.486
778.04
772.527
764.429
755.105
746.832
739.626
734.155
730.141
722.342
710.852
696.686
676.739
647.679
608.621
562.396
511.009
454.13
390.41
322.281
255.781
196.635
150.33
118.065
94.6026
76.3332
61.7824
50.318
41.4654
34.8786
30.2317
27.1083
25.0816
23.8044
23.0195
22.5476
22.27
22.1105
22.0209
21.9714
21.9443
21.9297
21.922
21.918
21.9159
21.9149
21.9144
21.9141
21.914
21.9139
21.9139
21.9139
21.9139
21.9139
21.9139
21.9139
21.9139
21.9139
21.9139
21.9139
21.9139
21.9139
21.9139
21.9139
21.9139
21.9139
21.9139
21.9139
21.9139
21.9139
21.9139
21.9139
21.9139
933.242
934.675
935.372
935.684
935.449
935.308
936.502
938.657
941.176
942.853
942.987
941.803
940.649
939.485
937.119
933.907
931.147
929.016
927.476
925.767
923.788
921.623
918.876
915.615
912.254
908.661
904.642
900.255
895.873
891.665
887.2
882.102
877.446
873.211
868.552
863.727
859.497
855.477
851.083
846.663
842.758
839.686
837.19
832.965
828.476
825.009
821.262
816.848
812.493
808.586
806.266
804.029
800.803
798.045
795.746
792.045
787.777
783.493
778.256
772.682
767.423
762.51
759.308
756.846
750.067
739.472
728.342
719.327
712.271
708.488
702.166
690.077
669.888
638.552
594.729
542.168
483.712
416.887
341.897
266.543
199.747
149.053
114.6
90.0515
71.3583
56.8638
45.7503
37.507
31.7208
27.8834
25.448
23.9556
23.0671
22.551
22.2585
22.0968
22.0095
21.9632
21.9389
21.9263
21.9199
21.9168
21.9153
21.9145
21.9142
21.914
21.914
21.9139
21.9139
21.9139
21.9139
21.9139
21.9139
21.9139
21.9139
21.9139
21.9139
21.9139
21.9139
21.9139
21.9139
21.9139
21.9139
21.9139
21.9139
21.9139
21.9139
21.9139
968.135
968.436
968.132
967.208
965.092
962.393
960.12
958.473
957.636
956.439
954.183
951.245
948.084
944.829
941.123
936.877
932.262
927.906
923.992
920.345
916.886
913.695
910.353
906.852
903.468
899.895
895.851
891.496
887.384
883.324
878.79
873.533
868.993
864.715
859.942
854.918
850.404
846.205
841.738
837.137
832.893
829.318
826.389
822.714
818.156
813.953
810.093
806.247
802.245
798.227
794.975
792.304
789.408
786.458
783.498
780.165
776.295
772.116
768.227
765.133
762.683
760.938
760.739
760.726
757.21
751.327
745.039
739.597
735.942
734.481
729.573
718.032
705.424
696.319
691.597
685.417
671.849
645.097
601.292
544.986
481.098
407.484
325.732
245.704
178.698
131.97
100.635
78.1007
61.1118
48.2576
38.8195
32.2879
28.0456
25.4261
23.8717
22.9783
22.4787
22.2069
22.0631
21.9886
21.9507
21.9317
21.9223
21.9178
21.9157
21.9147
21.9142
21.914
21.914
21.9139
21.9139
21.9139
21.9139
21.9139
21.9139
21.9139
21.9139
21.9139
21.9139
21.9139
21.9139
21.9139
21.9139
21.9139
21.9139
21.9139
21.9139
21.9139
21.9139
978.662
975.824
972.727
969.163
965.197
960.923
956.992
953.734
950.848
947.935
944.974
941.928
938.627
935.045
931.154
926.948
922.57
918.159
913.794
909.572
905.53
901.515
897.585
893.821
889.967
885.785
881.481
877.477
873.431
868.908
863.804
859.235
854.912
850.211
845.311
840.665
836.29
831.895
827.377
822.985
818.954
815.317
811.568
807.285
802.938
798.844
794.952
791.034
787.018
783.226
779.851
776.658
773.423
770.082
766.617
762.972
759.326
756.159
753.751
751.991
750.882
750.359
749.318
746.776
743.171
739.451
736.975
737.164
739.252
737.484
731.346
724.592
719.042
716.919
712.14
700.989
690.354
684.213
677.459
663.012
632.824
583.87
522.398
449.761
364.994
276.763
198.984
142.916
106.263
80.9295
62.3262
48.483
38.5085
31.7825
27.5464
25.0202
23.577
22.7802
22.3536
22.132
22.02
21.9646
21.9376
21.9248
21.9188
21.916
21.9148
21.9143
21.914
21.914
21.9139
21.9139
21.9139
21.9139
21.9139
21.9139
21.9139
21.9139
21.9139
21.9139
21.9139
21.9139
21.9139
21.9139
21.9139
21.9139
21.9139
21.9139
972.709
969.813
966.775
963.508
959.979
956.159
952.249
948.437
944.798
941.352
938.076
934.838
931.484
927.958
924.241
920.353
916.239
911.919
907.462
902.969
898.483
894.007
889.617
885.333
881.016
876.57
872.142
867.9
863.634
859.053
854.13
849.406
844.908
840.245
835.475
830.808
826.302
821.871
817.424
813.01
808.737
804.637
800.583
796.395
792.136
787.964
783.942
779.974
775.941
771.924
768.119
764.601
761.23
757.866
754.495
751.188
748.103
745.452
743.332
741.711
740.473
739.27
737.608
735.334
732.677
730.217
728.863
729.157
729.832
728.725
726.108
723.298
722.32
724.096
723.013
717.453
711.43
708.585
703.49
693.369
684.573
678.507
668.077
645.57
602.804
543.809
470.982
383.39
289.304
205.134
144.635
105.741
79.3755
60.3269
46.3993
36.6581
30.3426
26.5283
24.3501
23.1598
22.5325
22.213
22.0553
21.9794
21.9436
21.927
21.9196
21.9163
21.9148
21.9143
21.914
21.9139
21.9139
21.9139
21.9139
21.9139
21.9139
21.9139
21.9139
21.9139
21.9139
21.9139
21.9139
21.9139
21.9139
21.9139
21.9139
21.9139
963.422
960.378
957.264
954.023
950.601
946.997
943.257
939.473
935.75
932.126
928.552
924.955
921.299
917.53
913.669
909.652
905.438
901.044
896.518
891.894
887.21
882.527
877.86
873.164
868.436
863.758
859.167
854.563
849.821
844.936
840.069
835.311
830.556
825.8
821.116
816.526
812.005
807.521
803.076
798.692
794.379
790.118
785.884
781.677
777.529
773.468
769.461
765.413
761.352
757.468
753.891
750.556
747.348
744.243
741.306
738.633
736.293
734.297
732.602
731.066
729.446
727.568
725.46
723.347
721.621
720.675
720.44
720.178
719.347
718.078
717.018
717.133
718.035
717.688
715.983
714.671
715.666
715.384
711.346
707.463
703.773
694.685
685.899
680.284
671.039
650.462
609.513
550.746
474.934
381.993
282.634
196.341
136.946
99.3032
73.8087
55.5063
42.4424
33.714
28.3461
25.2686
23.5992
22.7328
22.3001
22.0914
21.9936
21.9488
21.9287
21.92
21.9163
21.9148
21.9142
21.914
21.9139
21.9139
21.9139
21.9139
21.9139
21.9139
21.9139
21.9139
21.9139
21.9139
21.9139
21.9139
21.9139
21.9139
21.9139
954.858
951.708
948.512
945.213
941.763
938.147
934.401
930.592
926.763
922.922
919.061
915.174
911.215
907.209
903.104
898.859
894.465
889.931
885.272
880.515
875.697
870.832
865.919
860.989
856.085
851.201
846.304
841.383
836.424
831.414
826.425
821.518
816.694
811.955
807.29
802.678
798.113
793.601
789.149
784.747
780.395
776.113
771.924
767.828
763.807
759.822
755.797
751.793
748.037
744.601
741.404
738.38
735.523
732.863
730.436
728.25
726.282
724.478
722.74
720.957
719.088
717.215
715.524
714.233
713.429
712.929
712.425
711.8
711.18
710.882
711.057
711.274
711.139
710.927
711.422
712.662
713.1
712.694
713.363
713.882
711.112
708.189
705.342
696.814
688.648
683.81
673.986
651.077
607.706
545.172
462.127
360.951
257.92
175.277
122.138
88.4334
65.2664
48.7428
37.4454
30.3626
26.2756
24.0689
22.9386
22.3847
22.1237
22.0047
21.952
21.9293
21.9199
21.9161
21.9147
21.9141
21.914
21.9139
21.9139
21.9139
21.9139
21.9139
21.9139
21.9139
21.9139
21.9139
21.9139
21.9139
21.9139
21.9139
21.9139
21.9139
949.94
946.689
943.411
940.068
936.617
933.031
929.309
925.473
921.547
917.551
913.501
909.4
905.245
901.045
896.768
892.396
887.916
883.324
878.621
873.817
868.931
863.971
858.953