/*--------------------------------*- C++ -*----------------------------------*\
| =========                 |                                                 |
| \\      /  F ield         | OpenFOAM: The Open Source CFD Toolbox           |
|  \\    /   O peration     | Version:  v1706                                 |
|   \\  /    A nd           | Web:      www.OpenFOAM.com                      |
|    \\/     M anipulation  |                                                 |
\*---------------------------------------------------------------------------*/
FoamFile
{
    version     2.0;
    format      ascii;
    class       volScalarField;
    location    "1e-05";
    object      Tov;
}
// * * * * * * * * * * * * * * * * * * * * * * * * * * * * * * * * * * * * * //

dimensions      [0 0 0 1 0 0 0];


internalField   nonuniform List<scalar> 
29871
(
144.4
144.4
144.4
144.4
144.4
144.4
144.4
144.4
144.4
144.4
144.4
144.4
144.4
144.4
144.4
144.4
144.4
144.4
144.4
144.4
144.4
144.4
144.4
144.4
144.4
144.4
144.4
144.4
144.4
144.4
144.4
144.4
144.4
144.4
144.4
144.4
144.4
144.4
144.4
144.4
144.4
144.4
144.4
144.4
144.4
144.4
144.4
144.4
144.4
144.4
144.4
144.4
144.4
144.4
144.4
144.4
144.4
144.4
144.4
144.4
144.4
144.4
144.4
144.4
144.4
144.4
144.4
144.4
144.4
144.4
144.4
144.4
144.4
144.4
144.4
144.4
144.4
144.4
144.4
144.4
144.4
144.4
144.4
144.4
144.4
144.4
144.4
144.4
144.4
144.4
144.4
144.4
144.4
144.4
144.4
144.4
144.4
144.4
144.4
144.4
144.4
144.4
144.4
144.4
144.4
144.4
144.4
144.4
144.4
144.4
144.4
144.4
144.4
144.4
144.4
144.4
144.4
144.4
144.4
144.4
144.4
144.4
144.4
144.4
144.4
144.4
144.4
144.4
144.4
144.4
144.4
144.4
144.4
144.4
144.4
144.4
144.4
144.4
144.4
144.4
144.4
144.4
144.4
144.4
144.4
144.4
144.4
144.4
144.4
144.4
144.4
144.4
144.4
144.4
144.4
144.4
144.4
144.4
144.4
144.4
144.4
144.4
144.4
144.4
144.4
144.4
144.4
144.4
144.4
144.4
144.4
144.4
144.4
144.4
144.4
144.4
144.4
144.4
144.4
144.4
144.4
144.4
144.4
144.4
144.4
144.4
144.4
144.4
144.4
144.4
144.4
144.4
144.4
144.4
144.4
144.4
144.4
144.4
144.4
144.4
144.4
144.4
144.4
144.4
144.4
144.4
144.4
144.4
144.4
144.4
144.4
144.4
144.4
144.4
144.4
144.4
144.4
144.4
144.4
144.4
144.4
144.4
144.4
144.4
144.4
144.4
144.4
144.4
144.4
144.4
144.4
144.4
144.4
144.4
144.4
144.4
144.4
144.4
144.4
144.4
144.4
144.4
144.4
144.4
144.4
144.4
144.4
144.4
144.4
144.4
144.4
144.4
144.4
144.4
144.4
144.4
144.4
144.4
144.4
144.4
144.4
144.4
144.4
144.4
144.4
144.4
144.4
144.4
144.4
144.4
144.4
144.4
144.4
144.4
144.4
144.4
144.4
144.4
144.4
144.4
144.4
144.4
144.4
144.4
144.4
144.4
144.4
144.4
144.4
144.4
144.4
144.4
144.4
144.4
144.4
144.4
144.4
144.4
144.4
144.4
144.4
144.4
144.4
144.4
144.4
144.4
144.4
144.4
144.4
144.4
144.4
144.4
144.4
144.4
144.4
144.4
144.4
144.4
144.4
144.4
144.4
144.4
144.4
144.4
144.4
144.4
144.4
144.4
144.4
144.4
144.4
144.4
144.4
144.4
144.4
144.4
144.4
144.4
144.4
144.4
144.4
144.4
144.4
144.4
144.4
144.4
144.4
144.4
144.4
144.4
144.4
144.4
144.4
144.4
144.4
144.4
144.4
144.4
144.4
144.4
144.4
144.4
144.4
144.4
144.4
144.4
144.4
144.4
144.4
144.4
144.4
144.4
144.4
144.4
144.4
144.4
144.4
144.4
144.4
144.4
144.4
144.4
144.4
144.4
144.4
144.4
144.4
144.4
144.4
144.4
144.4
144.4
144.4
144.4
144.4
144.4
144.4
144.4
144.4
144.4
144.4
144.4
144.4
144.4
144.4
144.4
144.4
144.4
144.4
144.4
144.4
144.4
144.4
144.4
144.4
144.4
144.4
144.4
144.4
144.4
144.4
144.4
144.4
144.4
144.4
144.4
144.4
144.4
144.4
144.4
144.4
144.4
144.4
144.4
144.4
144.4
144.4
144.4
144.4
144.4
144.4
144.4
144.4
144.4
144.4
144.4
144.4
144.4
144.4
144.4
144.4
144.4
144.4
144.4
144.4
144.4
144.4
144.4
144.4
144.4
144.4
144.4
144.4
144.4
144.4
144.4
144.4
144.4
144.4
144.4
144.4
144.4
144.4
144.4
144.4
144.4
144.4
144.4
144.4
144.4
144.4
144.4
144.4
144.4
144.4
144.4
144.4
144.4
144.4
144.4
144.4
144.4
144.4
144.4
144.4
144.4
144.4
144.4
144.4
144.4
144.4
144.4
144.4
144.4
144.4
144.4
144.4
144.4
144.4
144.4
144.4
144.4
144.4
144.4
144.4
144.4
144.4
144.4
144.4
144.4
144.4
144.4
144.4
144.4
144.4
144.4
144.4
144.4
144.4
144.4
144.4
144.4
144.4
144.4
144.4
144.4
144.4
144.4
144.4
144.4
144.4
144.4
144.4
144.4
144.4
144.4
144.4
144.4
144.4
144.4
144.4
144.4
144.4
144.4
144.4
144.4
144.4
144.4
144.4
144.4
144.4
144.4
144.4
144.4
144.4
144.4
144.4
144.4
144.4
144.4
144.4
144.4
144.4
144.4
144.4
144.4
144.4
144.4
144.4
144.4
144.4
144.4
144.4
144.4
144.4
144.4
144.4
144.4
144.4
144.4
144.4
144.4
144.4
144.4
144.4
144.4
144.4
144.4
144.4
144.4
144.4
144.4
144.4
144.4
144.4
144.4
144.4
144.4
144.4
144.4
144.4
144.4
144.4
144.4
144.4
144.4
144.4
144.4
144.4
144.4
144.4
144.4
144.4
144.4
144.4
144.4
144.4
144.4
144.4
144.4
144.4
144.4
144.4
144.4
144.4
144.4
144.4
144.4
144.4
144.4
144.4
144.4
144.4
144.4
144.4
144.4
144.4
144.4
144.4
144.4
144.4
144.4
144.4
144.4
144.4
144.4
144.4
144.4
144.4
144.4
144.4
144.4
144.4
144.4
144.4
144.4
144.4
144.4
144.4
144.4
144.4
144.4
144.4
144.4
144.4
144.4
144.4
144.4
144.4
144.4
144.4
144.4
144.4
144.4
144.4
144.4
144.4
144.4
144.4
144.4
144.4
144.4
144.4
144.4
144.4
144.4
144.4
144.4
144.4
144.4
144.4
144.4
144.4
144.4
144.4
144.4
144.4
144.4
144.4
144.4
144.4
144.4
144.4
144.4
144.4
144.4
144.4
144.4
144.4
144.4
144.4
144.4
144.4
144.4
144.4
144.4
144.4
144.4
144.4
144.4
144.4
144.4
144.4
144.4
144.4
144.4
144.4
144.4
144.4
144.4
144.4
144.4
144.4
144.4
144.4
144.4
144.4
144.4
144.4
144.4
144.4
144.4
144.4
144.4
144.4
144.4
144.4
144.4
144.4
144.4
144.4
144.4
144.4
144.4
144.4
144.4
144.4
144.4
144.4
144.4
144.4
144.4
144.4
144.4
144.4
144.4
144.4
144.4
144.4
144.4
144.4
144.4
144.4
144.4
144.4
144.4
144.4
144.4
144.4
144.4
144.4
144.4
144.4
144.4
144.4
144.4
144.4
144.4
144.4
144.4
144.4
144.4
144.4
144.4
144.4
144.4
144.4
144.4
144.4
144.4
144.4
144.4
144.4
144.4
144.4
144.4
144.4
144.4
144.4
144.4
144.4
144.4
144.4
144.4
144.4
144.4
144.4
144.4
144.4
144.4
144.4
144.4
144.4
144.4
144.4
144.4
144.4
144.4
144.4
144.4
144.4
144.4
144.4
144.4
144.4
144.4
144.4
144.4
144.4
144.4
144.4
144.4
144.4
144.4
144.4
144.4
144.4
144.4
144.4
144.4
144.4
144.4
144.4
144.4
144.4
144.4
144.4
144.4
144.4
144.4
144.4
144.4
144.4
144.4
144.4
144.4
144.4
144.4
144.4
144.4
144.4
144.4
144.4
144.4
144.4
144.4
144.4
144.4
144.4
144.4
144.4
144.4
144.4
144.4
144.4
144.4
144.4
144.4
144.4
144.4
144.4
144.4
144.4
144.4
144.4
144.4
144.4
144.4
144.4
144.4
144.4
144.4
144.4
144.4
144.4
144.4
144.4
144.4
144.4
144.4
144.4
144.4
144.4
144.4
144.4
144.4
144.4
144.4
144.4
144.4
144.4
144.4
144.4
144.4
144.4
144.4
144.4
144.4
144.4
144.4
144.4
144.4
144.4
144.4
144.4
144.4
144.4
144.4
144.4
144.4
144.4
144.4
144.4
144.4
144.4
144.4
144.4
144.4
144.4
144.4
144.4
144.4
144.4
144.4
144.4
144.4
144.4
144.4
144.4
144.4
144.4
144.4
144.4
144.4
144.4
144.4
144.4
144.4
144.4
144.4
144.4
144.4
144.4
144.4
144.4
144.4
144.4
144.4
144.4
144.4
144.4
144.4
144.4
144.4
144.4
144.4
144.4
144.4
144.4
144.4
144.4
144.4
144.4
144.4
144.4
144.4
144.4
144.4
144.4
144.4
144.4
144.4
144.4
144.4
144.4
144.4
144.4
144.4
144.4
144.4
144.4
144.4
144.4
144.4
144.4
144.4
144.4
144.4
144.4
144.4
144.4
144.4
144.4
144.4
144.4
144.4
144.4
144.4
144.4
144.4
144.4
144.4
144.4
144.4
144.4
144.4
144.4
144.4
144.4
144.4
144.4
144.4
144.4
144.4
144.4
144.4
144.4
144.4
144.4
144.4
144.4
144.4
144.4
144.4
144.4
144.4
144.4
144.4
144.4
144.4
144.4
144.4
144.4
144.4
144.4
144.4
144.4
144.4
144.4
144.4
144.4
144.4
144.4
144.4
144.4
144.4
144.4
144.4
144.4
144.4
144.4
144.4
144.4
144.4
144.4
144.4
144.4
144.4
144.4
144.4
144.4
144.4
144.4
144.4
144.4
144.4
144.4
144.4
144.4
144.4
144.4
144.4
144.4
144.4
144.4
144.4
144.4
144.4
144.4
144.4
144.4
144.4
144.4
144.4
144.4
144.4
144.4
144.4
144.4
144.4
144.4
144.4
144.4
144.4
144.4
144.4
144.4
144.4
144.4
144.4
144.4
144.4
144.4
144.4
144.4
144.4
144.4
144.4
144.4
144.4
144.4
144.4
144.4
144.4
144.4
144.4
144.4
144.4
144.4
144.4
144.4
144.4
144.4
144.4
144.4
144.4
144.4
144.4
144.4
144.4
144.4
144.4
144.4
144.4
144.4
144.4
144.4
144.4
144.4
144.4
144.4
144.4
144.4
144.4
144.4
144.4
144.4
144.4
144.4
144.4
144.4
144.4
144.4
144.4
144.4
144.4
144.4
144.4
144.4
144.4
144.4
144.4
144.4
144.4
144.4
144.4
144.4
144.4
144.4
144.4
144.4
144.4
144.4
144.4
144.4
144.4
144.4
144.4
144.4
144.4
144.4
144.4
144.4
144.4
144.4
144.4
144.4
144.4
144.4
144.4
144.4
144.4
144.4
144.4
144.4
144.4
144.4
144.4
144.4
144.4
144.4
144.4
144.4
144.4
144.4
144.4
144.4
144.4
144.4
144.4
144.4
144.4
144.4
144.4
144.4
144.4
144.4
144.4
144.4
144.4
144.4
144.4
144.4
144.4
144.4
144.4
144.4
144.4
144.4
144.4
144.4
144.4
144.4
144.4
144.4
144.4
144.4
144.4
144.4
144.4
144.4
144.4
144.4
144.4
144.4
144.4
144.4
144.4
144.4
144.4
144.4
144.4
144.4
144.4
144.4
144.4
144.4
144.4
144.4
144.4
144.4
144.4
144.4
144.4
144.4
144.4
144.4
144.4
144.401
144.401
144.401
144.401
144.401
144.401
144.401
144.401
144.401
144.401
144.401
144.401
144.401
144.401
144.401
144.401
144.401
144.401
144.401
144.401
144.401
144.401
144.401
144.401
144.401
144.401
144.401
144.401
144.4
144.4
144.4
144.4
144.4
144.4
144.4
144.4
144.4
144.4
144.4
144.4
144.4
144.4
144.4
144.4
144.4
144.4
144.4
144.4
144.4
144.4
144.4
144.4
144.4
144.4
144.4
144.4
144.4
144.4
144.4
144.4
144.4
144.4
144.4
144.4
144.4
144.4
144.4
144.4
144.4
144.4
144.4
144.4
144.4
144.4
144.4
144.4
144.4
144.4
144.4
144.4
144.4
144.4
144.4
144.4
144.4
144.4
144.4
144.4
144.4
144.4
144.4
144.4
144.4
144.4
144.4
144.4
144.4
144.4
144.4
144.4
144.4
144.4
144.401
144.401
144.401
144.402
144.402
144.402
144.402
144.403
144.403
144.403
144.404
144.404
144.404
144.405
144.405
144.405
144.406
144.406
144.407
144.407
144.407
144.407
144.408
144.408
144.408
144.408
144.408
144.408
144.408
144.407
144.407
144.407
144.406
144.406
144.406
144.405
144.405
144.404
144.404
144.404
144.403
144.403
144.402
144.402
144.402
144.401
144.401
144.401
144.401
144.401
144.401
144.4
144.4
144.4
144.4
144.4
144.4
144.4
144.4
144.4
144.4
144.4
144.4
144.4
144.4
144.4
144.4
144.4
144.4
144.4
144.4
144.4
144.4
144.4
144.4
144.4
144.4
144.4
144.4
144.4
144.4
144.4
144.4
144.4
144.4
144.4
144.4
144.4
144.4
144.4
144.4
144.4
144.4
144.4
144.4
144.4
144.4
144.4
144.4
144.4
144.4
144.4
144.4
144.4
144.4
144.4
144.4
144.4
144.4
144.4
144.4
144.4
144.4
144.406
144.407
144.408
144.409
144.41
144.412
144.414
144.415
144.417
144.419
144.422
144.424
144.427
144.429
144.432
144.435
144.437
144.44
144.443
144.445
144.448
144.45
144.452
144.454
144.455
144.457
144.457
144.458
144.457
144.457
144.456
144.454
144.452
144.45
144.448
144.445
144.442
144.439
144.436
144.432
144.429
144.426
144.423
144.42
144.418
144.415
144.413
144.411
144.409
144.407
144.406
144.405
144.404
144.403
144.402
144.402
144.401
144.401
144.401
144.401
144.4
144.4
144.4
144.4
144.4
144.4
144.4
144.4
144.4
144.4
144.4
144.4
144.4
144.4
144.4
144.4
144.4
144.4
144.4
144.4
144.4
144.4
144.4
144.4
144.4
144.4
144.4
144.4
144.4
144.4
144.4
144.4
144.4
144.4
144.4
144.4
144.4
144.4
144.4
144.4
144.4
144.4
144.4
144.4
144.4
144.4
144.4
144.4
144.4
144.4
144.4
144.4
144.4
144.4
144.4
144.442
144.449
144.457
144.465
144.474
144.485
144.497
144.51
144.524
144.539
144.555
144.573
144.591
144.609
144.628
144.648
144.667
144.687
144.706
144.725
144.743
144.76
144.776
144.789
144.801
144.809
144.815
144.817
144.816
144.812
144.805
144.795
144.781
144.765
144.747
144.727
144.705
144.682
144.659
144.635
144.612
144.59
144.569
144.548
144.529
144.512
144.495
144.48
144.466
144.454
144.444
144.435
144.428
144.422
144.417
144.413
144.41
144.408
144.406
144.404
144.403
144.402
144.402
144.401
144.401
144.401
144.4
144.4
144.4
144.4
144.4
144.4
144.4
144.4
144.4
144.4
144.4
144.4
144.4
144.4
144.4
144.4
144.4
144.4
144.4
144.4
144.4
144.4
144.4
144.4
144.4
144.4
144.4
144.4
144.4
144.4
144.4
144.4
144.4
144.4
144.4
144.4
144.4
144.4
144.4
144.4
144.4
144.4
144.4
144.4
144.4
144.4
144.4
144.4
144.4
144.4
144.495
144.513
144.533
144.557
144.585
144.617
144.653
144.694
144.74
144.793
144.852
144.918
144.992
145.074
145.165
145.263
145.369
145.482
145.601
145.725
145.854
145.986
146.12
146.257
146.395
146.532
146.667
146.796
146.918
147.03
147.129
147.212
147.277
147.322
147.339
147.335
147.308
147.259
147.188
147.097
146.986
146.858
146.715
146.561
146.399
146.231
146.063
145.898
145.74
145.59
145.449
145.316
145.192
145.077
144.97
144.874
144.788
144.714
144.652
144.6
144.558
144.524
144.496
144.474
144.456
144.442
144.431
144.422
144.416
144.411
144.408
144.406
144.404
144.403
144.402
144.401
144.401
144.401
144.4
144.4
144.4
144.4
144.4
144.4
144.4
144.4
144.4
144.4
144.4
144.4
144.4
144.4
144.4
144.4
144.4
144.4
144.4
144.4
144.4
144.4
144.4
144.4
144.4
144.4
144.4
144.4
144.4
144.4
144.4
144.4
144.4
144.4
144.4
144.4
144.4
144.4
144.4
144.4
144.4
144.4
144.4
144.4
144.4
145.045
145.166
145.306
145.469
145.656
145.869
146.112
146.386
146.697
147.05
147.448
147.895
148.395
148.948
149.553
150.209
150.912
151.656
152.434
153.241
154.072
154.927
155.804
156.697
157.599
158.496
159.375
160.22
161.014
161.74
162.38
162.92
163.347
163.645
163.763
163.741
163.587
163.292
162.857
162.288
161.594
160.785
159.875
158.883
157.828
156.731
155.62
154.521
153.459
152.455
151.517
150.642
149.821
149.051
148.337
147.684
147.1
146.588
146.152
145.791
145.497
145.261
145.07
144.915
144.79
144.69
144.614
144.556
144.513
144.481
144.457
144.44
144.427
144.419
144.413
144.408
144.405
144.404
144.402
144.401
144.401
144.401
144.4
144.4
144.4
144.4
144.4
144.4
144.4
144.4
144.4
144.4
144.4
144.4
144.4
144.4
144.4
144.4
144.4
144.4
144.4
144.4
144.4
144.4
144.4
144.4
144.4
144.4
144.4
144.4
144.4
144.4
144.4
144.4
144.4
144.4
144.4
144.4
144.4
144.4
144.4
144.4
144.4
148.65
149.434
150.344
151.391
152.585
153.937
155.459
157.173
159.104
161.277
163.712
166.418
169.397
172.64
176.13
179.838
183.73
187.763
191.893
196.096
200.379
204.754
209.208
213.706
218.194
222.607
226.873
230.919
234.671
238.061
241.024
243.5
245.452
246.833
247.4
247.303
246.669
245.408
243.518
241.015
237.913
234.238
230.033
225.354
220.266
214.851
209.217
203.499
197.844
192.4
187.269
182.453
177.885
173.52
169.373
165.493
161.935
158.747
155.972
153.632
151.716
150.166
148.907
147.879
147.041
146.372
145.852
145.459
145.166
144.949
144.788
144.671
144.587
144.527
144.486
144.457
144.438
144.424
144.416
144.41
144.406
144.404
144.402
144.401
144.401
144.401
144.4
144.4
144.4
144.4
144.4
144.4
144.4
144.4
144.4
144.4
144.4
144.4
144.4
144.4
144.4
144.4
144.4
144.4
144.4
144.4
144.4
144.4
144.4
144.4
144.4
144.4
144.4
144.4
144.4
144.4
144.4
144.4
144.4
144.4
144.4
144.4
144.4
170.326
174.773
179.813
185.462
191.721
198.588
206.095
214.323
223.353
233.222
243.918
255.381
267.515
280.196
293.282
306.611
320.018
333.346
346.472
359.406
372.356
385.352
398.284
410.988
423.289
435.023
446.039
456.206
465.406
473.538
480.505
486.221
490.668
493.786
495.061
494.781
493.311
490.445
486.145
480.407
473.193
464.476
454.273
442.623
429.562
415.164
399.592
383.101
366.032
348.805
331.924
315.677
299.773
283.915
268.076
252.437
237.268
222.868
209.567
197.728
187.608
179.156
172.09
166.139
161.147
157.052
153.806
151.316
149.438
148.029
146.976
146.2
145.642
145.248
144.973
144.783
144.652
144.564
144.505
144.467
144.442
144.426
144.416
144.41
144.406
144.403
144.402
144.401
144.401
144.4
144.4
144.4
144.4
144.4
144.4
144.4
144.4
144.4
144.4
144.4
144.4
144.4
144.4
144.4
144.4
144.4
144.4
144.4
144.4
144.4
144.4
144.4
144.4
144.4
144.4
144.4
144.4
144.4
144.4
144.4
144.4
144.4
144.4
144.4
144.4
268.78
285.518
303.501
322.568
342.529
363.25
384.783
407.38
431.052
455.609
480.767
506.217
531.656
556.807
581.413
605.229
628.047
649.722
670.208
689.758
709.844
730.078
749.937
769.002
786.96
803.588
818.724
832.269
844.165
854.379
862.886
869.619
874.704
878.236
879.542
879
877.053
873.426
868.218
861.384
852.74
842.088
829.35
814.454
797.222
777.493
755.201
730.374
703.166
674.097
644.539
616.603
588.926
560.022
529.403
497.139
463.544
429.079
394.473
360.823
329.511
301.301
275.854
252.691
231.692
213.11
197.352
184.576
174.475
166.555
160.403
155.735
152.305
149.847
148.106
146.885
146.041
145.469
145.089
144.839
144.676
144.572
144.505
144.464
144.438
144.423
144.413
144.408
144.404
144.402
144.401
144.401
144.4
144.4
144.4
144.4
144.4
144.4
144.4
144.4
144.4
144.4
144.4
144.4
144.4
144.4
144.4
144.4
144.4
144.4
144.4
144.4
144.4
144.4
144.4
144.4
144.4
144.4
144.4
144.4
144.4
144.4
144.4
144.4
144.4
529.25
561.946
594.761
627.335
659.343
690.62
721.558
753.767
786.725
819.678
851.936
882.93
912.216
939.509
964.633
987.457
1007.95
1026.18
1042.34
1056.59
1068.93
1079.61
1088.85
1096.81
1103.61
1109.34
1114.05
1117.83
1120.75
1122.84
1124.2
1124.54
1124.24
1123.4
1121.81
1119.59
1117.03
1113.69
1109.57
1105.11
1100.12
1094.38
1087.87
1080.56
1072.26
1062.81
1052.14
1040.19
1026.79
1011.52
993.984
973.77
950.671
924.431
894.697
860.948
822.896
780.455
733.533
682.733
631.224
583.087
536.641
490.319
443.821
398.058
354.793
315.914
281.851
252.191
226.691
205.513
188.769
176.026
166.519
159.543
154.557
151.099
148.755
147.191
146.163
145.499
145.076
144.811
144.647
144.546
144.485
144.449
144.428
144.416
144.409
144.405
144.403
144.401
144.401
144.4
144.4
144.4
144.4
144.4
144.4
144.4
144.4
144.4
144.4
144.4
144.4
144.4
144.4
144.4
144.4
144.4
144.4
144.4
144.4
144.4
144.4
144.4
144.4
144.4
144.4
144.4
144.4
144.4
144.4
864.572
902.392
938.617
972.71
1004.3
1033.15
1059.11
1082.13
1102.16
1119.59
1134.82
1148.14
1159.77
1169.88
1178.54
1185.84
1191.81
1196.62
1200.5
1203.72
1206.44
1208.74
1210.66
1212.23
1213.47
1214.39
1215.02
1215.18
1215.05
1214.67
1213.94
1212.87
1211.43
1209.59
1207.4
1204.93
1202.25
1199.37
1196.16
1192.82
1189.02
1184.69
1180.08
1175.27
1170.19
1164.58
1158.41
1151.65
1144.54
1137.01
1128.72
1119.56
1109.74
1099.21
1087.66
1074.73
1060.4
1044.71
1027.56
1008.35
986.087
959.204
925.945
885.723
838.699
785.069
725.319
661.343
599.111
540.067
482.578
426.398
373.14
325.43
284.434
249.861
221.349
198.821
181.888
169.627
160.992
155.084
151.154
148.6
146.97
145.949
145.321
144.94
144.713
144.578
144.5
144.456
144.43
144.416
144.409
144.405
144.402
144.401
144.401
144.4
144.4
144.4
144.4
144.4
144.4
144.4
144.4
144.4
144.4
144.4
144.4
144.4
144.4
144.4
144.4
144.4
144.4
144.4
144.4
144.4
144.4
144.4
144.4
144.4
144.4
144.4
1168.95
1184.73
1198.38
1210.14
1220.15
1228.49
1235.2
1240.66
1245.26
1249.3
1252.94
1256.2
1259.14
1261.87
1264.18
1266.05
1267.42
1268.28
1268.61
1268.55
1268.34
1267.94
1267.4
1266.66
1265.79
1264.82
1263.67
1262.33
1260.9
1259.36
1257.68
1255.84
1253.86
1251.68
1249.24
1246.62
1243.87
1240.94
1237.77
1234.46
1230.63
1226.43
1221.87
1216.84
1211.83
1206.77
1200.9
1194.55
1188.3
1181.85
1175.54
1168.52
1161.1
1153.76
1146.58
1137.94
1129.36
1121.09
1111.83
1101.74
1090.66
1078.1
1063.6
1046.78
1027.62
1005.85
981.459
953.223
917.994
872.981
817.36
751.866
678.958
605.961
537.119
471.343
408.553
350.974
301.087
259.5
226.002
200.273
181.505
168.363
159.476
153.67
149.989
147.711
146.329
145.506
145.025
144.748
144.591
144.504
144.455
144.429
144.415
144.408
144.404
144.402
144.401
144.4
144.4
144.4
144.4
144.4
144.4
144.4
144.4
144.4
144.4
144.4
144.4
144.4
144.4
144.4
144.4
144.4
144.4
144.4
144.4
144.4
144.4
144.4
144.4
144.4
144.4
144.4
1287.51
1291.38
1294.91
1298.17
1301.03
1303.4
1305.07
1306.07
1306.73
1307.22
1307.64
1307.83
1308.12
1308.55
1308.83
1309.17
1309.77
1310.47
1311.14
1311.22
1310.98
1310.44
1309.58
1308.45
1307.15
1305.7
1304.03
1302.18
1300.21
1298.14
1295.9
1293.49
1290.95
1288.29
1285.4
1282.35
1279.22
1275.93
1272.4
1268.69
1264.8
1260.73
1256.42
1251.31
1246.29
1241.5
1235.89
1229.82
1223.86
1217.79
1212.11
1205.72
1198.88
1192.2
1185.76
1177.87
1170.14
1162.57
1153.82
1144.29
1134.4
1124.08
1113.98
1104.16
1093.25
1081.18
1069
1055.78
1040.43
1021.91
999.975
974.355
943.774
905.401
855.716
793.089
718.522
637.465
559.086
484.739
414.74
351.432
297.298
252.992
218.386
192.892
175.114
163.263
155.675
150.987
148.17
146.519
145.571
145.037
144.741
144.58
144.493
144.448
144.424
144.412
144.406
144.403
144.401
144.401
144.4
144.4
144.4
144.4
144.4
144.4
144.4
144.4
144.4
144.4
144.4
144.4
144.4
144.4
144.4
144.4
144.4
144.4
144.4
144.4
144.4
144.4
144.4
144.4
1342.85
1343.26
1343.74
1344.33
1344.95
1345.83
1347
1348.25
1349.21
1349.69
1349.81
1349.53
1349.3
1349.1
1348.65
1348.2
1347.95
1347.84
1347.82
1347.63
1347.2
1346.52
1345.52
1344.22
1342.74
1341.06
1339.13
1336.98
1334.67
1332.27
1329.66
1326.76
1323.83
1320.84
1317.59
1314.14
1310.68
1307.09
1303.22
1299.2
1295.05
1290.63
1286.23
1281.12
1275.89
1270.69
1265.21
1259.38
1253.36
1247.2
1241.43
1235.51
1229.15
1222.71
1216.23
1209.25
1201.91
1194.34
1186.17
1177.51
1168.63
1159.51
1150.63
1142.21
1132.8
1122.03
1110.76
1099.03
1087.17
1075.91
1064.33
1050.86
1035.91
1018.96
998.664
974.513
945.83
909.382
860.515
796.315
717.42
630.818
546.613
466.934
393.104
328.304
274.557
232.309
201.141
179.563
165.417
156.577
151.273
148.194
146.452
145.49
144.97
144.693
144.548
144.473
144.436
144.417
144.408
144.404
144.402
144.401
144.4
144.4
144.4
144.4
144.4
144.4
144.4
144.4
144.4
144.4
144.4
144.4
144.4
144.4
144.4
144.4
144.4
144.4
144.4
144.4
144.4
144.4
1384.32
1384.41
1384.39
1384.31
1384.15
1384.22
1384.55
1385.05
1385.69
1386.14
1386.14
1385.96
1385.64
1385.21
1384.64
1383.96
1383.28
1382.76
1382.38
1382.04
1381.63
1381.11
1380.35
1379.34
1378.15
1376.7
1374.94
1372.9
1370.71
1368.32
1365.65
1362.61
1359.57
1356.39
1352.9
1349.17
1345.4
1341.51
1337.36
1333.01
1328.54
1323.86
1319.07
1313.85
1308.33
1302.78
1297.05
1291.07
1284.83
1278.39
1272.09
1265.72
1259.06
1252.21
1245.12
1237.69
1229.89
1221.71
1213.24
1204.66
1196.07
1187.59
1179.51
1171.7
1163.22
1153.83
1143.73
1133.26
1122.77
1112.9
1103.11
1090.9
1077.62
1064.07
1051.68
1039.4
1025.04
1008.04
987.527
962.941
933.238
894.184
840.409
768.889
681.624
590.123
502.301
420.43
347.689
286.92
239.183
204.267
180.496
165.292
156.083
150.749
147.767
146.148
145.29
144.845
144.618
144.505
144.45
144.423
144.41
144.405
144.402
144.401
144.4
144.4
144.4
144.4
144.4
144.4
144.4
144.4
144.4
144.4
144.4
144.4
144.4
144.4
144.4
144.4
144.4
144.4
144.4
144.4
144.4
1419.77
1419.71
1419.61
1419.46
1419.35
1419.42
1419.74
1420.33
1421.04
1421.64
1422.09
1422.39
1422.43
1422.31
1422.01
1421.55
1421.02
1420.47
1419.89
1419.29
1418.6
1417.76
1416.75
1415.57
1414.14
1412.41
1410.41
1408.24
1405.82
1403.07
1399.96
1396.76
1393.4
1389.72
1385.79
1381.74
1377.56
1373.16
1368.52
1363.72
1358.73
1353.55
1348.12
1342.38
1336.5
1330.46
1324.19
1317.67
1310.96
1304.19
1297.36
1290.35
1283.08
1275.54
1267.67
1259.48
1251
1242.38
1233.73
1225.12
1216.62
1208.27
1199.87
1190.99
1181.43
1171.31
1161.06
1151.28
1142.32
1133.15
1122.71
1111.27
1099.44
1088.36
1077.51
1064.37
1050.17
1036.94
1024.05
1009.14
991.005
968.908
942.634
908.795
861.268
794.937
709.108
613.299
519.274
431.295
353.131
288.09
237.634
201.532
177.654
162.914
154.336
149.574
147.027
145.704
145.034
144.702
144.541
144.465
144.429
144.413
144.405
144.402
144.401
144.4
144.4
144.4
144.4
144.4
144.4
144.4
144.4
144.4
144.4
144.4
144.4
144.4
144.4
144.4
144.4
144.4
144.4
144.4
1454.3
1455.02
1455.65
1456.17
1456.61
1457.01
1457.48
1458.09
1458.81
1459.57
1460.29
1460.88
1461.3
1461.5
1461.46
1461.25
1460.85
1460.28
1459.57
1458.75
1457.81
1456.73
1455.5
1454.11
1452.49
1450.62
1448.51
1446.2
1443.63
1440.74
1437.53
1434.14
1430.56
1426.69
1422.57
1418.28
1413.82
1409.16
1404.26
1399.16
1393.86
1388.36
1382.64
1376.68
1370.51
1364.15
1357.58
1350.77
1343.76
1336.63
1329.41
1322.05
1314.45
1306.58
1298.44
1290.04
1281.48
1272.84
1264.21
1255.62
1247.05
1238.45
1229.62
1220.36
1210.59
1200.41
1190.16
1180.24
1170.69
1160.98
1150.62
1139.6
1128.57
1118.36
1108.12
1096.7
1084.5
1072.84
1061.15
1047.49
1033.31
1019.95
1006
989.358
968.713
944.128
912.541
867.497
802.604
715.776
616.294
517.515
425.272
344.267
278.003
228.027
193.598
171.794
158.964
151.858
148.104
146.193
145.248
144.792
144.577
144.478
144.434
144.414
144.406
144.402
144.401
144.4
144.4
144.4
144.4
144.4
144.4
144.4
144.4
144.4
144.4
144.4
144.4
144.4
144.4
144.4
144.4
144.4
1492.09
1493.2
1494.23
1495.14
1495.96
1496.7
1497.43
1498.17
1498.92
1499.65
1500.31
1500.83
1501.19
1501.28
1501.19
1500.9
1500.37
1499.61
1498.65
1497.49
1496.15
1494.64
1492.93
1491.02
1488.87
1486.5
1483.92
1481.08
1477.96
1474.55
1470.91
1467.06
1462.95
1458.61
1454.07
1449.34
1444.4
1439.24
1433.86
1428.28
1422.49
1416.49
1410.27
1403.85
1397.22
1390.38
1383.31
1376.04
1368.62
1361.12
1353.51
1345.69
1337.65
1329.39
1320.96
1312.42
1303.84
1295.25
1286.64
1277.97
1269.15
1260.05
1250.56
1240.69
1230.57
1220.43
1210.46
1200.59
1190.53
1180.02
1169.06
1158.03
1147.27
1136.46
1125.25
1113.78
1102.85
1091.97
1080.06
1067.72
1055.73
1042.46
1028.36
1014.83
1001.2
984.999
965.023
941.287
909.906
863.795
795.814
704.021
600.124
497.63
403.243
322.359
258.38
212.37
182.365
164.443
154.509
149.317
146.721
145.467
144.879
144.609
144.489
144.436
144.414
144.405
144.402
144.401
144.4
144.4
144.4
144.4
144.4
144.4
144.4
144.4
144.4
144.4
144.4
144.4
144.4
144.4
144.4
1531.53
1532.85
1534.08
1535.21
1536.21
1537.1
1537.91
1538.65
1539.33
1539.91
1540.37
1540.68
1540.75
1540.65
1540.34
1539.77
1538.94
1537.85
1536.52
1534.95
1533.15
1531.13
1528.88
1526.4
1523.69
1520.75
1517.57
1514.13
1510.44
1506.49
1502.31
1497.9
1493.29
1488.47
1483.45
1478.23
1472.79
1467.14
1461.29
1455.24
1448.98
1442.52
1435.87
1429.02
1421.96
1414.68
1407.21
1399.62
1391.96
1384.19
1376.27
1368.17
1359.91
1351.53
1343.06
1334.54
1325.97
1317.33
1308.57
1299.6
1290.35
1280.8
1270.98
1261.02
1251.04
1241.11
1231.14
1220.96
1210.42
1199.56
1188.59
1177.62
1166.53
1155.21
1143.78
1132.47
1121.03
1109.27
1097.69
1086.42
1074.39
1061.92
1049.71
1036.48
1022.57
1009.37
995.826
979.467
959.767
935.88
902.325
851.099
774.867
674.389
565.814
461.066
367.469
290.386
232.71
193.96
170.435
157.353
150.572
147.24
145.666
144.948
144.63
144.493
144.436
144.413
144.405
144.401
144.4
144.4
144.4
144.4
144.4
144.4
144.4
144.4
144.4
144.4
144.4
144.4
144.4
144.4
144.4
144.4
1570
1571.45
1572.84
1574.12
1575.27
1576.28
1577.14
1577.87
1578.46
1578.92
1579.23
1579.36
1579.3
1579.06
1578.58
1577.86
1576.86
1575.59
1574.04
1572.23
1570.15
1567.82
1565.23
1562.4
1559.32
1556
1552.44
1548.64
1544.59
1540.29
1535.76
1531.02
1526.09
1520.96
1515.64
1510.12
1504.4
1498.48
1492.37
1486.07
1479.58
1472.91
1466.07
1459.04
1451.82
1444.39
1436.79
1429.1
1421.36
1413.54
1405.6
1397.51
1389.31
1381
1372.6
1364.13
1355.58
1346.92
1338.11
1329.09
1319.84
1310.36
1300.71
1290.97
1281.2
1271.4
1261.49
1251.34
1240.92
1230.26
1219.44
1208.51
1197.41
1186.14
1174.76
1163.31
1151.69
1139.94
1128.26
1116.45
1104.3
1092.32
1080.68
1068.4
1055.94
1043.82
1030.36
1016.8
1004.2
990.406
973.472
953.875
928.028
888.905
827.357
737.377
627.293
514.943
410.758
322.002
253.298
205.833
176.531
160.166
151.747
147.682
145.812
144.985
144.633
144.488
144.431
144.41
144.403
144.401
144.4
144.4
144.4
144.4
144.4
144.4
144.4
144.4
144.4
144.4
144.4
144.4
144.4
144.4
1607.98
1609.47
1610.88
1612.19
1613.36
1614.37
1615.21
1615.87
1616.35
1616.64
1616.72
1616.63
1616.35
1615.84
1615.09
1614.09
1612.82
1611.28
1609.45
1607.34
1604.95
1602.28
1599.35
1596.15
1592.69
1588.98
1585.03
1580.85
1576.43
1571.75
1566.85
1561.76
1556.5
1551.05
1545.41
1539.59
1533.59
1527.41
1521.05
1514.52
1507.82
1500.97
1493.97
1486.81
1479.46
1471.93
1464.26
1456.53
1448.78
1440.95
1433.03
1425
1416.86
1408.62
1400.3
1391.89
1383.38
1374.74
1365.96
1356.99
1347.86
1338.56
1329.16
1319.69
1310.17
1300.57
1290.82
1280.86
1270.67
1260.27
1249.71
1238.98
1228.08
1217.03
1205.84
1194.49
1182.98
1171.36
1159.65
1147.73
1135.65
1123.61
1111.49
1099.12
1087.04
1075.14
1062.61
1050.39
1038.08
1024.58
1012
999.785
985.058
968.304
947.457
916.474
866.477
787.963
680.807
563.597
450.866
351.914
273.084
217.24
182.248
162.656
152.682
147.969
145.867
144.974
144.612
144.473
144.423
144.407
144.402
144.401
144.401
144.401
144.401
144.401
144.401
144.401
144.401
144.401
144.401
144.401
144.401
144.401
1646.35
1647.7
1648.93
1650
1650.91
1651.62
1652.12
1652.41
1652.44
1652.3
1651.93
1651.32
1650.47
1649.37
1648.01
1646.38
1644.47
1642.27
1639.8
1637.04
1633.99
1630.67
1627.08
1623.23
1619.13
1614.78
1610.2
1605.4
1600.34
1595.06
1589.63
1584.03
1578.25
1572.31
1566.19
1559.92
1553.48
1546.88
1540.14
1533.26
1526.25
1519.12
1511.84
1504.41
1496.81
1489.11
1481.38
1473.63
1465.83
1457.95
1449.98
1441.91
1433.76
1425.52
1417.19
1408.76
1400.21
1391.54
1382.73
1373.79
1364.76
1355.64
1346.47
1337.24
1327.89
1318.4
1308.72
1298.84
1288.78
1278.55
1268.15
1257.59
1246.88
1236.02
1224.97
1213.75
1202.4
1190.88
1179.18
1167.35
1155.4
1143.24
1130.96
1118.73
1106.39
1094
1082.04
1069.83
1057.44
1045.67
1032.73
1020.26
1009.08
996.004
981.447
964.234
939.073
897.757
829.192
727.587
607.218
487.359
379.297
291.101
227.371
187.029
164.493
153.195
148.005
145.785
144.895
144.562
144.449
144.414
144.405
144.402
144.402
144.402
144.402
144.402
144.402
144.402
144.403
144.403
144.403
144.403
144.403
1681.62
1682.83
1683.88
1684.76
1685.45
1685.92
1686.17
1686.16
1685.94
1685.47
1684.74
1683.75
1682.49
1680.97
1679.18
1677.11
1674.76
1672.13
1669.22
1666.03
1662.55
1658.81
1654.8
1650.53
1646
1641.25
1636.27
1631.07
1625.62
1619.98
1614.21
1608.27
1602.17
1595.92
1589.52
1582.98
1576.3
1569.49
1562.55
1555.51
1548.35
1541.1
1533.73
1526.23
1518.59
1510.89
1503.17
1495.45
1487.68
1479.85
1471.95
1463.96
1455.9
1447.76
1439.55
1431.24
1422.85
1414.36
1405.77
1397.09
1388.35
1379.56
1370.7
1361.77
1352.73
1343.55
1334.2
1324.69
1315.02
1305.19
1295.21
1285.08
1274.8
1264.36
1253.74
1242.95
1231.99
1220.86
1209.58
1198.14
1186.51
1174.67
1162.68
1150.54
1138.24
1125.95
1113.7
1101.36
1089.33
1077.41
1065.14
1053.51
1041.2
1029.06
1018.72
1007.22
994.839
980.76
960.256
925.564
865.007
768.913
646.297
519.936
403.407
306.471
235.42
190.225
165.197
152.979
147.63
145.507
144.743
144.497
144.428
144.412
144.408
144.408
144.408
144.408
144.409
144.409
144.409
144.409
144.41
144.41
144.41
144.41
144.41
1714.87
1715.85
1716.64
1717.24
1717.62