/*--------------------------------*- C++ -*----------------------------------*\
| =========                 |                                                 |
| \\      /  F ield         | OpenFOAM: The Open Source CFD Toolbox           |
|  \\    /   O peration     | Version:  v1706                                 |
|   \\  /    A nd           | Web:      www.OpenFOAM.com                      |
|    \\/     M anipulation  |                                                 |
\*---------------------------------------------------------------------------*/
FoamFile
{
    version     2.0;
    format      ascii;
    class       volScalarField;
    location    "1e-05";
    object      Tv;
}
// * * * * * * * * * * * * * * * * * * * * * * * * * * * * * * * * * * * * * //

dimensions      [0 0 0 1 0 0 0];


internalField   nonuniform List<scalar> 
29871
(
144.4
144.4
144.4
144.4
144.4
144.4
144.4
144.4
144.4
144.4
144.4
144.4
144.4
144.4
144.4
144.4
144.4
144.4
144.4
144.4
144.4
144.4
144.4
144.4
144.4
144.4
144.4
144.4
144.4
144.4
144.4
144.4
144.4
144.4
144.4
144.4
144.4
144.4
144.4
144.4
144.4
144.4
144.4
144.4
144.4
144.4
144.4
144.4
144.4
144.4
144.4
144.4
144.4
144.4
144.4
144.4
144.4
144.4
144.4
144.4
144.4
144.4
144.4
144.4
144.4
144.4
144.4
144.4
144.4
144.4
144.4
144.4
144.4
144.4
144.4
144.4
144.4
144.4
144.4
144.4
144.4
144.4
144.4
144.4
144.4
144.4
144.4
144.4
144.4
144.4
144.4
144.4
144.4
144.4
144.4
144.4
144.4
144.4
144.4
144.4
144.4
144.4
144.4
144.4
144.4
144.4
144.4
144.4
144.4
144.4
144.4
144.4
144.4
144.4
144.4
144.4
144.4
144.4
144.4
144.4
144.4
144.4
144.4
144.4
144.4
144.4
144.4
144.4
144.4
144.4
144.4
144.4
144.4
144.4
144.4
144.4
144.4
144.4
144.4
144.4
144.4
144.4
144.4
144.4
144.4
144.4
144.4
144.4
144.4
144.4
144.4
144.4
144.4
144.4
144.4
144.4
144.4
144.4
144.4
144.4
144.4
144.4
144.4
144.4
144.4
144.4
144.4
144.4
144.4
144.4
144.4
144.4
144.4
144.4
144.4
144.4
144.4
144.4
144.4
144.4
144.4
144.4
144.4
144.4
144.4
144.4
144.4
144.4
144.4
144.4
144.4
144.4
144.4
144.4
144.4
144.4
144.4
144.4
144.4
144.4
144.4
144.4
144.4
144.4
144.4
144.4
144.4
144.4
144.4
144.4
144.4
144.4
144.4
144.4
144.4
144.4
144.4
144.4
144.4
144.4
144.4
144.4
144.4
144.4
144.4
144.4
144.4
144.4
144.4
144.4
144.4
144.4
144.4
144.4
144.4
144.4
144.4
144.4
144.4
144.4
144.4
144.4
144.4
144.4
144.4
144.4
144.4
144.4
144.4
144.4
144.4
144.4
144.4
144.4
144.4
144.4
144.4
144.4
144.4
144.4
144.4
144.4
144.4
144.4
144.4
144.4
144.4
144.4
144.4
144.4
144.4
144.4
144.4
144.4
144.4
144.4
144.4
144.4
144.4
144.4
144.4
144.4
144.4
144.4
144.4
144.4
144.4
144.4
144.4
144.4
144.4
144.4
144.4
144.4
144.4
144.4
144.4
144.4
144.4
144.4
144.4
144.4
144.4
144.4
144.4
144.4
144.4
144.4
144.4
144.4
144.4
144.4
144.4
144.4
144.4
144.4
144.4
144.4
144.4
144.4
144.4
144.4
144.4
144.4
144.4
144.4
144.4
144.4
144.4
144.4
144.4
144.4
144.4
144.4
144.4
144.4
144.4
144.4
144.4
144.4
144.4
144.4
144.4
144.4
144.4
144.4
144.4
144.4
144.4
144.4
144.4
144.4
144.4
144.4
144.4
144.4
144.4
144.4
144.4
144.4
144.4
144.4
144.4
144.4
144.4
144.4
144.4
144.4
144.4
144.4
144.4
144.4
144.4
144.4
144.4
144.4
144.4
144.4
144.4
144.4
144.4
144.4
144.4
144.4
144.4
144.4
144.4
144.4
144.4
144.4
144.4
144.4
144.4
144.4
144.4
144.4
144.4
144.4
144.4
144.4
144.4
144.4
144.4
144.4
144.4
144.4
144.4
144.4
144.4
144.4
144.4
144.4
144.4
144.4
144.4
144.4
144.4
144.4
144.4
144.4
144.4
144.4
144.4
144.4
144.4
144.4
144.4
144.4
144.4
144.4
144.4
144.4
144.4
144.4
144.4
144.4
144.4
144.4
144.4
144.4
144.4
144.4
144.4
144.4
144.4
144.4
144.4
144.4
144.4
144.4
144.4
144.4
144.4
144.4
144.4
144.4
144.4
144.4
144.4
144.4
144.4
144.4
144.4
144.4
144.4
144.4
144.4
144.4
144.4
144.4
144.4
144.4
144.4
144.4
144.4
144.4
144.4
144.4
144.4
144.4
144.4
144.4
144.4
144.4
144.4
144.4
144.4
144.4
144.4
144.4
144.4
144.4
144.4
144.4
144.4
144.4
144.4
144.4
144.4
144.4
144.4
144.4
144.4
144.4
144.4
144.4
144.4
144.4
144.4
144.4
144.4
144.4
144.4
144.4
144.4
144.4
144.4
144.4
144.4
144.4
144.4
144.4
144.4
144.4
144.4
144.4
144.4
144.4
144.4
144.4
144.4
144.4
144.4
144.4
144.4
144.4
144.4
144.4
144.4
144.4
144.4
144.4
144.4
144.4
144.4
144.4
144.4
144.4
144.4
144.4
144.4
144.4
144.4
144.4
144.4
144.4
144.4
144.4
144.4
144.4
144.4
144.4
144.4
144.4
144.4
144.4
144.4
144.4
144.4
144.4
144.4
144.4
144.4
144.4
144.4
144.4
144.4
144.4
144.4
144.4
144.4
144.4
144.4
144.4
144.4
144.4
144.4
144.4
144.4
144.4
144.4
144.4
144.4
144.4
144.4
144.4
144.4
144.4
144.4
144.4
144.4
144.4
144.4
144.4
144.4
144.4
144.4
144.4
144.4
144.4
144.4
144.4
144.4
144.4
144.4
144.4
144.4
144.4
144.4
144.4
144.4
144.4
144.4
144.4
144.4
144.4
144.4
144.4
144.4
144.4
144.4
144.4
144.4
144.4
144.4
144.4
144.4
144.4
144.4
144.4
144.4
144.4
144.4
144.4
144.4
144.4
144.4
144.4
144.4
144.4
144.4
144.4
144.4
144.4
144.4
144.4
144.4
144.4
144.4
144.4
144.4
144.4
144.4
144.4
144.4
144.4
144.4
144.4
144.4
144.4
144.4
144.4
144.4
144.4
144.4
144.4
144.4
144.4
144.4
144.4
144.4
144.4
144.4
144.4
144.4
144.4
144.4
144.4
144.4
144.4
144.4
144.4
144.4
144.4
144.4
144.4
144.4
144.4
144.4
144.4
144.4
144.4
144.4
144.4
144.4
144.4
144.4
144.4
144.4
144.4
144.4
144.4
144.4
144.4
144.4
144.4
144.4
144.4
144.4
144.4
144.4
144.4
144.4
144.4
144.4
144.4
144.4
144.4
144.4
144.4
144.4
144.4
144.4
144.4
144.4
144.4
144.4
144.4
144.4
144.4
144.4
144.4
144.4
144.4
144.4
144.4
144.4
144.4
144.4
144.4
144.4
144.4
144.4
144.4
144.4
144.4
144.4
144.4
144.4
144.4
144.4
144.4
144.4
144.4
144.4
144.4
144.4
144.4
144.4
144.4
144.4
144.4
144.4
144.4
144.4
144.4
144.4
144.4
144.4
144.4
144.4
144.4
144.4
144.4
144.4
144.4
144.4
144.4
144.4
144.4
144.4
144.4
144.4
144.4
144.4
144.4
144.4
144.4
144.4
144.4
144.4
144.4
144.4
144.4
144.4
144.4
144.4
144.4
144.4
144.4
144.4
144.4
144.4
144.4
144.4
144.4
144.4
144.4
144.4
144.4
144.4
144.4
144.4
144.4
144.4
144.4
144.4
144.4
144.4
144.4
144.4
144.4
144.4
144.4
144.4
144.4
144.4
144.4
144.4
144.4
144.4
144.4
144.4
144.4
144.4
144.4
144.4
144.4
144.4
144.4
144.4
144.4
144.4
144.4
144.4
144.4
144.4
144.4
144.4
144.4
144.4
144.4
144.4
144.4
144.4
144.4
144.4
144.4
144.4
144.4
144.4
144.4
144.4
144.4
144.4
144.4
144.4
144.4
144.4
144.4
144.4
144.4
144.4
144.4
144.4
144.4
144.4
144.4
144.4
144.4
144.4
144.4
144.4
144.4
144.4
144.4
144.4
144.4
144.4
144.4
144.4
144.4
144.4
144.4
144.4
144.4
144.4
144.4
144.4
144.4
144.4
144.4
144.4
144.4
144.4
144.4
144.4
144.4
144.4
144.4
144.4
144.4
144.4
144.4
144.4
144.4
144.4
144.4
144.4
144.4
144.4
144.4
144.4
144.4
144.4
144.4
144.4
144.4
144.4
144.4
144.4
144.4
144.4
144.4
144.4
144.4
144.4
144.4
144.4
144.4
144.4
144.4
144.4
144.4
144.4
144.4
144.4
144.4
144.4
144.4
144.4
144.4
144.4
144.4
144.4
144.4
144.4
144.4
144.4
144.4
144.4
144.4
144.4
144.4
144.4
144.4
144.4
144.4
144.4
144.4
144.4
144.4
144.4
144.4
144.4
144.4
144.4
144.4
144.4
144.4
144.4
144.4
144.4
144.4
144.4
144.4
144.4
144.4
144.4
144.4
144.4
144.4
144.4
144.4
144.4
144.4
144.4
144.4
144.4
144.4
144.4
144.4
144.4
144.4
144.4
144.4
144.4
144.4
144.4
144.4
144.4
144.4
144.4
144.4
144.4
144.4
144.4
144.4
144.4
144.4
144.4
144.4
144.4
144.4
144.4
144.4
144.4
144.4
144.4
144.4
144.4
144.4
144.4
144.4
144.4
144.4
144.4
144.4
144.4
144.4
144.4
144.4
144.4
144.4
144.4
144.4
144.4
144.4
144.4
144.4
144.4
144.4
144.4
144.4
144.4
144.4
144.4
144.4
144.4
144.4
144.4
144.4
144.4
144.4
144.4
144.4
144.4
144.4
144.4
144.4
144.4
144.4
144.4
144.4
144.4
144.4
144.4
144.4
144.4
144.4
144.4
144.4
144.4
144.4
144.4
144.4
144.4
144.4
144.4
144.4
144.4
144.4
144.4
144.4
144.4
144.4
144.4
144.4
144.4
144.4
144.4
144.4
144.4
144.4
144.4
144.4
144.4
144.4
144.4
144.4
144.4
144.4
144.4
144.4
144.4
144.4
144.4
144.4
144.4
144.4
144.4
144.4
144.4
144.4
144.4
144.4
144.4
144.4
144.4
144.4
144.4
144.4
144.4
144.4
144.4
144.4
144.4
144.4
144.4
144.4
144.4
144.4
144.4
144.4
144.4
144.4
144.4
144.4
144.4
144.4
144.4
144.4
144.4
144.4
144.4
144.4
144.4
144.4
144.4
144.4
144.4
144.4
144.4
144.4
144.4
144.4
144.4
144.4
144.4
144.4
144.4
144.4
144.4
144.4
144.4
144.4
144.4
144.4
144.4
144.4
144.4
144.4
144.4
144.4
144.4
144.4
144.4
144.4
144.4
144.4
144.4
144.4
144.4
144.4
144.4
144.4
144.4
144.4
144.4
144.4
144.4
144.4
144.4
144.4
144.4
144.4
144.4
144.4
144.4
144.4
144.4
144.4
144.4
144.4
144.4
144.4
144.4
144.4
144.4
144.4
144.4
144.4
144.4
144.4
144.4
144.4
144.4
144.4
144.4
144.4
144.4
144.4
144.4
144.4
144.4
144.4
144.4
144.4
144.4
144.4
144.4
144.4
144.4
144.4
144.4
144.4
144.4
144.4
144.4
144.4
144.4
144.4
144.4
144.4
144.4
144.4
144.4
144.4
144.4
144.4
144.4
144.4
144.4
144.4
144.4
144.4
144.4
144.4
144.4
144.4
144.4
144.4
144.4
144.4
144.4
144.4
144.4
144.4
144.4
144.4
144.4
144.4
144.4
144.4
144.4
144.4
144.4
144.4
144.4
144.4
144.4
144.4
144.4
144.4
144.4
144.4
144.4
144.4
144.4
144.4
144.4
144.4
144.4
144.4
144.4
144.4
144.4
144.4
144.4
144.4
144.4
144.4
144.4
144.4
144.4
144.4
144.4
144.4
144.4
144.4
144.4
144.4
144.4
144.4
144.4
144.4
144.4
144.4
144.4
144.4
144.4
144.4
144.4
144.4
144.4
144.4
144.4
144.4
144.4
144.4
144.4
144.4
144.4
144.4
144.4
144.4
144.4
144.4
144.4
144.4
144.4
144.4
144.4
144.4
144.4
144.4
144.4
144.4
144.4
144.4
144.4
144.4
144.4
144.4
144.4
144.4
144.4
144.4
144.4
144.4
144.4
144.4
144.4
144.4
144.4
144.4
144.4
144.4
144.4
144.4
144.4
144.4
144.4
144.4
144.4
144.4
144.4
144.4
144.4
144.4
144.4
144.4
144.4
144.4
144.4
144.4
144.4
144.4
144.4
144.4
144.4
144.4
144.4
144.4
144.401
144.401
144.401
144.401
144.401
144.401
144.401
144.401
144.401
144.402
144.402
144.402
144.402
144.402
144.402
144.402
144.402
144.402
144.402
144.402
144.402
144.402
144.402
144.402
144.402
144.402
144.402
144.402
144.402
144.401
144.401
144.401
144.401
144.401
144.401
144.401
144.401
144.4
144.4
144.4
144.4
144.4
144.4
144.4
144.4
144.4
144.4
144.4
144.4
144.4
144.4
144.4
144.4
144.4
144.4
144.4
144.4
144.4
144.4
144.4
144.4
144.4
144.4
144.4
144.4
144.4
144.4
144.4
144.4
144.4
144.4
144.4
144.4
144.4
144.4
144.4
144.4
144.4
144.4
144.4
144.4
144.4
144.4
144.4
144.4
144.4
144.4
144.4
144.4
144.4
144.4
144.4
144.4
144.4
144.4
144.4
144.4
144.4
144.4
144.4
144.4
144.4
144.4
144.4
144.4
144.4
144.4
144.4
144.4
144.403
144.403
144.404
144.404
144.405
144.406
144.407
144.408
144.409
144.41
144.411
144.413
144.414
144.416
144.417
144.419
144.42
144.422
144.423
144.424
144.426
144.427
144.427
144.428
144.428
144.429
144.428
144.428
144.427
144.426
144.425
144.424
144.422
144.42
144.419
144.417
144.415
144.413
144.412
144.41
144.409
144.407
144.406
144.405
144.404
144.403
144.403
144.402
144.402
144.401
144.401
144.401
144.4
144.4
144.4
144.4
144.4
144.4
144.4
144.4
144.4
144.4
144.4
144.4
144.4
144.4
144.4
144.4
144.4
144.4
144.4
144.4
144.4
144.4
144.4
144.4
144.4
144.4
144.4
144.4
144.4
144.4
144.4
144.4
144.4
144.4
144.4
144.4
144.4
144.4
144.4
144.4
144.4
144.4
144.4
144.4
144.4
144.4
144.4
144.4
144.4
144.4
144.4
144.4
144.4
144.4
144.4
144.4
144.4
144.4
144.4
144.4
144.4
144.4
144.4
144.429
144.435
144.441
144.448
144.456
144.466
144.476
144.488
144.5
144.514
144.529
144.545
144.561
144.578
144.595
144.612
144.629
144.645
144.661
144.676
144.689
144.7
144.71
144.717
144.721
144.723
144.721
144.717
144.709
144.698
144.685
144.67
144.652
144.634
144.614
144.594
144.573
144.553
144.534
144.516
144.499
144.484
144.47
144.458
144.447
144.438
144.43
144.423
144.418
144.413
144.41
144.407
144.405
144.404
144.403
144.402
144.401
144.401
144.401
144.4
144.4
144.4
144.4
144.4
144.4
144.4
144.4
144.4
144.4
144.4
144.4
144.4
144.4
144.4
144.4
144.4
144.4
144.4
144.4
144.4
144.4
144.4
144.4
144.4
144.4
144.4
144.4
144.4
144.4
144.4
144.4
144.4
144.4
144.4
144.4
144.4
144.4
144.4
144.4
144.4
144.4
144.4
144.4
144.4
144.4
144.4
144.4
144.4
144.4
144.4
144.4
144.4
144.4
144.4
144.4
144.4
144.485
144.504
144.527
144.554
144.586
144.624
144.668
144.718
144.776
144.842
144.917
145.002
145.096
145.201
145.316
145.44
145.573
145.713
145.857
146.005
146.154
146.302
146.448
146.591
146.728
146.857
146.976
147.083
147.175
147.25
147.306
147.341
147.355
147.347
147.314
147.257
147.176
147.074
146.952
146.813
146.659
146.493
146.319
146.139
145.958
145.778
145.605
145.441
145.288
145.15
145.026
144.916
144.819
144.734
144.662
144.602
144.553
144.514
144.483
144.46
144.443
144.431
144.422
144.415
144.41
144.407
144.404
144.403
144.402
144.401
144.401
144.4
144.4
144.4
144.4
144.4
144.4
144.4
144.4
144.4
144.4
144.4
144.4
144.4
144.4
144.4
144.4
144.4
144.4
144.4
144.4
144.4
144.4
144.4
144.4
144.4
144.4
144.4
144.4
144.4
144.4
144.4
144.4
144.4
144.4
144.4
144.4
144.4
144.4
144.4
144.4
144.4
144.4
144.4
144.4
144.4
144.4
144.4
144.4
144.4
144.4
144.4
144.4
145.273
145.455
145.667
145.912
146.192
146.506
146.855
147.24
147.659
148.114
148.603
149.123
149.67
150.238
150.821
151.411
152
152.582
153.149
153.695
154.218
154.716
155.187
155.631
156.044
156.421
156.76
157.055
157.303
157.502
157.648
157.739
157.773
157.753
157.668
157.519
157.306
157.031
156.698
156.305
155.856
155.352
154.796
154.191
153.543
152.858
152.146
151.417
150.688
149.971
149.278
148.615
147.984
147.392
146.846
146.357
145.93
145.569
145.275
145.044
144.868
144.735
144.637
144.564
144.511
144.474
144.448
144.431
144.42
144.412
144.408
144.405
144.403
144.402
144.401
144.401
144.4
144.4
144.4
144.4
144.4
144.4
144.4
144.4
144.4
144.4
144.4
144.4
144.4
144.4
144.4
144.4
144.4
144.4
144.4
144.4
144.4
144.4
144.4
144.4
144.4
144.4
144.4
144.4
144.4
144.4
144.4
144.4
144.4
144.4
144.4
144.4
144.4
144.4
144.4
144.4
144.4
144.4
144.4
144.4
144.4
144.4
144.4
150.52
151.383
152.299
153.259
154.252
155.268
156.298
157.34
158.393
159.452
160.514
161.572
162.618
163.643
164.641
165.602
166.522
167.393
168.211
168.975
169.689
170.356
170.978
171.552
172.076
172.547
172.959
173.311
173.598
173.821
173.976
174.063
174.079
174.033
173.908
173.702
173.418
173.06
172.627
172.119
171.535
170.873
170.133
169.313
168.414
167.435
166.379
165.252
164.064
162.83
161.563
160.267
158.934
157.558
156.145
154.709
153.273
151.869
150.535
149.315
148.246
147.342
146.596
145.993
145.521
145.166
144.91
144.733
144.614
144.535
144.483
144.45
144.43
144.418
144.41
144.406
144.403
144.402
144.401
144.4
144.4
144.4
144.4
144.4
144.4
144.4
144.4
144.4
144.4
144.4
144.4
144.4
144.4
144.4
144.4
144.4
144.4
144.4
144.4
144.4
144.4
144.4
144.4
144.4
144.4
144.4
144.4
144.4
144.4
144.4
144.4
144.4
144.4
144.4
144.4
144.4
144.4
144.4
144.4
144.4
144.4
144.4
144.4
164.041
165.479
166.915
168.338
169.738
171.108
172.445
173.755
175.041
176.302
177.532
178.727
179.878
180.98
182.028
183.017
183.943
184.803
185.597
186.326
187.003
187.631
188.209
188.735
189.205
189.617
189.968
190.256
190.479
190.637
190.731
190.753
190.722
190.624
190.452
190.203
189.88
189.487
189.022
188.486
187.878
187.194
186.432
185.591
184.668
183.659
182.564
181.382
180.12
178.785
177.394
175.953
174.447
172.853
171.163
169.371
167.482
165.5
163.441
161.341
159.249
157.206
155.227
153.321
151.517
149.869
148.44
147.275
146.375
145.71
145.24
144.922
144.716
144.587
144.509
144.462
144.434
144.419
144.41
144.405
144.403
144.401
144.401
144.4
144.4
144.4
144.4
144.4
144.4
144.4
144.4
144.4
144.4
144.4
144.4
144.4
144.4
144.4
144.4
144.4
144.4
144.4
144.4
144.4
144.4
144.4
144.4
144.4
144.4
144.4
144.4
144.4
144.4
144.4
144.4
144.4
144.4
144.4
144.4
144.4
144.4
144.4
144.4
144.4
144.4
181.489
183.023
184.516
185.961
187.351
188.685
189.966
191.206
192.409
193.572
194.691
195.762
196.78
197.744
198.649
199.494
200.278
200.998
201.655
202.254
202.812
203.326
203.791
204.203
204.562
204.865
205.112
205.3
205.429
205.5
205.509
205.474
205.381
205.228
205.011
204.725
204.373
203.956
203.477
202.936
202.33
201.657
200.915
200.104
199.221
198.261
197.223
196.106
194.911
193.64
192.302
190.916
189.467
187.932
186.299
184.56
182.711
180.745
178.659
176.464
174.196
171.883
169.52
167.083
164.562
161.973
159.367
156.82
154.396
152.148
150.139
148.44
147.105
146.129
145.459
145.024
144.756
144.598
144.507
144.457
144.43
144.415
144.408
144.404
144.402
144.401
144.4
144.4
144.4
144.4
144.4
144.4
144.4
144.4
144.4
144.4
144.4
144.4
144.4
144.4
144.4
144.4
144.4
144.4
144.4
144.4
144.4
144.4
144.4
144.4
144.4
144.4
144.4
144.4
144.4
144.4
144.4
144.4
144.4
144.4
144.4
144.4
144.4
144.4
144.4
198.477
199.832
201.137
202.39
203.586
204.726
205.816
206.874
207.895
208.874
209.808
210.697
211.54
212.336
213.084
213.782
214.43
215.025
215.567
216.059
216.508
216.915
217.277
217.593
217.862
218.081
218.25
218.365
218.422
218.423
218.388
218.301
218.16
217.963
217.71
217.395
217.015
216.574
216.075
215.523
214.913
214.242
213.509
212.716
211.859
210.935
209.942
208.882
207.753
206.555
205.292
203.973
202.588
201.128
199.584
197.953
196.233
194.419
192.502
190.478
188.363
186.188
183.933
181.573
179.089
176.47
173.731
170.912
168.033
165.09
162.093
159.092
156.179
153.455
151.013
148.946
147.332
146.182
145.429
144.969
144.703
144.557
144.48
144.439
144.419
144.409
144.404
144.402
144.401
144.4
144.4
144.4
144.4
144.4
144.4
144.4
144.4
144.4
144.4
144.4
144.4
144.4
144.4
144.4
144.4
144.4
144.4
144.4
144.4
144.4
144.4
144.4
144.4
144.4
144.4
144.4
144.4
144.4
144.4
144.4
144.4
144.4
144.4
144.4
144.4
212.104
213.287
214.428
215.528
216.588
217.607
218.582
219.515
220.414
221.281
222.116
222.918
223.686
224.418
225.113
225.768
226.382
226.95
227.472
227.948
228.379
228.767
229.111
229.413
229.67
229.882
230.047
230.161
230.22
230.221
230.19
230.11
229.979
229.794
229.557
229.267
228.919
228.509
228.037
227.508
226.931
226.303
225.616
224.871
224.071
223.211
222.291
221.307
220.261
219.154
217.98
216.746
215.457
214.107
212.689
211.202
209.645
208.018
206.321
204.546
202.682
200.73
198.7
196.584
194.38
192.08
189.673
187.15
184.535
181.821
178.98
176
172.886
169.681
166.414
163.097
159.762
156.503
153.458
150.77
148.567
146.929
145.834
145.168
144.794
144.594
144.493
144.444
144.42
144.409
144.404
144.402
144.401
144.4
144.4
144.4
144.4
144.4
144.4
144.4
144.4
144.4
144.4
144.4
144.4
144.4
144.4
144.4
144.4
144.4
144.4
144.4
144.4
144.4
144.4
144.4
144.4
144.4
144.4
144.4
144.4
144.4
144.4
144.4
144.4
144.4
225.114
226.149
227.158
228.14
229.095
230.02
230.91
231.764
232.582
233.37
234.13
234.861
235.561
236.23
236.865
237.462
238.017
238.527
238.991
239.412
239.79
240.127
240.422
240.673
240.879
241.039
241.152
241.21
241.212
241.182
241.107
240.98
240.803
240.574
240.294
239.964
239.58
239.137
238.632
238.07
237.461
236.801
236.084
235.314
234.493
233.616
232.683
231.693
230.645
229.537
228.364
227.135
225.856
224.519
223.12
221.664
220.146
218.568
216.933
215.23
213.448
211.585
209.642
207.626
205.548
203.404
201.186
198.876
196.463
193.933
191.288
188.536
185.671
182.707
179.638
176.427
173.059
169.565
165.998
162.389
158.792
155.327
152.172
149.51
147.478
146.104
145.28
144.83
144.602
144.492
144.44
144.417
144.407
144.403
144.401
144.4
144.4
144.4
144.4
144.4
144.4
144.4
144.4
144.4
144.4
144.4
144.4
144.4
144.4
144.4
144.4
144.4
144.4
144.4
144.4
144.4
144.4
144.4
144.4
144.4
144.4
144.4
144.4
144.4
144.4
144.4
144.4
144.4
236.949
237.905
238.842
239.758
240.65
241.516
242.347
243.142
243.903
244.634
245.339
246.015
246.66
247.274
247.856
248.403
248.909
249.371
249.786
250.156
250.483
250.767
251.008
251.204
251.355
251.458
251.509
251.507
251.473
251.394
251.265
251.087
250.86
250.584
250.259
249.884
249.458
248.978
248.439
247.845
247.199
246.5
245.746
244.943
244.094
243.192
242.24
241.236
240.177
239.059
237.879
236.648
235.371
234.04
232.651
231.213
229.721
228.173
226.571
224.904
223.164
221.352
219.467
217.517
215.522
213.479
211.379
209.194
206.9
204.493
202.007
199.466
196.849
194.13
191.282
188.296
185.184
181.956
178.63
175.164
171.535
167.777
163.953
160.119
156.37
152.893
149.921
147.649
146.135
145.254
144.795
144.575
144.474
144.431
144.412
144.405
144.402
144.401
144.4
144.4
144.4
144.4
144.4
144.4
144.4
144.4
144.4
144.4
144.4
144.4
144.4
144.4
144.4
144.4
144.4
144.4
144.4
144.4
144.4
144.4
144.4
144.4
144.4
144.4
144.4
144.4
144.4
144.4
247.997
248.895
249.775
250.635
251.476
252.293
253.078
253.826
254.539
255.22
255.873
256.495
257.086
257.643
258.171
258.664
259.12
259.534
259.904
260.228
260.507
260.74
260.928
261.068
261.161
261.198
261.19
261.147
261.057
260.919
260.733
260.499
260.217
259.887
259.51
259.086
258.613
258.088
257.51
256.878
256.194
255.457
254.666
253.827
252.946
252.018
251.043
250.02
248.944
247.814
246.627
245.392
244.112
242.783
241.402
239.974
238.497
236.966
235.38
233.731
232.016
230.239
228.398
226.5
224.569
222.597
220.568
218.452
216.232
213.912
211.545
209.153
206.702
204.139
201.439
198.637
195.769
192.818
189.751
186.537
183.176
179.692
176.104
172.369
168.47
164.465
160.433
156.484
152.818
149.709
147.39
145.91
145.098
144.703
144.525
144.45
144.419
144.407
144.403
144.401
144.4
144.4
144.4
144.4
144.4
144.4
144.4
144.4
144.4
144.4
144.4
144.4
144.4
144.4
144.4
144.4
144.4
144.4
144.4
144.4
144.4
144.4
144.4
144.4
144.4
144.4
144.4
144.4
258.387
259.233
260.061
260.868
261.657
262.424
263.165
263.874
264.547
265.186
265.791
266.363
266.9
267.403
267.872
268.306
268.704
269.061
269.377
269.649
269.876
270.056
270.189
270.272
270.295
270.281
270.227
270.125
269.974
269.775
269.53
269.237
268.896
268.509
268.077
267.599
267.074
266.501
265.878
265.204
264.481
263.706
262.878
262.004
261.09
260.134
259.134
258.087
256.992
255.847
254.651
253.409
252.123
250.791
249.413
247.988
246.516
244.994
243.417
241.782
240.091
238.345
236.544
234.698
232.82
230.898
228.911
226.843
224.684
222.446
220.176
217.889
215.536
213.068
210.474
207.815
205.127
202.365
199.473
196.455
193.347
190.148
186.834
183.373
179.756
176.016
172.146
168.113
163.959
159.774
155.699
151.975
148.923
146.776
145.511
144.876
144.591
144.473
144.427
144.41
144.403
144.401
144.4
144.4
144.4
144.4
144.4
144.4
144.4
144.4
144.4
144.4
144.4
144.4
144.4
144.4
144.4
144.4
144.4
144.4
144.4
144.4
144.4
144.4
144.4
144.4
144.4
144.4
144.4
268.986
269.768
270.528
271.265
271.98
272.67
273.33
273.959
274.553
275.111
275.633
276.117
276.564
276.975
277.347
277.68
277.974
278.227
278.437
278.602
278.72
278.792
278.803
278.779
278.712
278.596
278.43
278.216
277.955
277.648
277.295
276.895
276.449
275.959
275.425
274.847
274.223
273.552
272.834
272.068
271.254
270.392
269.484
268.537
267.551
266.523
265.452
264.335
263.173
261.966
260.715
259.422
258.086
256.706
255.281
253.811
252.294
250.727
249.108
247.44
245.723
243.961
242.16
240.32
238.433
236.483
234.459
232.361
230.205
228.025
225.811
223.523
221.132
218.637
216.095
213.528
210.885
208.117
205.256
202.343
199.343
196.218
192.985
189.647
186.196
182.609
178.865
174.981
170.967
166.796
162.507
158.215
154.109
150.501
147.744
145.995
145.078
144.665
144.498
144.435
144.412
144.404
144.401
144.4
144.4
144.4
144.4
144.4
144.4
144.4
144.4
144.4
144.4
144.4
144.4
144.4
144.4
144.4
144.4
144.4
144.4
144.4
144.4
144.4
144.4
144.4
144.4
144.4
278.184
278.923
279.637
280.325
280.986
281.62
282.225
282.799
283.339
283.843
284.309
284.736
285.124
285.472
285.779
286.045
286.27
286.452
286.591
286.686
286.732
286.728
286.689
286.602
286.467
286.284
286.053
285.774
285.449
285.079
284.664
284.203
283.697
283.149
282.558
281.925
281.249
280.53
279.765
278.956
278.103
277.205
276.264
275.285
274.267
273.211
272.115
270.977
269.797
268.576
267.316
266.015
264.673
263.29
261.865
260.397
258.886
257.33
255.729
254.085
252.399
250.672
248.907
247.1
245.244
243.331
241.354
239.319
237.241
235.13
232.973
230.744
228.427
226.031
223.595
221.122
218.573
215.916
213.184
210.405
207.537
204.558
201.514
198.387
195.134
191.767
188.291
184.7
180.978
177.097
173.07
168.908
164.595
160.197
155.873
151.896
148.662
146.473
145.277
144.734
144.519
144.44
144.413
144.404
144.401
144.4
144.4
144.4
144.4
144.4
144.4
144.4
144.4
144.4
144.4
144.4
144.4
144.4
144.4
144.4
144.4
144.4
144.4
144.4
144.4
144.4
144.4
144.4
287.539
288.204
288.839
289.444
290.019
290.562
291.073
291.55
291.989
292.391
292.753
293.074
293.353
293.59
293.785
293.936
294.042
294.107
294.116
294.094
294.027
293.913
293.752
293.545
293.291
292.991
292.644
292.253
291.818
291.338
290.816
290.25
289.642
288.995
288.307
287.578
286.809
285.998
285.145
284.252
283.317
282.343
281.332
280.284
279.199
278.078
276.919
275.721
274.486
273.214
271.905
270.558
269.172
267.748
266.284
264.782
263.24
261.659
260.039
258.381
256.686
254.952
253.176
251.354
249.48
247.555
245.582
243.57
241.518
239.415
237.245
235.004
232.704
230.361
227.969
225.504
222.954
220.339
217.671
214.919
212.077
209.179
206.194
203.087
199.91
196.649
193.264
189.763
186.146
182.41
178.541
174.511
170.338
166.027
161.591
157.152
152.952
149.388
146.86
145.432
144.783
144.53
144.442
144.413
144.404
144.401
144.4
144.4
144.4
144.4
144.4
144.4
144.4
144.4
144.4
144.4
144.4
144.4
144.4
144.4
144.4
144.4
144.4
144.4
144.4
144.4
144.4
296.228
296.804
297.348
297.858
298.334
298.775
299.18
299.548
299.876
300.164
300.41
300.614
300.776
300.891
300.966
300.987
300.972
300.915
300.813
300.666
300.473
300.235
299.952
299.624
299.251
298.834
298.374
297.871
297.326
296.74
296.113
295.446
294.74
293.997
293.216
292.397
291.539
290.643
289.709
288.737
287.729
286.685
285.607
284.496
283.35
282.169
280.954
279.705
278.422
277.105
275.753
274.366
272.944
271.487
269.994
268.467
266.905
265.309
263.677
262.01
260.305
258.561
256.775
254.944
253.07
251.155
249.201
247.204
245.156
243.051
240.888
238.675
236.415
234.101
231.72
229.271
226.764
224.197
221.556
218.843
216.068
213.204
210.245
207.228
204.119
200.891
197.59
194.189
190.663
187.021
183.255
179.368
175.344
171.161
166.847
162.403
157.909
153.588
149.828
147.086
145.512
144.8
144.53
144.44
144.411
144.403
144.401
144.4
144.4
144.4
144.4
144.4
144.4
144.4
144.4
144.4
144.4
144.4
144.4
144.4
144.4
144.4
144.4
144.4
144.4
144.4
144.4
144.4
303.709
304.217
304.692
305.131
305.533
305.899
306.226
306.514
306.762
306.969
307.135
307.255
307.336
307.365
307.354
307.303
307.208
307.067
306.882
306.652
306.378
306.06
305.699
305.294
304.846
304.357
303.825
303.253
302.641
301.99
301.301
300.574
299.811
299.012
298.178
297.309
296.404
295.464
294.489
293.48
292.437
291.362
290.255
289.116
287.947
286.746
285.513
284.25
282.957
281.632
280.276
278.888
277.469
276.019
274.537
273.024
271.48
269.905
268.297
266.656
264.98
263.269
261.519
259.732
257.906
256.044
254.143
252.2
250.211
248.172
246.084
243.95
241.768
239.533
237.239
234.887
232.48
230.013
227.481
224.885
222.221
219.479
216.663
213.782
210.808
207.743
204.612
201.369
198.022
194.589
191.036
187.364
183.574
179.657
175.62
171.438
167.112
162.667
158.157
153.788
149.95
147.125
145.504
144.783
144.519
144.434
144.409
144.402
144.401
144.4
144.4
144.4
144.4
144.4
144.4
144.4
144.4
144.4
144.4
144.4
144.4
144.4
144.4
144.4
144.4
144.4
144.4
144.4
310.645
311.079
311.476
311.837
312.16
312.443
312.687
312.891
313.053
313.172
313.252
313.282
313.272
313.223
313.129
312.991
312.808
312.581
312.311
311.998
311.641
311.242
310.8
310.317
309.793
309.229
308.626
307.984
307.304
306.588
305.836
305.048
304.227
303.373
302.486
301.567
300.615
299.631
298.615
297.569
296.491
295.384
294.248
293.084
291.891
290.67
289.421
288.144
286.839
285.507
284.147
282.759
281.343
279.9
278.428
276.928
275.4
273.843
272.257
270.641
268.994
267.314
265.601
263.855
262.074
260.26
258.409
256.52
254.589
252.614
250.597
248.537
246.431
244.275
242.067
239.808
237.496
235.128
232.702
230.215
227.663
225.043
222.357
219.601
216.764
213.854
210.869
207.783
204.614
201.354
197.972
194.506
190.928
187.23
183.413
179.467
175.401
171.209
166.875
162.435
157.94
153.59
149.776
146.99
145.419
144.74
144.501
144.427
144.407
144.402
144.4
144.4
144.4
144.4
144.4
144.4
144.4
144.4
144.4
144.4
144.4
144.4
144.4
144.4
144.4
144.4
144.4
144.4
317.39
317.704
317.98
318.217
318.413
318.569
318.681
318.756
318.779
318.766
318.714
318.616
318.475
318.29
318.062
317.79
317.476
317.119
316.72
316.279
315.798
315.275
314.713
314.113
313.474
312.797
312.085
311.338
310.556
309.741
308.893
308.015
307.105
306.166
305.197
304.198
303.17
302.114
301.03
299.918
298.78
297.615
296.425
295.209
293.968
292.702
291.411
290.096
288.757
287.393
286.004
284.59
283.151
281.688
280.199
278.686
277.146
275.58
273.988
272.367
270.717
269.039
267.33
265.591
263.821
262.017
260.179
258.304
256.39
254.439
252.447
250.413
248.334
246.209
244.038
241.817
239.546
237.22
234.839
232.398
229.897
227.333
224.702
222.002
219.233
216.387
213.458
210.452
207.35
204.154
200.874
197.476
193.982
190.38
186.654
182.808
178.835
174.737
170.53
166.202
161.782
157.337
153.065
149.367
146.725
145.282
144.682
144.48
144.421
144.405
144.401
144.4
144.4
144.4
144.4
144.4
144.4
144.4
144.4
144.4
144.4
144.4
144.4
144.4
144.4
144.4
144.4
323.157
323.382
323.569
323.714
323.817
323.882
323.895
323.876
323.815
323.709
323.56
323.369
323.134
322.857
322.537
322.175
321.771
321.327
320.841
320.316
319.751
319.148
318.507
317.829
317.115
316.366
315.584
314.769
313.922
313.044
312.137
311.201
310.237
309.245
308.227
307.182
306.111
305.014
303.893
302.747
301.577
300.384
299.168
297.929
296.668
295.386
294.081
292.755
291.408
290.039
288.648
287.235
285.801
284.344
282.865
281.364
279.84
278.292
276.72
275.124
273.502
271.854
270.18
268.478
266.749
264.989
263.198
261.374
259.517
257.625
255.697
253.73
251.724
249.676
247.586
245.452
243.271
241.042
238.762
236.428
234.039
231.592
229.085
226.515
223.88
221.174
218.395
215.54
212.599
209.578
206.469
203.26
199.963
196.551
193.034
189.41
185.664
181.797
177.808
173.693
169.48
165.176
160.804
156.448
152.318
148.823
146.407
145.136
144.626
144.46
144.414
144.403
144.4
144.4
144.4
144.4
144.4
144.4
144.4
144.4
144.4
144.4
144.4
144.4
144.4
144.4
144.4
144.4
144.4
328.39
328.521
328.613
328.665
328.666
328.638
328.563
328.446
328.287
328.084
327.839
327.552
327.223
326.852
326.439
325.986
325.492
324.959
324.386
323.776
323.128
322.443
321.723
320.968
320.18
319.359
318.507
317.625
316.714
315.774
314.807
313.814
312.796
311.753
310.686
309.595
308.482
307.345
306.187
305.007
303.806
302.585
301.343
300.082
298.801
297.502
296.183
294.846
293.49
292.115
290.721
289.309
287.877
286.425
284.954
283.463