/*--------------------------------*- C++ -*----------------------------------*\
| =========                 |                                                 |
| \\      /  F ield         | OpenFOAM: The Open Source CFD Toolbox           |
|  \\    /   O peration     | Version:  v1706                                 |
|   \\  /    A nd           | Web:      www.OpenFOAM.com                      |
|    \\/     M anipulation  |                                                 |
\*---------------------------------------------------------------------------*/
FoamFile
{
    version     2.0;
    format      ascii;
    class       volVectorField;
    location    "1e-05";
    object      U;
}
// * * * * * * * * * * * * * * * * * * * * * * * * * * * * * * * * * * * * * //

dimensions      [0 1 -1 0 0 0 0];


internalField   nonuniform List<vector> 
29871
(
(2764.5 -4.47239e-11 5.44463e-15)
(2764.5 -4.45693e-11 4.33164e-15)
(2764.5 -4.4136e-11 4.49127e-15)
(2764.5 -4.39896e-11 3.6484e-15)
(2764.5 -4.28006e-11 2.23798e-15)
(2764.5 -4.08803e-11 2.22655e-15)
(2764.5 -3.58526e-11 3.33249e-15)
(2764.5 -2.82912e-11 2.80519e-15)
(2764.5 -2.16568e-11 3.39566e-15)
(2764.5 -1.99322e-11 3.40998e-15)
(2764.5 -1.99506e-11 3.97907e-15)
(2764.5 -2.12712e-11 5.42665e-15)
(2764.5 -2.13573e-11 4.37956e-15)
(2764.5 -2.04528e-11 4.85803e-15)
(2764.5 -1.98471e-11 4.56704e-15)
(2764.5 -1.81092e-11 2.29724e-15)
(2764.5 -1.67984e-11 1.98476e-15)
(2764.5 -1.4638e-11 2.55669e-15)
(2764.5 -1.27084e-11 4.56579e-15)
(2764.5 -9.9613e-12 3.76162e-15)
(2764.5 -9.57696e-12 2.07164e-15)
(2764.5 -9.23508e-12 2.82467e-15)
(2764.5 -8.92882e-12 1.02372e-15)
(2764.5 -1.0297e-11 2.56508e-15)
(2764.5 -1.14158e-11 4.0947e-15)
(2764.5 -1.19659e-11 4.02306e-15)
(2764.5 -1.10635e-11 5.37916e-15)
(2764.5 -8.55732e-12 2.89462e-15)
(2764.5 -7.838e-12 1.73929e-15)
(2764.5 -8.37854e-12 3.30979e-15)
(2764.5 -1.1054e-11 3.37501e-15)
(2764.5 -1.49318e-11 1.86228e-15)
(2764.5 -1.88807e-11 2.75983e-15)
(2764.5 -2.30206e-11 6.12617e-15)
(2764.5 -2.82497e-11 3.65408e-15)
(2764.5 -3.2432e-11 1.23193e-15)
(2764.5 -3.97871e-11 -1.33715e-16)
(2764.5 -4.49632e-11 2.71605e-15)
(2764.5 -5.17045e-11 3.4457e-15)
(2764.5 -5.87703e-11 3.28709e-15)
(2764.5 -6.20811e-11 5.4984e-15)
(2764.5 -6.43104e-11 5.78545e-15)
(2764.5 -6.50873e-11 7.39514e-15)
(2764.5 -6.36935e-11 3.98302e-15)
(2764.5 -6.40262e-11 3.2107e-15)
(2764.5 -6.16203e-11 3.79674e-15)
(2764.5 -5.92677e-11 2.64079e-15)
(2764.5 -5.2488e-11 3.37295e-16)
(2764.5 -4.12583e-11 5.24883e-16)
(2764.5 -3.31422e-11 4.88521e-15)
(2764.5 -2.49862e-11 3.43706e-15)
(2764.5 -2.29754e-11 1.79939e-15)
(2764.5 -2.38627e-11 2.47932e-15)
(2764.5 -2.54013e-11 4.0297e-15)
(2764.5 -2.99371e-11 3.53792e-15)
(2764.5 -3.22102e-11 3.65189e-15)
(2764.5 -3.6151e-11 4.64001e-15)
(2764.5 -3.98797e-11 5.38395e-15)
(2764.5 -4.33198e-11 4.59066e-15)
(2764.5 -4.43342e-11 3.50761e-15)
(2764.5 -4.30636e-11 2.24757e-15)
(2764.5 -4.09746e-11 1.95007e-15)
(2764.5 -3.98165e-11 1.61364e-15)
(2764.5 -3.82546e-11 -1.36807e-15)
(2764.5 -3.67659e-11 3.52465e-15)
(2764.5 -3.51904e-11 5.39889e-15)
(2764.5 -3.46094e-11 4.23773e-15)
(2764.5 -3.50058e-11 2.57098e-15)
(2764.5 -3.69341e-11 1.68663e-15)
(2764.5 -3.90269e-11 2.27145e-15)
(2764.5 -4.18393e-11 2.83185e-15)
(2764.5 -4.382e-11 2.96772e-15)
(2764.5 -4.32635e-11 2.06853e-15)
(2764.5 -4.14439e-11 2.57961e-15)
(2764.5 -4.04773e-11 2.46271e-15)
(2764.5 -4.2864e-11 3.88182e-15)
(2764.5 -4.47838e-11 1.51168e-15)
(2764.5 -4.59805e-11 2.43909e-15)
(2764.5 -4.70472e-11 2.45384e-15)
(2764.5 -4.78312e-11 4.0586e-15)
(2764.5 -4.60355e-11 4.15174e-15)
(2764.5 -4.01959e-11 3.52528e-15)
(2764.5 -3.44703e-11 4.16402e-15)
(2764.5 -2.58627e-11 2.82291e-15)
(2764.5 -2.43736e-11 4.65382e-15)
(2764.5 -2.59532e-11 4.39722e-15)
(2764.5 -2.58566e-11 3.71971e-15)
(2764.5 -2.73664e-11 4.12694e-15)
(2764.5 -2.77461e-11 4.31255e-15)
(2764.5 -2.93476e-11 3.90476e-15)
(2764.5 -3.08907e-11 3.91559e-15)
(2764.5 -3.53743e-11 1.87979e-15)
(2764.5 -3.77747e-11 3.2976e-15)
(2764.5 -3.90856e-11 3.77219e-15)
(2764.5 -4.18128e-11 2.32051e-15)
(2764.5 -4.31929e-11 2.33379e-15)
(2764.5 -4.32849e-11 2.31181e-15)
(2764.5 -4.60846e-11 2.56497e-15)
(2764.5 -4.54858e-11 2.63137e-15)
(2764.5 -4.416e-11 2.94549e-15)
(2764.5 -4.33125e-11 3.95587e-15)
(2764.5 -4.0812e-11 4.0413e-15)
(2764.5 -3.67726e-11 1.55651e-15)
(2764.5 -3.60571e-11 1.84731e-15)
(2764.5 -3.63379e-11 6.64411e-16)
(2764.5 -1.03087e-10 9.56555e-15)
(2764.5 -1.05997e-10 9.50229e-15)
(2764.5 -1.08624e-10 1.1999e-14)
(2764.5 -1.10954e-10 1.30195e-14)
(2764.5 -1.21695e-10 1.09366e-14)
(2764.5 -1.33189e-10 1.34866e-14)
(2764.5 -1.45104e-10 1.32881e-14)
(2764.5 -1.60951e-10 1.15596e-14)
(2764.5 -1.65912e-10 1.23301e-14)
(2764.5 -1.69468e-10 1.34253e-14)
(2764.5 -1.71423e-10 1.32305e-14)
(2764.5 -1.71682e-10 1.26634e-14)
(2764.5 -1.79155e-10 1.649e-14)
(2764.5 -1.83873e-10 1.14368e-14)
(2764.5 -1.88777e-10 5.76744e-15)
(2764.5 -1.94564e-10 9.1065e-15)
(2764.5 -2.00785e-10 1.20381e-14)
(2764.5 -2.0426e-10 1.25356e-14)
(2764.5 -2.10814e-10 1.08955e-14)
(2764.5 -2.12383e-10 8.88731e-15)
(2764.5 -2.12535e-10 9.08833e-15)
(2764.5 -2.12333e-10 1.10346e-14)
(2764.5 -2.09851e-10 1.29798e-14)
(2764.5 -2.07611e-10 1.44157e-14)
(2764.5 -2.09144e-10 1.11308e-14)
(2764.5 -2.10454e-10 1.18058e-14)
(2764.5 -2.17737e-10 1.2843e-14)
(2764.5 -2.22816e-10 1.16713e-14)
(2764.5 -2.22438e-10 1.18606e-14)
(2764.5 -2.20442e-10 1.13366e-14)
(2764.5 -2.16697e-10 1.3886e-14)
(2764.5 -2.11754e-10 7.27583e-15)
(2764.5 -2.06775e-10 9.37911e-15)
(2764.5 -2.00876e-10 1.4722e-14)
(2764.5 -1.91765e-10 1.3305e-14)
(2764.5 -1.80076e-10 1.42183e-14)
(2764.5 -1.63869e-10 9.54162e-15)
(2764.5 -1.54238e-10 1.21978e-14)
(2764.5 -1.34895e-10 1.11546e-14)
(2764.5 -1.16404e-10 1.15803e-14)
(2764.5 -9.69301e-11 1.25667e-14)
(2764.5 -8.10083e-11 1.01837e-14)
(2764.5 -6.82655e-11 1.10161e-14)
(2764.5 -5.88678e-11 1.00568e-14)
(2764.5 -5.33701e-11 9.67583e-15)
(2764.5 -5.52583e-11 1.02076e-14)
(2764.5 -6.28924e-11 1.12746e-14)
(2764.5 -7.83149e-11 7.61003e-15)
(2764.5 -9.97678e-11 9.99343e-15)
(2764.5 -1.22833e-10 9.71838e-15)
(2764.5 -1.44727e-10 6.93459e-15)
(2764.5 -1.47577e-10 9.58044e-15)
(2764.5 -1.47299e-10 1.139e-14)
(2764.5 -1.45154e-10 9.38823e-15)
(2764.5 -1.37306e-10 9.90497e-15)
(2764.5 -1.28773e-10 9.49713e-15)
(2764.5 -1.17865e-10 1.15547e-14)
(2764.5 -1.02861e-10 1.21001e-14)
(2764.5 -9.60101e-11 6.14252e-15)
(2764.5 -9.81824e-11 6.4504e-15)
(2764.5 -1.03312e-10 8.77831e-15)
(2764.5 -1.07851e-10 7.10204e-15)
(2764.5 -1.10608e-10 7.34379e-15)
(2764.5 -1.18535e-10 6.6182e-15)
(2764.5 -1.21488e-10 9.27126e-15)
(2764.5 -1.21014e-10 7.70139e-15)
(2764.5 -1.19435e-10 6.33488e-15)
(2764.5 -1.12089e-10 9.37606e-15)
(2764.5 -1.09771e-10 1.12737e-14)
(2764.5 -1.03438e-10 6.7977e-15)
(2764.5 -1.0223e-10 1.13592e-14)
(2764.5 -1.0306e-10 7.49275e-15)
(2764.5 -1.10564e-10 5.9892e-15)
(2764.5 -1.15751e-10 8.83937e-15)
(2764.5 -1.13254e-10 6.80414e-15)
(2764.5 -1.10195e-10 7.48994e-15)
(2764.5 -1.09207e-10 7.8177e-15)
(2764.5 -1.06969e-10 7.23375e-15)
(2764.5 -1.09286e-10 8.61111e-15)
(2764.5 -1.10998e-10 1.10412e-14)
(2764.5 -1.18327e-10 9.473e-15)
(2764.5 -1.23096e-10 8.63811e-15)
(2764.5 -1.26172e-10 9.09895e-15)
(2764.5 -1.27982e-10 1.00127e-14)
(2764.5 -1.23088e-10 1.07023e-14)
(2764.5 -1.18978e-10 1.0302e-14)
(2764.5 -1.14966e-10 1.09496e-14)
(2764.5 -1.10124e-10 1.01258e-14)
(2764.5 -1.09815e-10 1.06996e-14)
(2764.5 -1.04395e-10 1.06484e-14)
(2764.5 -1.06445e-10 8.71906e-15)
(2764.5 -1.00725e-10 7.13823e-15)
(2764.5 -1.02211e-10 1.15518e-14)
(2764.5 -1.02926e-10 1.01396e-14)
(2764.5 -1.00226e-10 9.08868e-15)
(2764.5 -1.03123e-10 7.6271e-15)
(2764.5 -1.04745e-10 9.17905e-15)
(2764.5 -1.05145e-10 9.92337e-15)
(2764.5 -1.1539e-10 7.77231e-15)
(2764.5 -1.16945e-10 6.46423e-15)
(2764.5 -1.18645e-10 8.10443e-15)
(2764.5 -1.21495e-10 8.93527e-15)
(2764.5 -1.22006e-10 7.54122e-15)
(2764.5 -1.17156e-10 8.06656e-15)
(2764.5 -1.14264e-10 5.02432e-15)
(2764.5 -2.27646e-10 2.35975e-14)
(2764.5 -2.20718e-10 2.53956e-14)
(2764.5 -2.0408e-10 1.61381e-14)
(2764.5 -1.86471e-10 1.92831e-14)
(2764.5 -1.68405e-10 2.40614e-14)
(2764.5 -1.43789e-10 1.88765e-14)
(2764.5 -1.24736e-10 1.92994e-14)
(2764.5 -1.14686e-10 1.73229e-14)
(2764.5 -1.07166e-10 2.08762e-14)
(2764.5 -1.00025e-10 2.10082e-14)
(2764.5 -9.03367e-11 1.848e-14)
(2764.5 -8.32564e-11 1.51296e-14)
(2764.5 -7.46921e-11 1.29257e-14)
(2764.5 -6.97277e-11 1.49317e-14)
(2764.5 -6.46987e-11 1.58677e-14)
(2764.5 -6.21369e-11 1.75092e-14)
(2764.5 -6.30202e-11 1.6272e-14)
(2764.5 -6.24464e-11 1.78968e-14)
(2764.5 -6.21506e-11 1.62098e-14)
(2764.5 -6.36323e-11 1.7127e-14)
(2764.5 -6.88129e-11 1.58143e-14)
(2764.5 -6.86018e-11 1.43678e-14)
(2764.5 -6.73838e-11 1.56152e-14)
(2764.5 -6.64764e-11 2.20411e-14)
(2764.5 -5.79291e-11 1.25265e-14)
(2764.5 -4.77083e-11 1.65662e-14)
(2764.5 -3.58255e-11 1.87927e-14)
(2764.5 -3.45121e-11 1.73732e-14)
(2764.5 -3.55539e-11 1.68494e-14)
(2764.5 -3.60947e-11 1.73982e-14)
(2764.5 -3.79018e-11 1.66554e-14)
(2764.5 -3.71994e-11 1.76453e-14)
(2764.5 -3.92178e-11 1.64315e-14)
(2764.5 -4.08427e-11 1.69966e-14)
(2764.5 -4.74855e-11 1.74962e-14)
(2764.5 -5.85771e-11 1.75221e-14)
(2764.5 -7.72747e-11 1.79416e-14)
(2764.5 -9.60214e-11 1.74656e-14)
(2764.5 -1.15267e-10 1.69225e-14)
(2764.5 -1.3252e-10 1.84396e-14)
(2764.5 -1.69446e-10 1.96345e-14)
(2764.5 -1.98257e-10 1.64522e-14)
(2764.5 -2.3113e-10 1.67825e-14)
(2764.5 -2.61317e-10 1.60757e-14)
(2764.5 -2.82376e-10 1.72608e-14)
(2764.5 -2.87549e-10 1.71543e-14)
(2764.5 -2.86054e-10 1.85706e-14)
(2764.5 -2.81236e-10 1.85365e-14)
(2764.5 -2.65914e-10 1.63428e-14)
(2764.5 -2.42741e-10 1.5678e-14)
(2764.5 -2.21402e-10 1.25422e-14)
(2764.5 -1.94806e-10 1.70842e-14)
(2764.5 -1.73351e-10 1.4294e-14)
(2764.5 -1.60727e-10 1.25112e-14)
(2764.5 -1.54434e-10 1.43501e-14)
(2764.5 -1.55888e-10 1.66081e-14)
(2764.5 -1.64745e-10 1.42247e-14)
(2764.5 -1.81244e-10 1.81326e-14)
(2764.5 -1.97764e-10 1.96396e-14)
(2764.5 -2.05617e-10 1.51196e-14)
(2764.5 -2.05799e-10 1.63307e-14)
(2764.5 -2.06129e-10 1.28517e-14)
(2764.5 -1.96491e-10 1.45073e-14)
(2764.5 -1.87979e-10 2.14049e-14)
(2764.5 -1.8107e-10 1.3324e-14)
(2764.5 -1.80139e-10 1.39948e-14)
(2764.5 -1.83397e-10 1.44583e-14)
(2764.5 -1.91204e-10 1.46836e-14)
(2764.5 -1.98855e-10 1.52522e-14)
(2764.5 -2.02801e-10 1.54488e-14)
(2764.5 -2.01522e-10 1.49708e-14)
(2764.5 -1.98469e-10 1.72368e-14)
(2764.5 -1.92152e-10 1.31782e-14)
(2764.5 -1.84515e-10 1.37393e-14)
(2764.5 -1.83148e-10 1.43355e-14)
(2764.5 -1.86454e-10 1.27177e-14)
(2764.5 -1.87338e-10 1.56759e-14)
(2764.5 -1.86496e-10 1.60599e-14)
(2764.5 -1.85659e-10 1.40551e-14)
(2764.5 -1.84001e-10 1.41223e-14)
(2764.5 -1.8157e-10 1.60807e-14)
(2764.5 -1.81228e-10 1.51883e-14)
(2764.5 -1.85034e-10 1.598e-14)
(2764.5 -1.90268e-10 1.45214e-14)
(2764.5 -1.94438e-10 1.72539e-14)
(2764.5 -1.95477e-10 1.84506e-14)
(2764.5 -1.97431e-10 1.44857e-14)
(2764.5 -1.97085e-10 1.47949e-14)
(2764.5 -1.96314e-10 1.59939e-14)
(2764.5 -1.96587e-10 1.45374e-14)
(2764.5 -1.91639e-10 1.55226e-14)
(2764.5 -1.90358e-10 1.67288e-14)
(2764.5 -1.85814e-10 1.50717e-14)
(2764.5 -1.82654e-10 1.67316e-14)
(2764.5 -1.8098e-10 1.48856e-14)
(2764.5 -1.81865e-10 1.6059e-14)
(2764.5 -1.7577e-10 1.15539e-14)
(2764.5 -1.76734e-10 1.57782e-14)
(2764.5 -1.70594e-10 1.48357e-14)
(2764.5 -1.7136e-10 1.31206e-14)
(2764.5 -1.79996e-10 1.33586e-14)
(2764.5 -1.85742e-10 1.52863e-14)
(2764.5 -1.91838e-10 1.38535e-14)
(2764.5 -1.97214e-10 1.30659e-14)
(2764.5 -1.96695e-10 1.37334e-14)
(2764.5 -1.95467e-10 1.19646e-14)
(2764.5 -2.96302e-10 2.90439e-14)
(2764.5 -3.33808e-10 3.66429e-14)
(2764.5 -3.58127e-10 2.84762e-14)
(2764.5 -3.85939e-10 2.88335e-14)
(2764.5 -4.10786e-10 3.01347e-14)
(2764.5 -4.26259e-10 2.75673e-14)
(2764.5 -4.48769e-10 3.11122e-14)
(2764.5 -4.56772e-10 3.12776e-14)
(2764.5 -4.73325e-10 2.5955e-14)
(2764.5 -4.81803e-10 2.54098e-14)
(2764.5 -4.84367e-10 2.74145e-14)
(2764.5 -4.88343e-10 2.65348e-14)
(2764.5 -4.86007e-10 2.60917e-14)
(2764.5 -4.76195e-10 2.52292e-14)
(2764.5 -4.64818e-10 2.67357e-14)
(2764.5 -4.51271e-10 2.31186e-14)
(2764.5 -4.36322e-10 2.22634e-14)
(2764.5 -4.1959e-10 2.31572e-14)
(2764.5 -4.06525e-10 2.32299e-14)
(2764.5 -3.9743e-10 2.40459e-14)
(2764.5 -3.95497e-10 2.23406e-14)
(2764.5 -3.97669e-10 2.53707e-14)
(2764.5 -4.02556e-10 2.61874e-14)
(2764.5 -4.16471e-10 2.51862e-14)
(2764.5 -4.31645e-10 2.42952e-14)
(2764.5 -4.50661e-10 2.39943e-14)
(2764.5 -4.63264e-10 2.73766e-14)
(2764.5 -4.75423e-10 2.62628e-14)
(2764.5 -4.89726e-10 2.06059e-14)
(2764.5 -5.02403e-10 2.49138e-14)
(2764.5 -5.14042e-10 2.40787e-14)
(2764.5 -5.18559e-10 2.55744e-14)
(2764.5 -5.22882e-10 2.38744e-14)
(2764.5 -5.13693e-10 2.72339e-14)
(2764.5 -5.06974e-10 2.71936e-14)
(2764.5 -4.94134e-10 2.6073e-14)
(2764.5 -4.76298e-10 2.74821e-14)
(2764.5 -4.50161e-10 2.53595e-14)
(2764.5 -4.25203e-10 2.57706e-14)
(2764.5 -3.89931e-10 2.33693e-14)
(2764.5 -3.5879e-10 2.46689e-14)
(2764.5 -3.28582e-10 2.7684e-14)
(2764.5 -2.78708e-10 2.39177e-14)
(2764.5 -2.12051e-10 2.49415e-14)
(2764.5 -1.59431e-10 2.67374e-14)
(2764.5 -1.37812e-10 2.31016e-14)
(2764.5 -1.36618e-10 2.251e-14)
(2764.5 -1.43855e-10 2.28969e-14)
(2764.5 -1.6516e-10 2.70446e-14)
(2764.5 -1.98075e-10 2.44872e-14)
(2764.5 -2.27606e-10 2.1831e-14)
(2764.5 -2.78913e-10 2.23468e-14)
(2764.5 -3.24998e-10 2.35981e-14)
(2764.5 -3.56714e-10 2.37404e-14)
(2764.5 -3.5842e-10 2.10029e-14)
(2764.5 -3.52711e-10 2.09985e-14)
(2764.5 -3.34844e-10 2.30136e-14)
(2764.5 -3.0249e-10 2.42783e-14)
(2764.5 -2.65126e-10 2.17859e-14)
(2764.5 -2.44793e-10 2.19685e-14)
(2764.5 -2.35918e-10 2.47385e-14)
(2764.5 -2.34622e-10 2.13359e-14)
(2764.5 -2.45501e-10 2.0149e-14)
(2764.5 -2.53181e-10 2.08497e-14)
(2764.5 -2.61377e-10 2.01589e-14)
(2764.5 -2.64901e-10 2.12084e-14)
(2764.5 -2.6775e-10 2.1831e-14)
(2764.5 -2.62382e-10 2.09141e-14)
(2764.5 -2.6025e-10 2.09678e-14)
(2764.5 -2.60869e-10 1.99558e-14)
(2764.5 -2.66098e-10 2.13914e-14)
(2764.5 -2.70037e-10 2.12146e-14)
(2764.5 -2.71555e-10 2.09006e-14)
(2764.5 -2.7081e-10 2.18165e-14)
(2764.5 -2.67328e-10 1.90633e-14)
(2764.5 -2.66758e-10 1.90655e-14)
(2764.5 -2.71151e-10 2.02014e-14)
(2764.5 -2.71905e-10 2.11969e-14)
(2764.5 -2.74103e-10 1.96995e-14)
(2764.5 -2.73399e-10 2.51515e-14)
(2764.5 -2.7356e-10 2.35623e-14)
(2764.5 -2.73678e-10 1.98386e-14)
(2764.5 -2.73333e-10 1.92782e-14)
(2764.5 -2.74287e-10 1.93482e-14)
(2764.5 -2.74089e-10 2.28944e-14)
(2764.5 -2.77724e-10 1.63165e-14)
(2764.5 -2.80211e-10 1.92995e-14)
(2764.5 -2.80776e-10 2.19219e-14)
(2764.5 -2.80551e-10 2.05352e-14)
(2764.5 -2.80654e-10 1.91921e-14)
(2764.5 -2.80667e-10 2.01828e-14)
(2764.5 -2.77029e-10 2.05072e-14)
(2764.5 -2.76622e-10 2.12427e-14)
(2764.5 -2.69301e-10 2.28802e-14)
(2764.5 -2.66893e-10 1.83505e-14)
(2764.5 -2.67094e-10 1.87316e-14)
(2764.5 -2.66844e-10 2.13416e-14)
(2764.5 -2.61824e-10 2.56429e-14)
(2764.5 -2.57063e-10 1.94654e-14)
(2764.5 -2.49911e-10 2.10092e-14)
(2764.5 -2.46408e-10 2.23412e-14)
(2764.5 -2.45558e-10 2.12249e-14)
(2764.5 -2.53363e-10 2.03828e-14)
(2764.5 -2.57309e-10 2.4095e-14)
(2764.5 -2.6671e-10 1.84544e-14)
(2764.5 -2.65318e-10 1.77638e-14)
(2764.5 -2.56154e-10 3.4758e-14)
(2764.5 -1.93136e-10 3.54411e-14)
(2764.5 -1.38589e-10 3.39657e-14)
(2764.5 -8.59673e-11 3.27832e-14)
(2764.5 -4.93415e-11 3.69308e-14)
(2764.5 -2.07432e-11 3.27847e-14)
(2764.5 2.29111e-11 3.00768e-14)
(2764.5 5.21051e-11 3.53625e-14)
(2764.5 6.22681e-11 3.65074e-14)
(2764.5 5.65761e-11 3.72683e-14)
(2764.5 3.57841e-11 3.51812e-14)
(2764.5 -7.77819e-12 3.40722e-14)
(2764.5 -6.30423e-11 3.51868e-14)
(2764.5 -1.22295e-10 3.33121e-14)
(2764.5 -1.72818e-10 2.95612e-14)
(2764.5 -2.31229e-10 3.84507e-14)
(2764.5 -2.65006e-10 3.48352e-14)
(2764.5 -2.97836e-10 3.56078e-14)
(2764.5 -3.24433e-10 3.83658e-14)
(2764.5 -3.48318e-10 3.47653e-14)
(2764.5 -3.61071e-10 3.40594e-14)
(2764.5 -3.66667e-10 3.24241e-14)
(2764.5 -3.63708e-10 3.49703e-14)
(2764.5 -3.48164e-10 3.79126e-14)
(2764.5 -3.28411e-10 3.47108e-14)
(2764.5 -3.13617e-10 3.35997e-14)
(2764.5 -2.78554e-10 3.41401e-14)
(2764.5 -2.23653e-10 3.01201e-14)
(2764.5 -1.5709e-10 2.77276e-14)
(2764.5 -8.09386e-11 3.07491e-14)
(2764.5 1.91537e-12 3.15499e-14)
(2764.5 5.6979e-11 3.13438e-14)
(2764.5 8.33753e-11 3.1498e-14)
(2764.5 1.046e-10 3.12442e-14)
(2764.5 1.19991e-10 3.16731e-14)
(2764.5 1.33254e-10 3.08847e-14)
(2764.5 1.31587e-10 3.29139e-14)
(2764.5 1.1537e-10 3.35181e-14)
(2764.5 8.28926e-11 2.90466e-14)
(2764.5 5.23406e-11 2.87917e-14)
(2764.5 -3.89625e-12 3.23068e-14)
(2764.5 -8.77629e-11 3.29217e-14)
(2764.5 -1.82707e-10 3.12999e-14)
(2764.5 -2.51801e-10 2.97415e-14)
(2764.5 -3.56257e-10 3.24021e-14)
(2764.5 -4.84748e-10 3.30767e-14)
(2764.5 -5.75792e-10 3.29155e-14)
(2764.5 -5.92397e-10 3.20907e-14)
(2764.5 -5.90332e-10 3.08441e-14)
(2764.5 -5.72171e-10 3.12019e-14)
(2764.5 -5.29584e-10 2.97711e-14)
(2764.5 -4.81933e-10 2.84144e-14)
(2764.5 -4.03014e-10 2.72946e-14)
(2764.5 -3.10487e-10 3.21108e-14)
(2764.5 -2.54374e-10 3.08294e-14)
(2764.5 -2.45443e-10 2.87637e-14)
(2764.5 -2.547e-10 2.87958e-14)
(2764.5 -2.80278e-10 2.97025e-14)
(2764.5 -3.14771e-10 3.09859e-14)
(2764.5 -3.59423e-10 2.88799e-14)
(2764.5 -4.00772e-10 2.66217e-14)
(2764.5 -4.15693e-10 2.91618e-14)
(2764.5 -4.13977e-10 2.7924e-14)
(2764.5 -4.00614e-10 2.69676e-14)
(2764.5 -3.61617e-10 2.92235e-14)
(2764.5 -3.34201e-10 2.92265e-14)
(2764.5 -3.1598e-10 2.4495e-14)
(2764.5 -3.09864e-10 2.54518e-14)
(2764.5 -3.16906e-10 2.46222e-14)
(2764.5 -3.27301e-10 2.67466e-14)
(2764.5 -3.3814e-10 2.778e-14)
(2764.5 -3.43529e-10 2.51181e-14)
(2764.5 -3.46025e-10 2.89126e-14)
(2764.5 -3.46211e-10 2.85227e-14)
(2764.5 -3.47585e-10 2.66146e-14)
(2764.5 -3.48507e-10 2.72126e-14)
(2764.5 -3.44768e-10 2.69544e-14)
(2764.5 -3.40458e-10 2.63832e-14)
(2764.5 -3.39973e-10 2.77109e-14)
(2764.5 -3.40988e-10 2.73876e-14)
(2764.5 -3.44753e-10 2.94831e-14)
(2764.5 -3.41836e-10 2.94734e-14)
(2764.5 -3.43645e-10 2.79475e-14)
(2764.5 -3.46622e-10 2.39118e-14)
(2764.5 -3.5127e-10 2.59451e-14)
(2764.5 -3.50198e-10 2.80906e-14)
(2764.5 -3.48832e-10 2.76043e-14)
(2764.5 -3.49221e-10 2.70463e-14)
(2764.5 -3.49363e-10 2.79644e-14)
(2764.5 -3.47731e-10 2.63211e-14)
(2764.5 -3.45223e-10 2.5753e-14)
(2764.5 -3.44553e-10 2.84828e-14)
(2764.5 -3.41146e-10 2.62146e-14)
(2764.5 -3.43213e-10 2.6562e-14)
(2764.5 -3.47023e-10 2.77366e-14)
(2764.5 -3.44169e-10 2.43186e-14)
(2764.5 -3.43072e-10 2.60165e-14)
(2764.5 -3.4213e-10 2.88239e-14)
(2764.5 -3.4314e-10 2.48108e-14)
(2764.5 -3.37971e-10 2.55759e-14)
(2764.5 -3.32659e-10 2.9782e-14)
(2764.5 -3.2662e-10 2.39211e-14)
(2764.5 -3.21806e-10 2.46974e-14)
(2764.5 -3.23064e-10 2.7371e-14)
(2764.5 -3.21912e-10 2.80641e-14)
(2764.5 -3.27679e-10 2.44221e-14)
(2764.5 -3.36262e-10 2.74709e-14)
(2764.5 -7.20632e-10 4.81975e-14)
(2764.5 -7.83601e-10 4.48127e-14)
(2764.5 -8.41994e-10 4.64576e-14)
(2764.5 -8.93385e-10 4.26422e-14)
(2764.5 -9.5111e-10 4.38806e-14)
(2764.5 -9.95125e-10 4.35199e-14)
(2764.5 -1.00972e-09 4.43692e-14)
(2764.5 -9.99641e-10 4.40463e-14)
(2764.5 -9.57733e-10 4.62459e-14)
(2764.5 -8.74118e-10 4.69754e-14)
(2764.5 -6.78034e-10 4.49226e-14)
(2764.5 -3.94525e-10 4.67565e-14)
(2764.5 -1.39276e-10 4.75232e-14)
(2764.5 3.1478e-11 4.43919e-14)
(2764.5 1.82207e-10 4.73788e-14)
(2764.5 2.78195e-10 4.70909e-14)
(2764.5 3.57138e-10 4.36035e-14)
(2764.5 4.25658e-10 4.36692e-14)
(2764.5 4.73035e-10 4.48486e-14)
(2764.5 5.01191e-10 4.46787e-14)
(2764.5 5.19609e-10 4.38678e-14)
(2764.5 5.28451e-10 4.43552e-14)
(2764.5 5.25858e-10 4.68233e-14)
(2764.5 5.12557e-10 4.49157e-14)
(2764.5 4.80069e-10 3.99295e-14)
(2764.5 4.26566e-10 4.09425e-14)
(2764.5 3.51642e-10 4.1298e-14)
(2764.5 2.60765e-10 4.04898e-14)
(2764.5 1.09834e-10 4.22967e-14)
(2764.5 -1.1525e-10 4.1704e-14)
(2764.5 -4.42861e-10 4.20478e-14)
(2764.5 -7.92031e-10 4.11683e-14)
(2764.5 -9.10952e-10 4.16813e-14)
(2764.5 -1.00119e-09 4.0101e-14)
(2764.5 -1.09923e-09 4.1877e-14)
(2764.5 -1.15172e-09 4.14442e-14)
(2764.5 -1.17272e-09 4.00752e-14)
(2764.5 -1.14649e-09 3.76383e-14)
(2764.5 -1.08804e-09 3.4823e-14)
(2764.5 -1.00678e-09 3.91104e-14)
(2764.5 -9.24225e-10 3.8564e-14)
(2764.5 -8.36214e-10 3.77115e-14)
(2764.5 -7.3885e-10 3.85449e-14)
(2764.5 -6.23613e-10 3.67199e-14)
(2764.5 -5.43684e-10 3.88896e-14)
(2764.5 -3.31591e-10 3.92972e-14)
(2764.5 -8.78974e-11 3.72633e-14)
(2764.5 1.02667e-11 3.7036e-14)
(2764.5 1.26351e-11 3.69097e-14)
(2764.5 -2.1736e-11 3.8142e-14)
(2764.5 -9.95027e-11 3.89637e-14)
(2764.5 -2.22211e-10 3.37694e-14)
(2764.5 -3.57408e-10 3.49213e-14)
(2764.5 -4.67475e-10 3.82083e-14)
(2764.5 -5.81055e-10 4.23417e-14)
(2764.5 -6.35756e-10 4.13577e-14)
(2764.5 -6.3746e-10 4.0321e-14)
(2764.5 -6.12602e-10 3.68237e-14)
(2764.5 -5.47336e-10 3.40015e-14)
(2764.5 -4.63714e-10 3.53502e-14)
(2764.5 -3.81006e-10 3.5597e-14)
(2764.5 -3.50496e-10 3.34942e-14)
(2764.5 -3.54343e-10 3.38429e-14)
(2764.5 -3.799e-10 3.7634e-14)
(2764.5 -4.26879e-10 3.16976e-14)
(2764.5 -4.67748e-10 3.04412e-14)
(2764.5 -4.79711e-10 3.98541e-14)
(2764.5 -4.70016e-10 3.61137e-14)
(2764.5 -4.49843e-10 3.21393e-14)
(2764.5 -4.17568e-10 3.48548e-14)
(2764.5 -3.94529e-10 3.55374e-14)
(2764.5 -3.90539e-10 3.15491e-14)
(2764.5 -3.9727e-10 3.13572e-14)
(2764.5 -4.0643e-10 3.3483e-14)
(2764.5 -4.21008e-10 3.34094e-14)
(2764.5 -4.23402e-10 3.2558e-14)
(2764.5 -4.2764e-10 3.36013e-14)
(2764.5 -4.25821e-10 3.55443e-14)
(2764.5 -4.26235e-10 3.4865e-14)
(2764.5 -4.25287e-10 3.30138e-14)
(2764.5 -4.25767e-10 2.98357e-14)
(2764.5 -4.2383e-10 3.25692e-14)
(2764.5 -4.19049e-10 3.57178e-14)
(2764.5 -4.13128e-10 3.54701e-14)
(2764.5 -4.15473e-10 3.41633e-14)
(2764.5 -4.20302e-10 3.22327e-14)
(2764.5 -4.19569e-10 3.27325e-14)
(2764.5 -4.19751e-10 3.39974e-14)
(2764.5 -4.23713e-10 3.56258e-14)
(2764.5 -4.24651e-10 3.21872e-14)
(2764.5 -4.26077e-10 3.25362e-14)
(2764.5 -4.28267e-10 3.26774e-14)
(2764.5 -4.22516e-10 3.03625e-14)
(2764.5 -4.17263e-10 3.31578e-14)
(2764.5 -4.10449e-10 3.32468e-14)
(2764.5 -4.0921e-10 3.03289e-14)
(2764.5 -4.10256e-10 2.90101e-14)
(2764.5 -4.09794e-10 3.25779e-14)
(2764.5 -4.12625e-10 3.13932e-14)
(2764.5 -4.15742e-10 3.01707e-14)
(2764.5 -4.09576e-10 3.34423e-14)
(2764.5 -4.08944e-10 3.16152e-14)
(2764.5 -4.02518e-10 3.47901e-14)
(2764.5 -3.99949e-10 3.25865e-14)
(2764.5 -3.94072e-10 3.12019e-14)
(2764.5 -3.93032e-10 2.85118e-14)
(2764.5 -3.99708e-10 3.30214e-14)
(2764.5 7.75684e-10 5.57525e-14)
(2764.5 9.94011e-10 5.58064e-14)
(2764.5 1.21831e-09 5.79897e-14)
(2764.5 1.45997e-09 5.36488e-14)
(2764.5 1.71829e-09 5.38057e-14)
(2764.5 1.99606e-09 5.36512e-14)
(2764.5 2.29355e-09 5.44609e-14)
(2764.5 2.59596e-09 5.94821e-14)
(2764.5 2.90594e-09 5.62456e-14)
(2764.5 3.25382e-09 5.59485e-14)
(2764.5 3.49561e-09 5.26799e-14)
(2764.5 3.67737e-09 5.29716e-14)
(2764.5 3.80231e-09 5.77834e-14)
(2764.5 3.84138e-09 5.5293e-14)
(2764.5 3.79401e-09 5.19825e-14)
(2764.5 3.87881e-09 5.19544e-14)
(2764.5 4.05266e-09 5.18997e-14)
(2764.5 4.26128e-09 5.2619e-14)
(2764.5 4.49517e-09 5.30629e-14)
(2764.5 4.70687e-09 5.24407e-14)
(2764.5 4.91019e-09 5.06167e-14)
(2764.5 5.08502e-09 5.12002e-14)
(2764.5 5.21661e-09 5.08306e-14)
(2764.5 5.2846e-09 4.93364e-14)
(2764.5 5.30585e-09 4.99811e-14)
(2764.5 5.28891e-09 5.209e-14)
(2764.5 5.23038e-09 5.16367e-14)
(2764.5 5.10561e-09 5.04054e-14)
(2764.5 4.92543e-09 5.09641e-14)
(2764.5 4.71448e-09 5.00593e-14)
(2764.5 4.49571e-09 4.87342e-14)
(2764.5 4.30293e-09 4.86635e-14)
(2764.5 4.22624e-09 5.05322e-14)
(2764.5 4.30121e-09 5.31001e-14)
(2764.5 4.32886e-09 5.12256e-14)
(2764.5 4.07627e-09 4.92245e-14)
(2764.5 3.77584e-09 4.66834e-14)
(2764.5 3.47075e-09 4.85003e-14)
(2764.5 3.13477e-09 4.85051e-14)
(2764.5 2.76849e-09 4.92388e-14)
(2764.5 2.39359e-09 4.93187e-14)
(2764.5 2.02623e-09 5.00485e-14)
(2764.5 1.70206e-09 4.79885e-14)
(2764.5 1.4053e-09 4.7534e-14)
(2764.5 1.11964e-09 4.98345e-14)
(2764.5 8.33206e-10 4.98895e-14)
(2764.5 5.31911e-10 4.86302e-14)
(2764.5 3.09752e-10 4.90129e-14)
(2764.5 -2.29512e-10 5.00805e-14)
(2764.5 -9.14788e-10 4.8646e-14)
(2764.5 -1.22398e-09 4.44709e-14)
(2764.5 -1.26373e-09 4.39598e-14)
(2764.5 -1.19709e-09 4.41585e-14)
(2764.5 -1.05786e-09 4.41485e-14)
(2764.5 -8.47155e-10 4.748e-14)
(2764.5 -7.10769e-10 4.23042e-14)
(2764.5 -5.82219e-10 3.87712e-14)
(2764.5 -2.70342e-10 4.6327e-14)
(2764.5 -1.28148e-10 4.41521e-14)
(2764.5 -1.37737e-10 4.18543e-14)
(2764.5 -2.09206e-10 4.20073e-14)
(2764.5 -3.15937e-10 4.56927e-14)
(2764.5 -4.31792e-10 4.11938e-14)
(2764.5 -5.92637e-10 4.12845e-14)
(2764.5 -6.69588e-10 4.12894e-14)
(2764.5 -6.71253e-10 4.04928e-14)
(2764.5 -6.57612e-10 4.40078e-14)
(2764.5 -6.04152e-10 4.23516e-14)
(2764.5 -5.10065e-10 4.21399e-14)
(2764.5 -4.71257e-10 4.3106e-14)
(2764.5 -4.7046e-10 4.08932e-14)
(2764.5 -4.90056e-10 4.11847e-14)
(2764.5 -5.12864e-10 3.91965e-14)
(2764.5 -5.20764e-10 3.88345e-14)
(2764.5 -5.17727e-10 4.07849e-14)
(2764.5 -5.07079e-10 4.00414e-14)
(2764.5 -4.88096e-10 3.91836e-14)
(2764.5 -4.81266e-10 4.05272e-14)
(2764.5 -4.84384e-10 3.75973e-14)
(2764.5 -4.87647e-10 3.83972e-14)
(2764.5 -5.02523e-10 3.81439e-14)
(2764.5 -5.09578e-10 3.86281e-14)
(2764.5 -5.08898e-10 3.73934e-14)
(2764.5 -5.0959e-10 3.75393e-14)
(2764.5 -5.08332e-10 3.99193e-14)
(2764.5 -5.0499e-10 3.99819e-14)
(2764.5 -4.98999e-10 4.02612e-14)
(2764.5 -4.97978e-10 4.07328e-14)
(2764.5 -5.0412e-10 3.84183e-14)
(2764.5 -5.00459e-10 3.72623e-14)
(2764.5 -4.96425e-10 3.68075e-14)
(2764.5 -5.00837e-10 3.88102e-14)
(2764.5 -5.02179e-10 3.97994e-14)
(2764.5 -5.02341e-10 3.65201e-14)
(2764.5 -5.06493e-10 3.50867e-14)
(2764.5 -5.07595e-10 4.15701e-14)
(2764.5 -5.0972e-10 3.81635e-14)
(2764.5 -5.09075e-10 3.99802e-14)
(2764.5 -5.05951e-10 3.9544e-14)
(2764.5 -5.09005e-10 3.80257e-14)
(2764.5 -5.05035e-10 3.77171e-14)
(2764.5 -4.99951e-10 3.55548e-14)
(2764.5 -5.00996e-10 4.03928e-14)
(2764.5 -4.97047e-10 3.5017e-14)
(2764.5 -4.94446e-10 3.91112e-14)
(2764.5 -4.90808e-10 3.9846e-14)
(2764.5 -4.88629e-10 3.78867e-14)
(2764.5 -4.78751e-10 3.8289e-14)
(2764.5 -4.73989e-10 3.49988e-14)
(2764.5 -4.76499e-10 3.73918e-14)
(2764.5 6.89534e-09 6.1272e-14)
(2764.5 7.98113e-09 6.25481e-14)
(2764.5 9.14876e-09 6.3733e-14)
(2764.5 1.04028e-08 6.0369e-14)
(2764.5 1.17432e-08 6.25882e-14)
(2764.5 1.31912e-08 6.32606e-14)
(2764.5 1.47585e-08 6.38239e-14)
(2764.5 1.64319e-08 6.21473e-14)
(2764.5 1.81929e-08 6.38826e-14)
(2764.5 2.00157e-08 6.41866e-14)
(2764.5 2.19808e-08 6.12281e-14)
(2764.5 2.39865e-08 6.31684e-14)
(2764.5 2.59784e-08 6.45781e-14)
(2764.5 2.79476e-08 6.15099e-14)
(2764.5 2.97667e-08 5.69034e-14)
(2764.5 3.1449e-08 5.88237e-14)
(2764.5 3.30094e-08 6.36506e-14)
(2764.5 3.44155e-08 6.23872e-14)
(2764.5 3.56641e-08 6.2084e-14)
(2764.5 3.67541e-08 5.8166e-14)
(2764.5 3.7685e-08 5.88768e-14)
(2764.5 3.84482e-08 5.88688e-14)
(2764.5 3.90289e-08 6.02758e-14)
(2764.5 3.93426e-08 6.21225e-14)
(2764.5 3.93574e-08 5.86929e-14)
(2764.5 3.9186e-08 5.80625e-14)
(2764.5 3.87868e-08 6.04778e-14)
(2764.5 3.81311e-08 6.10832e-14)
(2764.5 3.72652e-08 5.90031e-14)
(2764.5 3.622e-08 5.48271e-14)
(2764.5 3.49812e-08 5.28105e-14)
(2764.5 3.34867e-08 5.80829e-14)
(2764.5 3.16828e-08 5.87779e-14)
(2764.5 2.95428e-08 5.43228e-14)
(2764.5 2.72436e-08 5.38378e-14)
(2764.5 2.50434e-08 5.71076e-14)
(2764.5 2.2884e-08 5.54065e-14)
(2764.5 2.06991e-08 5.60584e-14)
(2764.5 1.85391e-08 5.45035e-14)
(2764.5 1.646e-08 5.743e-14)
(2764.5 1.44545e-08 5.66329e-14)
(2764.5 1.2541e-08 5.56867e-14)
(2764.5 1.07932e-08 5.44847e-14)
(2764.5 9.30094e-09 5.59098e-14)
(2764.5 7.9988e-09 5.54312e-14)
(2764.5 6.68106e-09 5.49239e-14)
(2764.5 5.41437e-09 5.63827e-14)
(2764.5 4.55788e-09 5.66205e-14)
(2764.5 4.27106e-09 5.41578e-14)
(2764.5 3.79111e-09 5.47295e-14)
(2764.5 2.99544e-09 5.3575e-14)
(2764.5 2.37392e-09 5.66631e-14)
(2764.5 1.8458e-09 5.2836e-14)
(2764.5 1.29348e-09 5.54328e-14)
(2764.5 7.74432e-10 5.6166e-14)
(2764.5 3.97219e-10 5.2433e-14)
(2764.5 -4.75093e-11 5.51626e-14)
(2764.5 -8.88584e-10 4.97281e-14)
(2764.5 -1.24379e-09 5.11902e-14)
(2764.5 -1.23184e-09 5.16944e-14)
(2764.5 -1.1057e-09 4.96368e-14)
(2764.5 -8.87568e-10 5.08427e-14)
(2764.5 -7.30212e-10 5.00679e-14)
(2764.5 -4.40853e-10 4.82778e-14)
(2764.5 -2.70289e-10 4.57425e-14)
(2764.5 -2.69546e-10 4.86336e-14)
(2764.5 -3.4485e-10 5.24734e-14)
(2764.5 -4.74029e-10 4.46614e-14)
(2764.5 -6.40638e-10 4.97116e-14)
(2764.5 -7.34538e-10 5.18179e-14)
(2764.5 -7.41441e-10 4.93987e-14)
(2764.5 -7.20603e-10 4.69667e-14)
(2764.5 -6.53954e-10 4.69063e-14)
(2764.5 -5.71705e-10 4.9308e-14)
(2764.5 -5.55351e-10 4.7105e-14)
(2764.5 -5.57846e-10 4.54963e-14)
(2764.5 -5.80058e-10 4.8056e-14)
(2764.5 -5.92834e-10 4.66188e-14)
(2764.5 -5.8197e-10 4.60671e-14)
(2764.5 -5.65362e-10 4.43842e-14)
(2764.5 -5.58927e-10 4.37184e-14)
(2764.5 -5.58704e-10 4.06667e-14)
(2764.5 -5.68437e-10 4.54411e-14)
(2764.5 -5.82745e-10 4.4373e-14)
(2764.5 -5.86503e-10 4.46523e-14)
(2764.5 -5.94093e-10 4.67801e-14)
(2764.5 -5.93409e-10 4.61783e-14)
(2764.5 -5.88999e-10 4.17574e-14)
(2764.5 -5.87963e-10 4.17416e-14)
(2764.5 -5.92632e-10 4.02707e-14)
(2764.5 -5.85133e-10 4.54711e-14)
(2764.5 -5.79247e-10 4.25631e-14)
(2764.5 -5.82176e-10 4.55983e-14)
(2764.5 -5.80901e-10 4.40257e-14)
(2764.5 -5.81229e-10 4.43505e-14)
(2764.5 -5.82386e-10 4.5097e-14)
(2764.5 -5.83051e-10 4.35164e-14)
(2764.5 -5.83946e-10 4.39811e-14)
(2764.5 -5.83807e-10 4.18011e-14)
(2764.5 -5.81518e-10 4.47732e-14)
(2764.5 -5.90017e-10 4.58215e-14)
(2764.5 -5.87434e-10 4.69717e-14)
(2764.5 -5.7028e-10 4.53101e-14)
(2764.5 -5.65396e-10 4.12443e-14)
(2764.5 -5.6671e-10 4.39992e-14)
(2764.5 -5.66438e-10 4.24157e-14)
(2764.5 -5.63668e-10 4.30993e-14)
(2764.5 -5.62067e-10 4.27052e-14)
(2764.5 -5.54341e-10 4.23643e-14)
(2764.5 -5.48993e-10 4.05478e-14)
(2764.5 5.28972e-08 7.33442e-14)
(2764.5 6.04828e-08 7.09704e-14)
(2764.5 6.885e-08 7.04545e-14)
(2764.5 7.79676e-08 7.10215e-14)
(2764.5 8.78447e-08 7.29811e-14)
(2764.5 9.85365e-08 7.05219e-14)
(2764.5 1.10071e-07 6.92966e-14)
(2764.5 1.22454e-07 7.19379e-14)
(2764.5 1.35705e-07 7.44038e-14)
(2764.5 1.49821e-07 7.2406e-14)
(2764.5 1.64819e-07 7.19984e-14)