/*--------------------------------*- C++ -*----------------------------------*\
| =========                 |                                                 |
| \\      /  F ield         | OpenFOAM: The Open Source CFD Toolbox           |
|  \\    /   O peration     | Version:  v1706                                 |
|   \\  /    A nd           | Web:      www.OpenFOAM.com                      |
|    \\/     M anipulation  |                                                 |
\*---------------------------------------------------------------------------*/
FoamFile
{
    version     2.0;
    format      ascii;
    class       volScalarField;
    location    "1e-05";
    object      wallHeatFlux;
}
// * * * * * * * * * * * * * * * * * * * * * * * * * * * * * * * * * * * * * //

dimensions      [1 0 -3 0 0 0 0];


internalField   uniform 0;

boundaryField
{
    cone
    {
        type            calculated;
        value           nonuniform List<scalar> 
181
(
10683.8
9965.9
9391.17
8934.28
8577.83
8308.07
8111.63
7978.91
7902.58
7876.74
7896.59
7958.26
8059.24
8197.7
8371.92
8581.02
8824.67
9102.85
9415.95
9764.69
10150.1
10573.3
11036.1
11540
12087.2
12680
13320.9
14012.6
14758.3
15561.4
16425.5
17354.7
18353.3
19426.1
20578.4
21815.7
23144.2
24570.5
26101.9
27745.9
29511.1
31406.3
33440.9
35625.2
37969.5
40484.9
43182.6
46073.5
49168.5
52477.3
56007.8
59765.3
63750.7
67959
72376.4
76977.3
81720.8
86545.3
91364.7
96064.3
100500
104503
107881
110445
112007
112424
111649
109723
106790
103075
98853.8
94422.5
90046.5
85924
82176.6
78857.9
75969.4
73478.4
71333.9
69478.1
67855.1
66414.7
65115.4
63924.4
62817.4
61777.1
60791.9
59854.8
58961.7
58110.8
57301.4
56533.6
55808
55124.8
54484.7
53887.7
53334.2
52824
52357
51933.1
51551.2
51210.6
50911.3
50652.2
50432.6
50251.8
50109.3
50004.6
49937.6
49908.4
49917.4
49965
50052.1
50179.6
50348.7
50560.7
50817.2
51119.8
51470.3
51870.8
52323
52828.6
53389.3
54006.1
54680.4
55412.8
56204.2
57055.1
57966
58937
59968
61058.3
62206.5
63410.8
64668.3
65975.3
67326.8
68716.6
70137
71578.5
73030.1
74479
75911
77310.7
78662.2
79949.4
81157
82270.9
83279.9
84175.8
84955.4
85620.8
86180.3
86648.4
87044.3
87389.6
87704.9
88010.8
88328.2
88675.6
89068.1
89517.6
90031.9
90615.8
91270.9
91996.7
92791
93650.7
94571.8
95550.4
96582.6
97665.3
98795.6
99971.7
101192
102456
103763
105113
106507
107945
109427
)
;
    }
    inlet
    {
        type            calculated;
        value           uniform 0;
    }
    rWedge
    {
        type            wedge;
    }
    lWedge
    {
        type            wedge;
    }
    outlet
    {
        type            calculated;
        value           nonuniform 0();
    }
    procBoundary1to0
    {
        type            processor;
        value           uniform 0;
    }
    procBoundary1to2
    {
        type            processor;
        value           uniform 0;
    }
}


// ************************************************************************* //
