/*--------------------------------*- C++ -*----------------------------------*\
| =========                 |                                                 |
| \\      /  F ield         | OpenFOAM: The Open Source CFD Toolbox           |
|  \\    /   O peration     | Version:  v1706                                 |
|   \\  /    A nd           | Web:      www.OpenFOAM.com                      |
|    \\/     M anipulation  |                                                 |
\*---------------------------------------------------------------------------*/
FoamFile
{
    version     2.0;
    format      ascii;
    class       volVectorField;
    location    "7e-06";
    object      U;
}
// * * * * * * * * * * * * * * * * * * * * * * * * * * * * * * * * * * * * * //

dimensions      [0 1 -1 0 0 0 0];


internalField   nonuniform List<vector> 
29987
(
(2764.5 -2.08838e-08 4.07697e-11)
(2764.5 -6.56059e-09 1.19916e-11)
(2764.5 -3.1593e-09 5.81053e-12)
(2764.5 -1.95705e-09 3.49381e-12)
(2764.5 -1.337e-09 2.32899e-12)
(2764.5 -9.66832e-10 1.69262e-12)
(2764.5 -7.3071e-10 1.27897e-12)
(2764.5 -5.71726e-10 1.01085e-12)
(2764.5 -4.62232e-10 7.99541e-13)
(2764.5 -3.80244e-10 6.95219e-13)
(2764.5 -3.19054e-10 5.18416e-13)
(2764.5 -2.72543e-10 4.52241e-13)
(2764.5 -2.36887e-10 4.24726e-13)
(2764.5 -2.04902e-10 3.50105e-13)
(2764.5 -1.85275e-10 3.10303e-13)
(2764.5 -1.66615e-10 2.62482e-13)
(2764.5 -1.4731e-10 2.22255e-13)
(2764.5 -1.31272e-10 1.94112e-13)
(2764.5 -1.18708e-10 1.86327e-13)
(2764.5 -1.12164e-10 1.73901e-13)
(2764.5 -1.01803e-10 1.6781e-13)
(2764.5 -9.66239e-11 1.40907e-13)
(2764.5 -8.68722e-11 1.33009e-13)
(2764.5 -8.15578e-11 1.13243e-13)
(2764.5 -7.47309e-11 1.1858e-13)
(2764.5 -7.48553e-11 1.14656e-13)
(2764.5 -6.53624e-11 9.14736e-14)
(2764.5 -6.5725e-11 7.92834e-14)
(2764.5 -6.03195e-11 8.74837e-14)
(2764.5 -5.98315e-11 7.95319e-14)
(2764.5 -5.35133e-11 8.78897e-14)
(2764.5 -5.26129e-11 7.52883e-14)
(2764.5 -4.92176e-11 6.51985e-14)
(2764.5 -4.94908e-11 6.11126e-14)
(2764.5 -4.72659e-11 6.32095e-14)
(2764.5 -4.59961e-11 5.61466e-14)
(2764.5 -4.57633e-11 5.45203e-14)
(2764.5 -3.84165e-11 4.22421e-14)
(2764.5 -4.0056e-11 4.05183e-14)
(2764.5 -4.10592e-11 4.84858e-14)
(2764.5 -3.78109e-11 3.80701e-14)
(2764.5 -3.62529e-11 3.89683e-14)
(2764.5 -3.7936e-11 4.48017e-14)
(2764.5 -3.56315e-11 3.86547e-14)
(2764.5 -3.48659e-11 3.62819e-14)
(2764.5 -3.23341e-11 3.03027e-14)
(2764.5 -3.45879e-11 4.441e-14)
(2764.5 -3.34915e-11 3.18909e-14)
(2764.5 -3.13623e-11 3.00339e-14)
(2764.5 -3.18917e-11 3.34818e-14)
(2764.5 -2.97617e-11 3.19088e-14)
(2764.5 -3.00458e-11 2.92891e-14)
(2764.5 -2.91474e-11 2.78907e-14)
(2764.5 -3.02054e-11 2.73314e-14)
(2764.5 -2.9091e-11 2.85927e-14)
(2764.5 -2.83537e-11 2.25951e-14)
(2764.5 -2.76571e-11 1.88002e-14)
(2764.5 -2.90135e-11 1.85501e-14)
(2764.5 -2.98162e-11 2.03498e-14)
(2764.5 -2.86185e-11 2.50966e-14)
(2764.5 -2.95948e-11 2.54986e-14)
(2764.5 -2.6165e-11 1.28801e-14)
(2764.5 -2.6151e-11 1.81945e-14)
(2764.5 -2.59674e-11 2.15414e-14)
(2764.5 -2.39537e-11 1.76381e-14)
(2764.5 -2.4836e-11 1.38531e-14)
(2764.5 -2.5236e-11 1.428e-14)
(2764.5 -2.53348e-11 1.708e-14)
(2764.5 -2.61376e-11 2.09663e-14)
(2764.5 -2.58618e-11 1.80088e-14)
(2764.5 -2.65645e-11 1.40614e-14)
(2764.5 -2.52643e-11 1.52197e-14)
(2764.5 -2.56452e-11 1.56559e-14)
(2764.5 -2.34463e-11 1.48898e-14)
(2764.5 -2.22189e-11 1.64846e-14)
(2764.5 -2.49452e-11 1.5001e-14)
(2764.5 -2.44044e-11 1.40845e-14)
(2764.5 -2.63746e-11 1.61559e-14)
(2764.5 -2.60849e-11 1.09199e-14)
(2764.5 -2.44897e-11 7.10307e-15)
(2764.5 -2.3443e-11 1.14804e-14)
(2764.5 -2.48307e-11 1.24948e-14)
(2764.5 -2.40392e-11 9.49168e-15)
(2764.5 -2.37004e-11 1.01753e-14)
(2764.5 -2.40786e-11 1.07786e-14)
(2764.5 -2.31988e-11 9.62649e-15)
(2764.5 -2.45338e-11 9.76645e-15)
(2764.5 -2.5335e-11 9.90503e-15)
(2764.5 -2.39917e-11 1.24397e-14)
(2764.5 -2.49522e-11 8.76519e-15)
(2764.5 -2.51672e-11 6.99998e-15)
(2764.5 -2.47934e-11 7.16909e-15)
(2764.5 -2.23829e-11 1.0637e-14)
(2764.5 -2.42034e-11 1.26559e-14)
(2764.5 -2.50453e-11 1.25407e-14)
(2764.5 -2.55681e-11 1.14608e-14)
(2764.5 -2.36314e-11 7.93601e-15)
(2764.5 -2.22148e-11 1.16678e-14)
(2764.5 -2.3556e-11 1.20123e-14)
(2764.5 -2.31542e-11 8.39481e-15)
(2764.5 -2.39842e-11 7.28098e-15)
(2764.5 -2.44308e-11 1.27579e-14)
(2764.5 -2.39359e-11 1.39108e-14)
(2764.5 -2.21834e-11 1.04999e-14)
(2764.5 -2.28864e-11 1.04601e-14)
(2764.5 -2.53102e-11 8.45202e-15)
(2764.5 -2.64378e-11 6.48826e-15)
(2764.5 -2.68547e-11 6.76415e-15)
(2764.5 -2.47932e-11 9.4233e-15)
(2764.5 -2.17612e-11 6.83214e-15)
(2764.5 -2.29151e-11 7.34685e-15)
(2764.5 -2.40465e-11 7.13899e-15)
(2764.5 -2.41028e-11 9.25723e-15)
(2764.5 -2.4797e-11 7.28873e-15)
(2764.5 -2.6047e-11 1.01192e-14)
(2764.5 -2.50689e-11 6.50284e-15)
(2764.5 -2.50763e-11 7.94762e-15)
(2764.5 -2.44896e-11 1.20067e-14)
(2764.5 -2.5161e-11 1.13576e-14)
(2764.5 -2.70474e-11 5.82271e-15)
(2764.5 -2.87826e-11 6.67388e-15)
(2764.5 -2.96956e-11 8.58671e-15)
(2764.5 -3.05062e-11 6.9567e-15)
(2764.5 -3.14077e-11 8.43214e-15)
(2764.5 -3.10427e-11 9.04115e-15)
(2764.5 -3.00301e-11 8.26241e-15)
(2764.5 -2.854e-11 9.08194e-15)
(2764.5 -3.03937e-11 8.0467e-15)
(2764.5 -3.22811e-11 9.12683e-15)
(2764.5 -3.34928e-11 6.17176e-15)
(2764.5 -3.31501e-11 1.06631e-14)
(2764.5 -3.34445e-11 1.19508e-14)
(2764.5 -3.3888e-11 8.01205e-15)
(2764.5 -3.27774e-11 4.93655e-15)
(2764.5 -3.12249e-11 6.25803e-15)
(2764.5 -3.17602e-11 5.39469e-15)
(2764.5 -2.97989e-11 7.73591e-15)
(2764.5 -2.91891e-11 8.43334e-15)
(2764.5 -2.63223e-11 6.56343e-15)
(2764.5 -2.7199e-11 8.14308e-15)
(2764.5 -2.91989e-11 4.63897e-15)
(2764.5 -3.25396e-11 3.52042e-17)
(2764.5 -3.79792e-11 1.0126e-14)
(2764.5 -3.8812e-11 2.92309e-15)
(2764.5 -3.88382e-11 7.68918e-15)
(2764.5 -3.43356e-11 7.85387e-15)
(2764.5 -3.16352e-11 9.88801e-15)
(2764.5 -3.01454e-11 8.95581e-15)
(2764.5 -3.30082e-11 5.70237e-15)
(2764.5 -3.70453e-11 6.56753e-15)
(2764.5 -3.94495e-11 4.30288e-15)
(2764.5 -3.94454e-11 4.4047e-15)
(2764.5 -4.47033e-11 3.50578e-15)
(2764.5 -4.29961e-11 8.79616e-15)
(2764.5 -3.67336e-11 5.8699e-15)
(2764.5 -3.86551e-11 7.15455e-15)
(2764.5 -6.6959e-08 1.17777e-10)
(2764.5 -2.47832e-08 4.14781e-11)
(2764.5 -1.13542e-08 1.87823e-11)
(2764.5 -6.60958e-09 1.11322e-11)
(2764.5 -4.39033e-09 7.39313e-12)
(2764.5 -3.14298e-09 5.31616e-12)
(2764.5 -2.36814e-09 3.98282e-12)
(2764.5 -1.85417e-09 3.09044e-12)
(2764.5 -1.49992e-09 2.48877e-12)
(2764.5 -1.23178e-09 2.03262e-12)
(2764.5 -1.03513e-09 1.59727e-12)
(2764.5 -8.80592e-10 1.41327e-12)
(2764.5 -7.5242e-10 1.18596e-12)
(2764.5 -6.5533e-10 1.04611e-12)
(2764.5 -5.89927e-10 8.94044e-13)
(2764.5 -5.27059e-10 8.21669e-13)
(2764.5 -4.70861e-10 7.01584e-13)
(2764.5 -4.27595e-10 6.32727e-13)
(2764.5 -3.84898e-10 5.82564e-13)
(2764.5 -3.56023e-10 5.22663e-13)
(2764.5 -3.20311e-10 4.84949e-13)
(2764.5 -3.09596e-10 4.16761e-13)
(2764.5 -2.82879e-10 3.95698e-13)
(2764.5 -2.56411e-10 3.51335e-13)
(2764.5 -2.38222e-10 3.50068e-13)
(2764.5 -2.30639e-10 3.33636e-13)
(2764.5 -2.17117e-10 2.93109e-13)
(2764.5 -2.06796e-10 2.66557e-13)
(2764.5 -1.90893e-10 2.68935e-13)
(2764.5 -1.80739e-10 2.50605e-13)
(2764.5 -1.73488e-10 2.2184e-13)
(2764.5 -1.66719e-10 2.16193e-13)
(2764.5 -1.57067e-10 1.79172e-13)
(2764.5 -1.57105e-10 1.64458e-13)
(2764.5 -1.46003e-10 1.72804e-13)
(2764.5 -1.39147e-10 1.701e-13)
(2764.5 -1.39291e-10 1.53859e-13)
(2764.5 -1.31136e-10 1.52382e-13)
(2764.5 -1.27865e-10 1.40061e-13)
(2764.5 -1.27915e-10 1.30575e-13)
(2764.5 -1.18125e-10 1.14803e-13)
(2764.5 -1.14526e-10 1.18875e-13)
(2764.5 -1.13912e-10 1.27696e-13)
(2764.5 -1.13794e-10 1.10627e-13)
(2764.5 -1.07354e-10 8.6899e-14)
(2764.5 -1.00015e-10 1.08188e-13)
(2764.5 -1.00074e-10 1.10633e-13)
(2764.5 -9.94081e-11 8.94026e-14)
(2764.5 -9.63629e-11 8.93484e-14)
(2764.5 -1.00169e-10 9.41794e-14)
(2764.5 -9.54994e-11 9.40897e-14)
(2764.5 -8.99966e-11 8.10899e-14)
(2764.5 -8.66982e-11 8.09951e-14)
(2764.5 -9.08037e-11 6.50637e-14)
(2764.5 -8.91713e-11 7.00174e-14)
(2764.5 -8.46121e-11 6.5126e-14)
(2764.5 -8.58793e-11 6.18063e-14)
(2764.5 -8.10925e-11 6.18477e-14)
(2764.5 -8.3481e-11 7.29393e-14)
(2764.5 -8.78615e-11 7.37634e-14)
(2764.5 -8.76457e-11 6.26347e-14)
(2764.5 -8.69136e-11 4.5115e-14)
(2764.5 -8.27592e-11 6.233e-14)
(2764.5 -7.84896e-11 5.60909e-14)
(2764.5 -7.93771e-11 5.1523e-14)
(2764.5 -7.77364e-11 5.11283e-14)
(2764.5 -7.82937e-11 4.39208e-14)
(2764.5 -7.51638e-11 5.15129e-14)
(2764.5 -7.80076e-11 5.55497e-14)
(2764.5 -7.53929e-11 4.58231e-14)
(2764.5 -7.52851e-11 4.58919e-14)
(2764.5 -7.53059e-11 5.04269e-14)
(2764.5 -8.12624e-11 4.54889e-14)
(2764.5 -7.84922e-11 4.28927e-14)
(2764.5 -6.97874e-11 4.74954e-14)
(2764.5 -6.94097e-11 5.05629e-14)
(2764.5 -7.03843e-11 4.48882e-14)
(2764.5 -6.69795e-11 4.57796e-14)
(2764.5 -7.51188e-11 3.03604e-14)
(2764.5 -7.49833e-11 2.87567e-14)
(2764.5 -7.31433e-11 3.49576e-14)
(2764.5 -7.01522e-11 3.3902e-14)
(2764.5 -7.31753e-11 2.97807e-14)
(2764.5 -7.32355e-11 3.62914e-14)
(2764.5 -6.99319e-11 4.35427e-14)
(2764.5 -6.85042e-11 4.20174e-14)
(2764.5 -6.86906e-11 3.44204e-14)
(2764.5 -7.36887e-11 3.90274e-14)
(2764.5 -6.92047e-11 3.59034e-14)
(2764.5 -6.93373e-11 2.87395e-14)
(2764.5 -7.10859e-11 3.28251e-14)
(2764.5 -7.57314e-11 2.76643e-14)
(2764.5 -7.19952e-11 3.28019e-14)
(2764.5 -6.76481e-11 3.35894e-14)
(2764.5 -7.03866e-11 3.81035e-14)
(2764.5 -7.38338e-11 3.233e-14)
(2764.5 -7.39891e-11 2.6138e-14)
(2764.5 -7.08013e-11 2.87773e-14)
(2764.5 -7.0728e-11 2.6365e-14)
(2764.5 -6.9356e-11 2.59085e-14)
(2764.5 -7.11343e-11 2.6116e-14)
(2764.5 -7.27953e-11 2.7643e-14)
(2764.5 -7.393e-11 3.13987e-14)
(2764.5 -7.23563e-11 1.92654e-14)
(2764.5 -6.7727e-11 2.05505e-14)
(2764.5 -6.74802e-11 1.99391e-14)
(2764.5 -7.07994e-11 2.22999e-14)
(2764.5 -7.537e-11 2.2256e-14)
(2764.5 -8.10387e-11 1.86495e-14)
(2764.5 -7.6771e-11 1.90534e-14)
(2764.5 -7.40967e-11 2.31837e-14)
(2764.5 -7.44844e-11 2.25961e-14)
(2764.5 -7.42847e-11 2.13082e-14)
(2764.5 -7.32094e-11 2.29006e-14)
(2764.5 -7.66215e-11 2.69387e-14)
(2764.5 -7.84073e-11 2.49767e-14)
(2764.5 -8.02807e-11 2.67287e-14)
(2764.5 -7.91117e-11 2.65852e-14)
(2764.5 -7.70417e-11 2.22476e-14)
(2764.5 -7.5102e-11 1.71373e-14)
(2764.5 -7.54286e-11 1.97019e-14)
(2764.5 -7.72441e-11 2.04873e-14)
(2764.5 -7.83479e-11 2.11874e-14)
(2764.5 -8.04109e-11 2.30293e-14)
(2764.5 -8.3033e-11 2.41529e-14)
(2764.5 -8.41348e-11 2.23818e-14)
(2764.5 -8.2772e-11 2.21668e-14)
(2764.5 -7.98099e-11 2.09338e-14)
(2764.5 -8.07973e-11 2.07055e-14)
(2764.5 -8.29526e-11 2.39934e-14)
(2764.5 -8.33245e-11 2.83109e-14)
(2764.5 -8.70132e-11 1.77378e-14)
(2764.5 -8.98287e-11 1.77447e-14)
(2764.5 -9.19963e-11 1.93287e-14)
(2764.5 -9.01296e-11 1.89632e-14)
(2764.5 -9.18572e-11 2.0653e-14)
(2764.5 -9.21587e-11 1.94714e-14)
(2764.5 -9.08329e-11 1.92575e-14)
(2764.5 -9.22007e-11 2.10475e-14)
(2764.5 -8.64564e-11 2.08303e-14)
(2764.5 -8.40129e-11 1.55381e-14)
(2764.5 -8.36135e-11 1.9242e-14)
(2764.5 -8.86263e-11 1.77059e-14)
(2764.5 -8.81188e-11 2.572e-14)
(2764.5 -9.4846e-11 1.69021e-14)
(2764.5 -1.03954e-10 2.24711e-14)
(2764.5 -1.03149e-10 1.74345e-14)
(2764.5 -1.05627e-10 2.20791e-14)
(2764.5 -1.02136e-10 2.89985e-14)
(2764.5 -9.54223e-11 2.26957e-14)
(2764.5 -9.95129e-11 1.77444e-14)
(2764.5 -9.84638e-11 1.17128e-14)
(2764.5 -1.04385e-10 1.37593e-14)
(2764.5 -1.14477e-10 1.89007e-14)
(2764.5 -1.15014e-10 1.75182e-14)
(2764.5 -1.1485e-10 1.77384e-14)
(2764.5 -1.06279e-07 1.8213e-10)
(2764.5 -4.53324e-08 7.33621e-11)
(2764.5 -2.12532e-08 3.34543e-11)
(2764.5 -1.20392e-08 1.92071e-11)
(2764.5 -7.84027e-09 1.2513e-11)
(2764.5 -5.56375e-09 8.8398e-12)
(2764.5 -4.17855e-09 6.68253e-12)
(2764.5 -3.26683e-09 5.14265e-12)
(2764.5 -2.62546e-09 4.15105e-12)
(2764.5 -2.15355e-09 3.35336e-12)
(2764.5 -1.80985e-09 2.78869e-12)
(2764.5 -1.54053e-09 2.40305e-12)
(2764.5 -1.31615e-09 2.02279e-12)
(2764.5 -1.14759e-09 1.74829e-12)
(2764.5 -1.03057e-09 1.53339e-12)
(2764.5 -9.17616e-10 1.36588e-12)
(2764.5 -8.18628e-10 1.18037e-12)
(2764.5 -7.384e-10 1.07766e-12)
(2764.5 -6.72899e-10 9.67844e-13)
(2764.5 -6.22022e-10 8.97262e-13)
(2764.5 -5.65973e-10 8.00112e-13)
(2764.5 -5.29014e-10 6.94733e-13)
(2764.5 -4.92507e-10 6.71011e-13)
(2764.5 -4.5105e-10 6.01313e-13)
(2764.5 -4.18017e-10 5.95139e-13)
(2764.5 -3.96405e-10 5.55012e-13)
(2764.5 -3.75466e-10 5.24648e-13)
(2764.5 -3.53034e-10 4.7062e-13)
(2764.5 -3.29156e-10 4.24355e-13)
(2764.5 -3.14624e-10 4.09472e-13)
(2764.5 -3.03897e-10 3.61919e-13)
(2764.5 -2.87034e-10 3.72333e-13)
(2764.5 -2.69975e-10 3.13907e-13)
(2764.5 -2.65795e-10 3.15383e-13)
(2764.5 -2.53545e-10 3.13548e-13)
(2764.5 -2.40503e-10 2.74606e-13)
(2764.5 -2.33423e-10 2.51061e-13)
(2764.5 -2.27058e-10 2.63365e-13)
(2764.5 -2.18226e-10 2.53932e-13)
(2764.5 -2.15281e-10 2.23137e-13)
(2764.5 -2.07693e-10 2.13748e-13)
(2764.5 -1.97836e-10 2.08937e-13)
(2764.5 -1.97335e-10 2.11695e-13)
(2764.5 -1.89863e-10 1.95246e-13)
(2764.5 -1.83927e-10 1.66542e-13)
(2764.5 -1.77482e-10 1.78859e-13)
(2764.5 -1.718e-10 1.68715e-13)
(2764.5 -1.66872e-10 1.63712e-13)
(2764.5 -1.67261e-10 1.57828e-13)
(2764.5 -1.69644e-10 1.69167e-13)
(2764.5 -1.65831e-10 1.54906e-13)
(2764.5 -1.55829e-10 1.43877e-13)
(2764.5 -1.49753e-10 1.33216e-13)
(2764.5 -1.48929e-10 1.2922e-13)
(2764.5 -1.51906e-10 1.25775e-13)
(2764.5 -1.44865e-10 1.23174e-13)
(2764.5 -1.37642e-10 1.12427e-13)
(2764.5 -1.357e-10 1.05675e-13)
(2764.5 -1.38879e-10 1.23637e-13)
(2764.5 -1.43616e-10 1.14766e-13)
(2764.5 -1.40141e-10 1.07807e-13)
(2764.5 -1.40772e-10 1.09851e-13)
(2764.5 -1.42236e-10 1.02085e-13)
(2764.5 -1.37059e-10 8.33955e-14)
(2764.5 -1.34793e-10 9.38656e-14)
(2764.5 -1.27979e-10 8.92068e-14)
(2764.5 -1.31914e-10 7.90787e-14)
(2764.5 -1.32787e-10 9.18225e-14)
(2764.5 -1.25849e-10 8.09245e-14)
(2764.5 -1.28175e-10 7.7242e-14)
(2764.5 -1.2597e-10 7.97088e-14)
(2764.5 -1.22484e-10 8.21728e-14)
(2764.5 -1.2974e-10 7.28545e-14)
(2764.5 -1.2976e-10 7.44724e-14)
(2764.5 -1.27174e-10 8.02849e-14)
(2764.5 -1.2254e-10 8.1546e-14)
(2764.5 -1.22834e-10 6.9132e-14)
(2764.5 -1.1643e-10 6.95068e-14)
(2764.5 -1.19538e-10 6.95907e-14)
(2764.5 -1.2186e-10 6.53095e-14)
(2764.5 -1.22198e-10 6.26537e-14)
(2764.5 -1.16126e-10 5.7712e-14)
(2764.5 -1.22899e-10 5.41529e-14)
(2764.5 -1.24541e-10 5.43582e-14)
(2764.5 -1.21163e-10 5.69754e-14)
(2764.5 -1.19756e-10 5.51566e-14)
(2764.5 -1.15255e-10 5.80622e-14)
(2764.5 -1.19893e-10 6.61574e-14)
(2764.5 -1.19161e-10 5.87491e-14)
(2764.5 -1.17222e-10 5.77861e-14)
(2764.5 -1.14933e-10 5.20255e-14)
(2764.5 -1.1954e-10 4.93753e-14)
(2764.5 -1.21885e-10 5.75839e-14)
(2764.5 -1.16989e-10 6.1442e-14)
(2764.5 -1.18431e-10 6.35177e-14)
(2764.5 -1.20424e-10 4.71199e-14)
(2764.5 -1.20992e-10 4.02211e-14)
(2764.5 -1.18794e-10 4.41866e-14)
(2764.5 -1.19398e-10 4.67862e-14)
(2764.5 -1.15231e-10 4.77484e-14)
(2764.5 -1.1817e-10 4.13327e-14)
(2764.5 -1.19968e-10 4.63058e-14)
(2764.5 -1.23777e-10 4.77361e-14)
(2764.5 -1.25493e-10 4.14687e-14)
(2764.5 -1.21089e-10 4.8011e-14)
(2764.5 -1.17618e-10 4.34544e-14)
(2764.5 -1.15238e-10 3.94106e-14)
(2764.5 -1.18553e-10 3.65531e-14)
(2764.5 -1.26648e-10 3.69981e-14)
(2764.5 -1.28888e-10 4.19295e-14)
(2764.5 -1.28917e-10 3.71489e-14)
(2764.5 -1.26935e-10 3.60642e-14)
(2764.5 -1.24567e-10 3.56295e-14)
(2764.5 -1.21334e-10 3.92206e-14)
(2764.5 -1.24239e-10 3.77825e-14)
(2764.5 -1.27104e-10 4.37351e-14)
(2764.5 -1.29065e-10 4.52164e-14)
(2764.5 -1.30084e-10 4.56118e-14)
(2764.5 -1.29952e-10 3.83208e-14)
(2764.5 -1.28823e-10 3.70932e-14)
(2764.5 -1.25459e-10 3.77121e-14)
(2764.5 -1.26639e-10 3.73139e-14)
(2764.5 -1.2817e-10 3.57862e-14)
(2764.5 -1.29559e-10 3.35064e-14)
(2764.5 -1.32223e-10 3.33169e-14)
(2764.5 -1.36308e-10 3.42813e-14)
(2764.5 -1.36935e-10 3.35931e-14)
(2764.5 -1.35951e-10 3.38984e-14)
(2764.5 -1.35792e-10 3.92789e-14)
(2764.5 -1.36009e-10 3.83818e-14)
(2764.5 -1.35433e-10 3.57895e-14)
(2764.5 -1.37819e-10 3.88116e-14)
(2764.5 -1.40975e-10 4.01057e-14)
(2764.5 -1.43224e-10 3.29206e-14)
(2764.5 -1.46813e-10 3.39782e-14)
(2764.5 -1.47538e-10 2.83598e-14)
(2764.5 -1.4932e-10 3.10254e-14)
(2764.5 -1.52165e-10 2.3443e-14)
(2764.5 -1.54313e-10 4.27377e-14)
(2764.5 -1.47025e-10 3.2919e-14)
(2764.5 -1.45355e-10 3.01002e-14)
(2764.5 -1.4582e-10 2.87529e-14)
(2764.5 -1.45959e-10 3.01101e-14)
(2764.5 -1.48447e-10 2.87542e-14)
(2764.5 -1.47451e-10 3.395e-14)
(2764.5 -1.51505e-10 3.26648e-14)
(2764.5 -1.6059e-10 2.92023e-14)
(2764.5 -1.64335e-10 2.9725e-14)
(2764.5 -1.71298e-10 3.83077e-14)
(2764.5 -1.68145e-10 3.22941e-14)
(2764.5 -1.66638e-10 3.17686e-14)
(2764.5 -1.60905e-10 2.89489e-14)
(2764.5 -1.63723e-10 2.97974e-14)
(2764.5 -1.70439e-10 2.62332e-14)
(2764.5 -1.79284e-10 3.32347e-14)
(2764.5 -1.80155e-10 3.30354e-14)
(2764.5 -1.37728e-07 2.33364e-10)
(2764.5 -6.63899e-08 1.05109e-10)
(2764.5 -3.25575e-08 4.94553e-11)
(2764.5 -1.83187e-08 2.76876e-11)
(2764.5 -1.17504e-08 1.78114e-11)
(2764.5 -8.25697e-09 1.2517e-11)
(2764.5 -6.1702e-09 9.39389e-12)
(2764.5 -4.81e-09 7.28245e-12)
(2764.5 -3.85104e-09 5.83032e-12)
(2764.5 -3.14718e-09 4.78651e-12)
(2764.5 -2.6393e-09 3.90893e-12)
(2764.5 -2.25245e-09 3.36989e-12)
(2764.5 -1.93207e-09 2.89197e-12)
(2764.5 -1.68151e-09 2.50306e-12)
(2764.5 -1.50083e-09 2.24627e-12)
(2764.5 -1.33676e-09 1.93197e-12)
(2764.5 -1.19208e-09 1.69779e-12)
(2764.5 -1.07724e-09 1.50754e-12)
(2764.5 -9.83696e-10 1.33105e-12)
(2764.5 -9.02645e-10 1.26459e-12)
(2764.5 -8.25249e-10 1.11748e-12)
(2764.5 -7.61506e-10 1.02483e-12)
(2764.5 -7.16735e-10 9.48091e-13)
(2764.5 -6.55488e-10 8.72089e-13)
(2764.5 -6.09689e-10 8.13986e-13)
(2764.5 -5.78282e-10 7.51813e-13)
(2764.5 -5.41016e-10 7.02065e-13)
(2764.5 -5.09983e-10 6.39284e-13)
(2764.5 -4.84522e-10 6.09968e-13)
(2764.5 -4.56922e-10 5.65688e-13)
(2764.5 -4.34608e-10 5.35308e-13)
(2764.5 -4.12083e-10 5.10319e-13)
(2764.5 -3.87169e-10 4.85557e-13)
(2764.5 -3.81035e-10 4.60704e-13)
(2764.5 -3.70431e-10 4.3258e-13)
(2764.5 -3.52383e-10 3.9329e-13)
(2764.5 -3.34864e-10 3.78454e-13)
(2764.5 -3.28371e-10 3.4435e-13)
(2764.5 -3.18297e-10 3.51615e-13)
(2764.5 -3.0677e-10 3.17646e-13)
(2764.5 -2.97604e-10 3.08633e-13)
(2764.5 -2.85503e-10 2.8748e-13)
(2764.5 -2.78934e-10 2.8564e-13)
(2764.5 -2.74639e-10 2.65438e-13)
(2764.5 -2.63731e-10 2.69496e-13)
(2764.5 -2.54107e-10 2.43212e-13)
(2764.5 -2.50564e-10 2.43958e-13)
(2764.5 -2.41115e-10 2.33231e-13)
(2764.5 -2.38398e-10 2.34499e-13)
(2764.5 -2.3733e-10 2.30727e-13)
(2764.5 -2.32794e-10 2.11496e-13)
(2764.5 -2.24671e-10 2.05097e-13)
(2764.5 -2.2031e-10 1.91499e-13)
(2764.5 -2.13478e-10 1.89824e-13)
(2764.5 -2.13853e-10 1.71975e-13)
(2764.5 -2.10772e-10 1.73811e-13)
(2764.5 -1.99162e-10 1.65332e-13)
(2764.5 -1.93628e-10 1.60718e-13)
(2764.5 -1.96851e-10 1.69624e-13)
(2764.5 -1.99702e-10 1.64584e-13)
(2764.5 -1.95054e-10 1.52715e-13)
(2764.5 -1.95423e-10 1.40687e-13)
(2764.5 -1.95798e-10 1.34784e-13)
(2764.5 -1.96544e-10 1.35067e-13)
(2764.5 -1.91271e-10 1.47193e-13)
(2764.5 -1.83173e-10 1.34369e-13)
(2764.5 -1.84985e-10 1.25106e-13)
(2764.5 -1.88109e-10 1.30605e-13)
(2764.5 -1.8134e-10 1.1059e-13)
(2764.5 -1.7796e-10 1.08869e-13)
(2764.5 -1.80926e-10 1.09832e-13)
(2764.5 -1.77426e-10 1.14479e-13)
(2764.5 -1.77678e-10 1.12092e-13)
(2764.5 -1.75349e-10 1.12901e-13)
(2764.5 -1.75955e-10 1.07169e-13)
(2764.5 -1.7514e-10 1.05174e-13)
(2764.5 -1.70421e-10 1.07312e-13)
(2764.5 -1.68718e-10 1.09542e-13)
(2764.5 -1.69056e-10 1.03029e-13)
(2764.5 -1.71046e-10 9.26268e-14)
(2764.5 -1.69869e-10 8.31076e-14)
(2764.5 -1.66803e-10 9.38955e-14)
(2764.5 -1.66893e-10 8.73744e-14)
(2764.5 -1.71062e-10 8.66742e-14)
(2764.5 -1.67056e-10 8.38168e-14)
(2764.5 -1.70351e-10 8.75179e-14)
(2764.5 -1.67722e-10 8.45603e-14)
(2764.5 -1.67758e-10 8.00545e-14)
(2764.5 -1.67365e-10 7.52821e-14)
(2764.5 -1.66708e-10 7.89769e-14)
(2764.5 -1.62841e-10 7.70363e-14)
(2764.5 -1.6615e-10 7.81792e-14)
(2764.5 -1.70441e-10 8.12099e-14)
(2764.5 -1.66615e-10 8.64606e-14)
(2764.5 -1.66802e-10 7.50275e-14)
(2764.5 -1.68936e-10 7.1224e-14)
(2764.5 -1.71996e-10 7.56591e-14)
(2764.5 -1.70041e-10 6.8029e-14)
(2764.5 -1.68138e-10 6.64996e-14)
(2764.5 -1.64461e-10 6.43262e-14)
(2764.5 -1.65647e-10 5.85056e-14)
(2764.5 -1.66286e-10 6.20058e-14)
(2764.5 -1.67603e-10 6.57118e-14)
(2764.5 -1.67768e-10 6.62422e-14)
(2764.5 -1.6838e-10 6.54112e-14)
(2764.5 -1.70415e-10 6.34802e-14)
(2764.5 -1.65585e-10 6.08847e-14)
(2764.5 -1.67136e-10 6.02138e-14)
(2764.5 -1.68975e-10 5.59837e-14)
(2764.5 -1.74719e-10 5.10406e-14)
(2764.5 -1.78483e-10 5.14958e-14)
(2764.5 -1.7849e-10 5.07382e-14)
(2764.5 -1.75959e-10 5.62646e-14)
(2764.5 -1.71485e-10 5.67827e-14)
(2764.5 -1.72825e-10 6.15924e-14)
(2764.5 -1.74995e-10 6.02248e-14)
(2764.5 -1.79218e-10 5.90261e-14)
(2764.5 -1.82525e-10 5.56189e-14)
(2764.5 -1.80705e-10 5.20588e-14)
(2764.5 -1.80928e-10 5.42541e-14)
(2764.5 -1.78342e-10 5.43388e-14)
(2764.5 -1.77223e-10 5.2649e-14)
(2764.5 -1.79798e-10 4.91513e-14)
(2764.5 -1.83066e-10 4.96678e-14)
(2764.5 -1.85844e-10 5.30982e-14)
(2764.5 -1.89028e-10 5.17925e-14)
(2764.5 -1.90835e-10 5.53017e-14)
(2764.5 -1.9051e-10 5.68529e-14)
(2764.5 -1.89902e-10 5.16728e-14)
(2764.5 -1.89836e-10 4.96531e-14)
(2764.5 -1.89824e-10 5.06499e-14)
(2764.5 -1.91059e-10 5.16831e-14)
(2764.5 -1.96015e-10 4.87827e-14)
(2764.5 -2.02004e-10 4.7551e-14)
(2764.5 -2.05067e-10 4.74427e-14)
(2764.5 -2.09153e-10 4.85841e-14)
(2764.5 -2.11209e-10 5.50857e-14)
(2764.5 -2.16226e-10 4.87212e-14)
(2764.5 -2.15257e-10 4.60313e-14)
(2764.5 -2.18064e-10 4.75072e-14)
(2764.5 -2.09749e-10 4.88023e-14)
(2764.5 -2.13721e-10 4.95782e-14)
(2764.5 -2.10666e-10 3.91991e-14)
(2764.5 -2.08366e-10 4.42309e-14)
(2764.5 -2.0854e-10 4.73394e-14)
(2764.5 -2.05797e-10 4.82462e-14)
(2764.5 -2.15573e-10 4.52259e-14)
(2764.5 -2.14877e-10 4.968e-14)
(2764.5 -2.28132e-10 4.54777e-14)
(2764.5 -2.35773e-10 4.12093e-14)
(2764.5 -2.41952e-10 4.47055e-14)
(2764.5 -2.33017e-10 4.44354e-14)
(2764.5 -2.33468e-10 5.12051e-14)
(2764.5 -2.32843e-10 4.32417e-14)
(2764.5 -2.39011e-10 4.40468e-14)
(2764.5 -2.44854e-10 4.22543e-14)
(2764.5 -1.627e-07 2.73868e-10)
(2764.5 -8.68413e-08 1.35925e-10)
(2764.5 -4.48768e-08 6.63472e-11)
(2764.5 -2.54229e-08 3.67972e-11)
(2764.5 -1.61558e-08 2.34953e-11)
(2764.5 -1.12391e-08 1.64495e-11)
(2764.5 -8.34025e-09 1.21763e-11)
(2764.5 -6.4814e-09 9.47274e-12)
(2764.5 -5.18424e-09 7.60055e-12)
(2764.5 -4.23411e-09 6.26226e-12)
(2764.5 -3.53999e-09 5.14405e-12)
(2764.5 -3.01032e-09 4.35272e-12)
(2764.5 -2.58789e-09 3.70286e-12)
(2764.5 -2.25141e-09 3.22821e-12)
(2764.5 -2.00316e-09 2.88589e-12)
(2764.5 -1.79151e-09 2.51188e-12)
(2764.5 -1.59202e-09 2.1858e-12)
(2764.5 -1.44115e-09 1.98582e-12)
(2764.5 -1.31016e-09 1.79282e-12)
(2764.5 -1.19779e-09 1.63031e-12)
(2764.5 -1.10367e-09 1.48618e-12)
(2764.5 -1.01356e-09 1.35832e-12)
(2764.5 -9.51112e-10 1.22656e-12)
(2764.5 -8.76052e-10 1.14721e-12)
(2764.5 -8.15489e-10 1.03979e-12)
(2764.5 -7.64598e-10 9.93181e-13)
(2764.5 -7.16094e-10 9.11607e-13)
(2764.5 -6.73522e-10 8.63912e-13)
(2764.5 -6.49745e-10 8.2512e-13)
(2764.5 -6.11661e-10 7.61798e-13)
(2764.5 -5.77485e-10 6.94879e-13)
(2764.5 -5.44773e-10 6.66017e-13)
(2764.5 -5.13507e-10 6.14522e-13)
(2764.5 -5.02532e-10 5.67613e-13)
(2764.5 -4.8766e-10 5.49322e-13)
(2764.5 -4.59548e-10 5.3159e-13)
(2764.5 -4.46001e-10 4.975e-13)
(2764.5 -4.35096e-10 4.67308e-13)
(2764.5 -4.20381e-10 4.34873e-13)
(2764.5 -4.02125e-10 4.10146e-13)
(2764.5 -3.89992e-10 4.12129e-13)
(2764.5 -3.80725e-10 3.95932e-13)
(2764.5 -3.69728e-10 3.77361e-13)
(2764.5 -3.62734e-10 3.67022e-13)
(2764.5 -3.47406e-10 3.52864e-13)
(2764.5 -3.32457e-10 3.33722e-13)
(2764.5 -3.29377e-10 3.15705e-13)
(2764.5 -3.20503e-10 3.05377e-13)
(2764.5 -3.10785e-10 2.92004e-13)
(2764.5 -3.05763e-10 2.70493e-13)
(2764.5 -3.02712e-10 2.75037e-13)
(2764.5 -2.9478e-10 2.62478e-13)
(2764.5 -2.91865e-10 2.54253e-13)
(2764.5 -2.83259e-10 2.43495e-13)
(2764.5 -2.78226e-10 2.39736e-13)
(2764.5 -2.77791e-10 2.33603e-13)
(2764.5 -2.63222e-10 2.13197e-13)
(2764.5 -2.56214e-10 2.06152e-13)
(2764.5 -2.55798e-10 2.11756e-13)
(2764.5 -2.58261e-10 1.94388e-13)
(2764.5 -2.56381e-10 1.85e-13)
(2764.5 -2.52565e-10 1.79017e-13)
(2764.5 -2.51838e-10 1.82719e-13)
(2764.5 -2.50605e-10 1.9204e-13)
(2764.5 -2.46742e-10 1.73209e-13)
(2764.5 -2.39875e-10 1.77199e-13)
(2764.5 -2.40132e-10 1.70756e-13)
(2764.5 -2.38803e-10 1.56865e-13)
(2764.5 -2.34624e-10 1.62921e-13)
(2764.5 -2.31707e-10 1.58825e-13)
(2764.5 -2.31682e-10 1.46973e-13)
(2764.5 -2.29959e-10 1.50355e-13)
(2764.5 -2.37347e-10 1.43213e-13)
(2764.5 -2.33232e-10 1.39402e-13)
(2764.5 -2.27822e-10 1.46302e-13)
(2764.5 -2.26219e-10 1.4104e-13)
(2764.5 -2.2505e-10 1.39775e-13)
(2764.5 -2.20393e-10 1.31084e-13)
(2764.5 -2.16482e-10 1.20319e-13)
(2764.5 -2.19226e-10 1.2055e-13)
(2764.5 -2.17245e-10 1.2655e-13)
(2764.5 -2.18176e-10 1.20249e-13)
(2764.5 -2.14157e-10 1.13454e-13)
(2764.5 -2.1517e-10 1.14781e-13)
(2764.5 -2.17346e-10 1.12839e-13)
(2764.5 -2.15321e-10 1.07899e-13)
(2764.5 -2.16965e-10 1.00869e-13)
(2764.5 -2.17012e-10 1.07931e-13)
(2764.5 -2.20501e-10 1.13989e-13)
(2764.5 -2.17554e-10 1.11716e-13)
(2764.5 -2.12361e-10 1.02948e-13)
(2764.5 -2.09679e-10 1.01995e-13)
(2764.5 -2.18429e-10 9.95557e-14)
(2764.5 -2.16718e-10 9.71451e-14)
(2764.5 -2.12317e-10 9.59583e-14)
(2764.5 -2.12659e-10 1.00181e-13)
(2764.5 -2.15164e-10 9.23682e-14)
(2764.5 -2.19128e-10 8.96623e-14)
(2764.5 -2.15587e-10 9.03301e-14)
(2764.5 -2.14514e-10 8.34459e-14)
(2764.5 -2.12358e-10 7.77969e-14)
(2764.5 -2.12414e-10 8.20215e-14)
(2764.5 -2.15241e-10 8.55476e-14)
(2764.5 -2.17206e-10 7.89122e-14)
(2764.5 -2.15012e-10 7.95613e-14)
(2764.5 -2.19007e-10 8.39765e-14)
(2764.5 -2.14214e-10 8.08548e-14)
(2764.5 -2.14256e-10 7.97442e-14)
(2764.5 -2.14694e-10 7.52161e-14)
(2764.5 -2.16702e-10 7.58533e-14)
(2764.5 -2.21502e-10 7.63804e-14)
(2764.5 -2.26884e-10 7.52381e-14)
(2764.5 -2.26319e-10 7.75896e-14)
(2764.5 -2.24106e-10 6.59766e-14)
(2764.5 -2.22715e-10 6.53563e-14)
(2764.5 -2.25584e-10 6.78836e-14)
(2764.5 -2.29638e-10 7.34791e-14)
(2764.5 -2.33262e-10 7.06389e-14)
(2764.5 -2.35555e-10 7.50288e-14)
(2764.5 -2.34884e-10 7.56234e-14)
(2764.5 -2.33832e-10 6.96039e-14)
(2764.5 -2.29573e-10 6.57453e-14)
(2764.5 -2.28675e-10 6.85662e-14)
(2764.5 -2.30266e-10 7.08538e-14)
(2764.5 -2.34797e-10 6.55088e-14)
(2764.5 -2.37258e-10 6.88293e-14)
(2764.5 -2.41015e-10 7.31744e-14)
(2764.5 -2.45478e-10 6.39639e-14)
(2764.5 -2.46557e-10 6.17012e-14)
(2764.5 -2.47625e-10 6.04309e-14)
(2764.5 -2.47243e-10 6.16259e-14)
(2764.5 -2.4574e-10 6.55062e-14)
(2764.5 -2.47283e-10 6.42566e-14)
(2764.5 -2.52275e-10 6.59887e-14)
(2764.5 -2.57183e-10 6.65908e-14)
(2764.5 -2.61554e-10 6.75894e-14)
(2764.5 -2.63515e-10 7.03399e-14)
(2764.5 -2.71866e-10 5.58309e-14)
(2764.5 -2.70276e-10 5.99039e-14)
(2764.5 -2.73082e-10 5.687e-14)
(2764.5 -2.70406e-10 6.5647e-14)
(2764.5 -2.70519e-10 5.73346e-14)
(2764.5 -2.72241e-10 5.95352e-14)
(2764.5 -2.70278e-10 5.89459e-14)
(2764.5 -2.73783e-10 6.10035e-14)
(2764.5 -2.6743e-10 6.54432e-14)
(2764.5 -2.72597e-10 5.70693e-14)
(2764.5 -2.71795e-10 5.39296e-14)
(2764.5 -2.79598e-10 5.37543e-14)
(2764.5 -2.86007e-10 5.7092e-14)
(2764.5 -2.97487e-10 5.32407e-14)
(2764.5 -2.97786e-10 6.14757e-14)
(2764.5 -2.96037e-10 5.68728e-14)
(2764.5 -3.00063e-10 5.36217e-14)
(2764.5 -2.97874e-10 6.24814e-14)
(2764.5 -3.06696e-10 5.99458e-14)
(2764.5 -1.82787e-07 3.07102e-10)
(2764.5 -1.06068e-07 1.64655e-10)
(2764.5 -5.7809e-08 8.35144e-11)
(2764.5 -3.32723e-08 4.65409e-11)
(2764.5 -2.10688e-08 2.94562e-11)
(2764.5 -1.45398e-08 2.04613e-11)
(2764.5 -1.0715e-08 1.52549e-11)
(2764.5 -8.28977e-09 1.17226e-11)
(2764.5 -6.6166e-09 9.3358e-12)
(2764.5 -5.40225e-09 7.6451e-12)
(2764.5 -4.51204e-09 6.35239e-12)
(2764.5 -3.82936e-09 5.35252e-12)
(2764.5 -3.28686e-09 4.58501e-12)
(2764.5 -2.86136e-09 4.01984e-12)
(2764.5 -2.53371e-09 3.48253e-12)
(2764.5 -2.2651e-09 3.05765e-12)
(2764.5 -2.02259e-09 2.71941e-12)
(2764.5 -1.82823e-09 2.42028e-12)
(2764.5 -1.65965e-09 2.20706e-12)
(2764.5 -1.51717e-09 1.97242e-12)
(2764.5 -1.39287e-09 1.81631e-12)
(2764.5 -1.28528e-09 1.6644e-12)
(2764.5 -1.20136e-09 1.51478e-12)
(2764.5 -1.11127e-09 1.36723e-12)
(2764.5 -1.02824e-09 1.29287e-12)
(2764.5 -9.63543e-10 1.22209e-12)
(2764.5 -9.0392e-10 1.12597e-12)
(2764.5 -8.52142e-10 1.06573e-12)
(2764.5 -8.13016e-10 9.84337e-13)
(2764.5 -7.72368e-10 8.94546e-13)
(2764.5 -7.25955e-10 8.58046e-13)
(2764.5 -6.90514e-10 8.05146e-13)
(2764.5 -6.53793e-10 7.52684e-13)
(2764.5 -6.30339e-10 7.2084e-13)
(2764.5 -6.08783e-10 6.78387e-13)
(2764.5 -5.77844e-10 6.1621e-13)
(2764.5 -5.5969e-10 6.24229e-13)
(2764.5 -5.42872e-10 5.81333e-13)
(2764.5 -5.23761e-10 5.50722e-13)
(2764.5 -5.01599e-10 5.28492e-13)
(2764.5 -4.87305e-10 4.88285e-13)
(2764.5 -4.76732e-10 4.70007e-13)
(2764.5 -4.63783e-10 4.53578e-13)
(2764.5 -4.53707e-10 4.45533e-13)
(2764.5 -4.38001e-10 4.23054e-13)
(2764.5 -4.20119e-10 4.22095e-13)
(2764.5 -4.10562e-10 3.83323e-13)
(2764.5 -3.99034e-10 3.73082e-13)
(2764.5 -3.85781e-10 3.66517e-13)
(2764.5 -3.7971e-10 3.42856e-13)
(2764.5 -3.72714e-10 3.32682e-13)
(2764.5 -3.6669e-10 3.19709e-13)
(2764.5 -3.65872e-10 3.05822e-13)
(2764.5 -3.55869e-10 3.03896e-13)
(2764.5 -3.49579e-10 2.86908e-13)
(2764.5 -3.47342e-10 2.75066e-13)
(2764.5 -3.32058e-10 2.64226e-13)
(2764.5 -3.20627e-10 2.64069e-13)
(2764.5 -3.13645e-10 2.50556e-13)
(2764.5 -3.16383e-10 2.38418e-13)
(2764.5 -3.23349e-10 2.41585e-13)
(2764.5 -3.23141e-10 2.28541e-13)
(2764.5 -3.17523e-10 2.2406e-13)
(2764.5 -3.08062e-10 2.14249e-13)
(2764.5 -3.04491e-10 2.10574e-13)
(2764.5 -2.97596e-10 2.15086e-13)
(2764.5 -2.96281e-10 2.01099e-13)
(2764.5 -2.94734e-10 1.86171e-13)
(2764.5 -2.92367e-10 1.96895e-13)
(2764.5 -2.86252e-10 1.88202e-13)
(2764.5 -2.79827e-10 1.77765e-13)
(2764.5 -2.78456e-10 1.78358e-13)
(2764.5 -2.84257e-10 1.76592e-13)
(2764.5 -2.92397e-10 1.67818e-13)
(2764.5 -2.91107e-10 1.74701e-13)
(2764.5 -2.82199e-10 1.67059e-13)
(2764.5 -2.77769e-10 1.62496e-13)
(2764.5 -2.76685e-10 1.56866e-13)
(2764.5 -2.72053e-10 1.68156e-13)
(2764.5 -2.67517e-10 1.58476e-13)
(2764.5 -2.6471e-10 1.55816e-13)
(2764.5 -2.65762e-10 1.43344e-13)