/*--------------------------------*- C++ -*----------------------------------*\
| =========                 |                                                 |
| \\      /  F ield         | OpenFOAM: The Open Source CFD Toolbox           |
|  \\    /   O peration     | Version:  v1706                                 |
|   \\  /    A nd           | Web:      www.OpenFOAM.com                      |
|    \\/     M anipulation  |                                                 |
\*---------------------------------------------------------------------------*/
FoamFile
{
    version     2.0;
    format      ascii;
    class       volScalarField;
    location    "7e-06";
    object      wallHeatFlux;
}
// * * * * * * * * * * * * * * * * * * * * * * * * * * * * * * * * * * * * * //

dimensions      [1 0 -3 0 0 0 0];


internalField   uniform 0;

boundaryField
{
    cone
    {
        type            calculated;
        value           nonuniform List<scalar> 
147
(
740842
740598
740350
740005
739587
739093
738516
737865
737131
736324
735437
734477
733440
732330
731145
729888
728558
727157
725683
724136
722515
720822
719056
717218
715308
713326
711274
709150
706957
704694
702363
699964
697498
694964
692363
689696
686963
684167
681306
678383
675398
672351
669244
666078
662853
659571
656233
652839
649390
645887
642331
638724
635066
631359
627603
623801
619954
616062
612128
608151
604134
600078
595985
591857
587693
583495
579264
575004
570713
566396
562052
557683
553289
548874
544438
539983
535511
531023
526522
522008
517485
512953
508414
503870
499323
494774
490225
485677
481132
476591
472057
467530
463012
458505
454011
449531
445066
440619
436191
431782
427394
423029
418689
414374
410084
405823
401590
397387
393214
389072
384965
380892
376856
372853
368886
364953
361056
357194
353367
349576
345820
342100
338414
334762
331144
327558
324003
320479
316983
313515
310072
306653
303254
299874
296511
293160
289819
286485
283154
279824
276489
273146
269791
266421
263030
259615
741688
)
;
    }
    inlet
    {
        type            calculated;
        value           uniform 0;
    }
    rWedge
    {
        type            wedge;
    }
    lWedge
    {
        type            wedge;
    }
    outlet
    {
        type            calculated;
        value           nonuniform 0();
    }
    procBoundary3to2
    {
        type            processor;
        value           uniform 0;
    }
}


// ************************************************************************* //
