/*--------------------------------*- C++ -*----------------------------------*\
| =========                 |                                                 |
| \\      /  F ield         | OpenFOAM: The Open Source CFD Toolbox           |
|  \\    /   O peration     | Version:  v1706                                 |
|   \\  /    A nd           | Web:      www.OpenFOAM.com                      |
|    \\/     M anipulation  |                                                 |
\*---------------------------------------------------------------------------*/
FoamFile
{
    version     2.0;
    format      ascii;
    class       volVectorField;
    location    "1e-05";
    object      U;
}
// * * * * * * * * * * * * * * * * * * * * * * * * * * * * * * * * * * * * * //

dimensions      [0 1 -1 0 0 0 0];


internalField   nonuniform List<vector> 
29987
(
(2764.5 -2.08787e-08 4.07786e-11)
(2764.5 -6.56308e-09 1.19841e-11)
(2764.5 -3.1609e-09 5.80823e-12)
(2764.5 -1.95661e-09 3.48907e-12)
(2764.5 -1.33471e-09 2.32485e-12)
(2764.5 -9.65648e-10 1.68586e-12)
(2764.5 -7.31494e-10 1.27721e-12)
(2764.5 -5.72842e-10 1.00302e-12)
(2764.5 -4.62486e-10 8.10291e-13)
(2764.5 -3.80901e-10 6.86921e-13)
(2764.5 -3.20357e-10 5.15394e-13)
(2764.5 -2.724e-10 4.58528e-13)
(2764.5 -2.35036e-10 4.22891e-13)
(2764.5 -2.05441e-10 3.51389e-13)
(2764.5 -1.81813e-10 3.11628e-13)
(2764.5 -1.66127e-10 2.61442e-13)
(2764.5 -1.45378e-10 2.2119e-13)
(2764.5 -1.35144e-10 1.91695e-13)
(2764.5 -1.20922e-10 1.83791e-13)
(2764.5 -1.1207e-10 1.72805e-13)
(2764.5 -9.95647e-11 1.6792e-13)
(2764.5 -9.70784e-11 1.39924e-13)
(2764.5 -8.72967e-11 1.32281e-13)
(2764.5 -8.23504e-11 1.13528e-13)
(2764.5 -7.53445e-11 1.18901e-13)
(2764.5 -7.38891e-11 1.16396e-13)
(2764.5 -6.54636e-11 9.08736e-14)
(2764.5 -6.60713e-11 7.91673e-14)
(2764.5 -5.90162e-11 8.65836e-14)
(2764.5 -5.96448e-11 7.91413e-14)
(2764.5 -5.40241e-11 8.80604e-14)
(2764.5 -5.49382e-11 7.4643e-14)
(2764.5 -4.87386e-11 6.57153e-14)
(2764.5 -5.04616e-11 6.30709e-14)
(2764.5 -4.52013e-11 6.38727e-14)
(2764.5 -4.62768e-11 5.57596e-14)
(2764.5 -4.33824e-11 5.45006e-14)
(2764.5 -3.9506e-11 4.35932e-14)
(2764.5 -4.03441e-11 4.0053e-14)
(2764.5 -4.23488e-11 4.62021e-14)
(2764.5 -3.70297e-11 3.76351e-14)
(2764.5 -3.5267e-11 3.8671e-14)
(2764.5 -3.77179e-11 4.62785e-14)
(2764.5 -3.55393e-11 3.90948e-14)
(2764.5 -3.4299e-11 3.77829e-14)
(2764.5 -3.13265e-11 3.19209e-14)
(2764.5 -3.32962e-11 4.31579e-14)
(2764.5 -3.44919e-11 3.21434e-14)
(2764.5 -3.11664e-11 2.86173e-14)
(2764.5 -3.17202e-11 3.35851e-14)
(2764.5 -2.92562e-11 3.29724e-14)
(2764.5 -2.86953e-11 3.03891e-14)
(2764.5 -2.91643e-11 2.79191e-14)
(2764.5 -2.92529e-11 2.77596e-14)
(2764.5 -2.88414e-11 2.97123e-14)
(2764.5 -2.65982e-11 2.07866e-14)
(2764.5 -2.70173e-11 1.95486e-14)
(2764.5 -2.9006e-11 2.06454e-14)
(2764.5 -2.91007e-11 2.02654e-14)
(2764.5 -3.23471e-11 2.59655e-14)
(2764.5 -2.76021e-11 2.5814e-14)
(2764.5 -2.34538e-11 1.48495e-14)
(2764.5 -2.46629e-11 1.88139e-14)
(2764.5 -2.50217e-11 2.12327e-14)
(2764.5 -2.48599e-11 1.71363e-14)
(2764.5 -2.68943e-11 1.42998e-14)
(2764.5 -2.68956e-11 1.5932e-14)
(2764.5 -2.59284e-11 1.66832e-14)
(2764.5 -2.5947e-11 1.79575e-14)
(2764.5 -2.49645e-11 1.64454e-14)
(2764.5 -2.64086e-11 1.56273e-14)
(2764.5 -2.48755e-11 1.70105e-14)
(2764.5 -2.64373e-11 1.41647e-14)
(2764.5 -2.36535e-11 1.26252e-14)
(2764.5 -2.13425e-11 1.67098e-14)
(2764.5 -2.34565e-11 1.53103e-14)
(2764.5 -2.28694e-11 1.40074e-14)
(2764.5 -2.53085e-11 1.58224e-14)
(2764.5 -2.58195e-11 1.1078e-14)
(2764.5 -2.43635e-11 7.24509e-15)
(2764.5 -2.50223e-11 1.09825e-14)
(2764.5 -2.51942e-11 1.1686e-14)
(2764.5 -2.48112e-11 7.98713e-15)
(2764.5 -2.31704e-11 1.07722e-14)
(2764.5 -2.28515e-11 1.18035e-14)
(2764.5 -2.42901e-11 9.81871e-15)
(2764.5 -2.37444e-11 9.06045e-15)
(2764.5 -2.41222e-11 9.50596e-15)
(2764.5 -2.328e-11 1.26171e-14)
(2764.5 -2.47391e-11 9.00436e-15)
(2764.5 -2.58161e-11 6.78933e-15)
(2764.5 -2.45039e-11 6.62338e-15)
(2764.5 -2.20574e-11 1.11867e-14)
(2764.5 -2.37148e-11 1.35021e-14)
(2764.5 -2.50935e-11 1.30586e-14)
(2764.5 -2.45414e-11 1.12881e-14)
(2764.5 -2.39594e-11 6.76905e-15)
(2764.5 -2.33313e-11 1.03584e-14)
(2764.5 -2.47086e-11 1.3095e-14)
(2764.5 -2.41526e-11 9.18323e-15)
(2764.5 -2.519e-11 6.54504e-15)
(2764.5 -2.595e-11 1.36663e-14)
(2764.5 -2.44558e-11 1.44462e-14)
(2764.5 -2.31327e-11 9.93599e-15)
(2764.5 -2.44699e-11 9.68894e-15)
(2764.5 -2.58882e-11 9.25526e-15)
(2764.5 -2.69476e-11 7.26736e-15)
(2764.5 -2.84365e-11 6.60235e-15)
(2764.5 -2.71704e-11 9.39449e-15)
(2764.5 -2.54704e-11 6.86089e-15)
(2764.5 -2.52892e-11 6.79338e-15)
(2764.5 -2.52178e-11 6.18243e-15)
(2764.5 -2.48874e-11 9.22681e-15)
(2764.5 -2.45143e-11 7.6928e-15)
(2764.5 -2.57134e-11 1.09302e-14)
(2764.5 -2.39695e-11 7.28367e-15)
(2764.5 -2.44064e-11 8.64018e-15)
(2764.5 -2.46357e-11 1.17519e-14)
(2764.5 -2.499e-11 1.07217e-14)
(2764.5 -2.70576e-11 6.34795e-15)
(2764.5 -2.79707e-11 6.50353e-15)
(2764.5 -2.86092e-11 9.42905e-15)
(2764.5 -2.87124e-11 7.26878e-15)
(2764.5 -3.10098e-11 8.64813e-15)
(2764.5 -3.0306e-11 9.49738e-15)
(2764.5 -3.00127e-11 6.11352e-15)
(2764.5 -2.83423e-11 9.27529e-15)
(2764.5 -2.97721e-11 8.53719e-15)
(2764.5 -3.09706e-11 9.41741e-15)
(2764.5 -3.13838e-11 6.67402e-15)
(2764.5 -3.20747e-11 1.152e-14)
(2764.5 -3.14799e-11 1.55962e-14)
(2764.5 -3.33015e-11 5.71226e-15)
(2764.5 -3.25235e-11 2.27912e-15)
(2764.5 -3.13748e-11 7.31027e-15)
(2764.5 -2.72921e-11 3.97288e-15)
(2764.5 -2.68472e-11 5.85905e-15)
(2764.5 -2.4951e-11 8.62161e-15)
(2764.5 -2.61257e-11 6.95319e-15)
(2764.5 -2.58041e-11 1.08525e-14)
(2764.5 -3.10076e-11 2.22827e-15)
(2764.5 -3.29116e-11 2.21157e-15)
(2764.5 -3.8718e-11 7.53614e-15)
(2764.5 -3.61973e-11 5.43177e-15)
(2764.5 -3.57353e-11 6.43327e-15)
(2764.5 -3.18048e-11 8.96525e-15)
(2764.5 -3.13268e-11 9.93219e-15)
(2764.5 -3.12378e-11 8.3483e-15)
(2764.5 -3.35931e-11 7.90526e-15)
(2764.5 -3.58745e-11 4.52119e-15)
(2764.5 -3.6005e-11 3.56107e-15)
(2764.5 -3.77319e-11 5.01453e-15)
(2764.5 -4.02964e-11 3.36995e-15)
(2764.5 -3.95338e-11 9.68606e-15)
(2764.5 -3.84887e-11 5.79379e-15)
(2764.5 -3.80525e-11 7.73478e-15)
(2764.5 -6.69595e-08 1.17805e-10)
(2764.5 -2.47887e-08 4.14783e-11)
(2764.5 -1.13563e-08 1.87771e-11)
(2764.5 -6.60422e-09 1.11e-11)
(2764.5 -4.38979e-09 7.3835e-12)
(2764.5 -3.14174e-09 5.30851e-12)
(2764.5 -2.37145e-09 3.97454e-12)
(2764.5 -1.85921e-09 3.08166e-12)
(2764.5 -1.49229e-09 2.48814e-12)
(2764.5 -1.22869e-09 2.01795e-12)
(2764.5 -1.03443e-09 1.60781e-12)
(2764.5 -8.83495e-10 1.42321e-12)
(2764.5 -7.57177e-10 1.19709e-12)
(2764.5 -6.58056e-10 1.04767e-12)
(2764.5 -5.8343e-10 8.93908e-13)
(2764.5 -5.23152e-10 8.23124e-13)
(2764.5 -4.68404e-10 7.03071e-13)
(2764.5 -4.31423e-10 6.27465e-13)
(2764.5 -3.87317e-10 5.87683e-13)
(2764.5 -3.58407e-10 5.26677e-13)
(2764.5 -3.21082e-10 4.86997e-13)
(2764.5 -3.05529e-10 4.11738e-13)
(2764.5 -2.81604e-10 3.93482e-13)
(2764.5 -2.58511e-10 3.51624e-13)
(2764.5 -2.38733e-10 3.49518e-13)
(2764.5 -2.29723e-10 3.35967e-13)
(2764.5 -2.1368e-10 2.94064e-13)
(2764.5 -2.0693e-10 2.68133e-13)
(2764.5 -1.94308e-10 2.72062e-13)
(2764.5 -1.8397e-10 2.53495e-13)
(2764.5 -1.6971e-10 2.21647e-13)
(2764.5 -1.6465e-10 2.16142e-13)
(2764.5 -1.5678e-10 1.78744e-13)
(2764.5 -1.56207e-10 1.63338e-13)
(2764.5 -1.4901e-10 1.69571e-13)
(2764.5 -1.45664e-10 1.68139e-13)
(2764.5 -1.38043e-10 1.55297e-13)
(2764.5 -1.24097e-10 1.4656e-13)
(2764.5 -1.24666e-10 1.36678e-13)
(2764.5 -1.27634e-10 1.32109e-13)
(2764.5 -1.25166e-10 1.14721e-13)
(2764.5 -1.14479e-10 1.179e-13)
(2764.5 -1.13594e-10 1.2984e-13)
(2764.5 -1.1118e-10 1.12217e-13)
(2764.5 -1.08152e-10 9.1837e-14)
(2764.5 -1.00169e-10 1.09344e-13)
(2764.5 -9.95922e-11 1.0634e-13)
(2764.5 -1.01985e-10 8.71641e-14)
(2764.5 -1.04363e-10 8.92483e-14)
(2764.5 -1.01115e-10 9.81266e-14)
(2764.5 -9.49934e-11 9.63542e-14)
(2764.5 -8.99331e-11 7.8834e-14)
(2764.5 -8.83742e-11 7.84289e-14)
(2764.5 -9.10296e-11 6.49769e-14)
(2764.5 -8.89905e-11 6.98513e-14)
(2764.5 -8.45056e-11 5.9195e-14)
(2764.5 -8.59822e-11 6.26777e-14)
(2764.5 -8.38507e-11 6.30557e-14)
(2764.5 -8.33459e-11 7.04714e-14)
(2764.5 -8.63179e-11 7.12702e-14)
(2764.5 -8.60717e-11 6.12754e-14)
(2764.5 -8.80517e-11 4.5047e-14)
(2764.5 -8.34994e-11 6.0459e-14)
(2764.5 -7.76172e-11 5.75537e-14)
(2764.5 -7.26067e-11 5.08824e-14)
(2764.5 -7.3042e-11 5.26687e-14)
(2764.5 -7.63014e-11 4.60297e-14)
(2764.5 -7.50192e-11 4.98351e-14)
(2764.5 -7.54354e-11 5.39734e-14)
(2764.5 -7.5096e-11 4.78481e-14)
(2764.5 -7.66645e-11 4.81711e-14)
(2764.5 -7.34766e-11 4.7895e-14)
(2764.5 -7.81341e-11 4.16091e-14)
(2764.5 -7.86944e-11 4.28681e-14)
(2764.5 -7.42547e-11 4.82394e-14)
(2764.5 -7.48863e-11 5.0528e-14)
(2764.5 -7.06978e-11 4.55249e-14)
(2764.5 -6.92362e-11 4.55544e-14)
(2764.5 -7.14846e-11 3.21501e-14)
(2764.5 -6.98542e-11 2.93139e-14)
(2764.5 -6.87203e-11 3.63894e-14)
(2764.5 -7.17081e-11 3.41371e-14)
(2764.5 -7.85409e-11 2.90754e-14)
(2764.5 -7.60564e-11 3.75521e-14)
(2764.5 -7.05777e-11 4.34344e-14)
(2764.5 -6.86449e-11 4.11514e-14)
(2764.5 -6.93381e-11 3.51928e-14)
(2764.5 -7.4532e-11 3.95652e-14)
(2764.5 -6.97912e-11 3.6936e-14)
(2764.5 -6.90433e-11 2.7604e-14)
(2764.5 -7.03475e-11 3.12261e-14)
(2764.5 -7.60077e-11 2.58978e-14)
(2764.5 -7.22723e-11 3.36395e-14)
(2764.5 -6.79186e-11 3.37951e-14)
(2764.5 -6.97563e-11 3.84664e-14)
(2764.5 -7.01187e-11 3.25291e-14)
(2764.5 -7.10478e-11 2.60254e-14)
(2764.5 -6.8996e-11 2.90989e-14)
(2764.5 -6.96893e-11 2.8687e-14)
(2764.5 -6.83687e-11 2.74073e-14)
(2764.5 -6.94238e-11 2.67952e-14)
(2764.5 -7.35552e-11 2.79169e-14)
(2764.5 -7.51616e-11 2.99645e-14)
(2764.5 -7.09288e-11 2.07989e-14)
(2764.5 -6.96394e-11 2.2077e-14)
(2764.5 -6.9097e-11 2.1868e-14)
(2764.5 -6.94196e-11 2.2201e-14)
(2764.5 -7.27578e-11 2.12303e-14)
(2764.5 -7.62722e-11 1.9375e-14)
(2764.5 -7.49889e-11 1.9083e-14)
(2764.5 -7.49627e-11 2.26924e-14)
(2764.5 -7.50809e-11 2.2798e-14)
(2764.5 -7.53532e-11 2.33526e-14)
(2764.5 -7.36041e-11 2.37857e-14)
(2764.5 -7.7532e-11 2.86488e-14)
(2764.5 -7.82641e-11 2.73706e-14)
(2764.5 -7.70847e-11 2.8525e-14)
(2764.5 -7.49988e-11 2.7999e-14)
(2764.5 -7.29476e-11 2.32478e-14)
(2764.5 -7.31373e-11 1.78395e-14)
(2764.5 -7.56926e-11 1.9516e-14)
(2764.5 -7.71798e-11 2.10057e-14)
(2764.5 -7.6705e-11 2.17137e-14)
(2764.5 -7.84025e-11 2.33051e-14)
(2764.5 -8.1046e-11 2.3357e-14)
(2764.5 -8.21909e-11 2.16702e-14)
(2764.5 -8.2081e-11 2.37495e-14)
(2764.5 -8.16733e-11 2.24087e-14)
(2764.5 -8.24367e-11 2.23984e-14)
(2764.5 -8.37416e-11 2.47548e-14)
(2764.5 -8.5806e-11 2.5072e-14)
(2764.5 -8.53696e-11 2.05377e-14)
(2764.5 -8.70291e-11 1.57513e-14)
(2764.5 -9.15196e-11 2.20067e-14)
(2764.5 -9.74464e-11 1.70768e-14)
(2764.5 -9.61346e-11 1.92207e-14)
(2764.5 -9.62519e-11 2.77996e-14)
(2764.5 -9.05258e-11 1.53132e-14)
(2764.5 -8.71085e-11 2.13447e-14)
(2764.5 -8.39294e-11 2.12035e-14)
(2764.5 -8.42266e-11 1.87054e-14)
(2764.5 -8.67545e-11 2.08512e-14)
(2764.5 -9.18151e-11 1.99617e-14)
(2764.5 -1.00718e-10 2.36098e-14)
(2764.5 -1.05734e-10 1.9129e-14)
(2764.5 -1.09072e-10 2.3039e-14)
(2764.5 -1.04357e-10 2.04221e-14)
(2764.5 -1.00945e-10 2.34347e-14)
(2764.5 -1.00107e-10 2.42371e-14)
(2764.5 -1.03577e-10 2.29889e-14)
(2764.5 -1.04533e-10 1.61849e-14)
(2764.5 -1.05305e-10 1.44945e-14)
(2764.5 -1.05166e-10 1.23728e-14)
(2764.5 -1.09338e-10 1.7792e-14)
(2764.5 -1.12746e-10 1.74654e-14)
(2764.5 -1.13777e-10 1.90714e-14)
(2764.5 -1.06288e-07 1.82052e-10)
(2764.5 -4.53404e-08 7.34439e-11)
(2764.5 -2.12553e-08 3.34796e-11)
(2764.5 -1.20324e-08 1.91816e-11)
(2764.5 -7.83937e-09 1.24979e-11)
(2764.5 -5.56456e-09 8.85009e-12)
(2764.5 -4.17898e-09 6.6928e-12)
(2764.5 -3.26773e-09 5.15797e-12)
(2764.5 -2.61764e-09 4.1467e-12)
(2764.5 -2.15356e-09 3.35063e-12)
(2764.5 -1.81255e-09 2.78977e-12)
(2764.5 -1.53714e-09 2.39741e-12)
(2764.5 -1.32714e-09 2.01912e-12)
(2764.5 -1.15578e-09 1.74681e-12)
(2764.5 -1.01819e-09 1.53698e-12)
(2764.5 -9.1109e-10 1.36345e-12)
(2764.5 -8.1472e-10 1.17314e-12)
(2764.5 -7.46678e-10 1.08358e-12)
(2764.5 -6.76376e-10 9.62644e-13)
(2764.5 -6.19149e-10 8.96579e-13)
(2764.5 -5.66813e-10 8.02258e-13)
(2764.5 -5.28568e-10 6.9356e-13)
(2764.5 -4.85193e-10 6.68536e-13)
(2764.5 -4.48948e-10 6.02649e-13)
(2764.5 -4.1918e-10 5.98314e-13)
(2764.5 -3.8986e-10 5.46259e-13)
(2764.5 -3.74039e-10 5.21765e-13)
(2764.5 -3.59198e-10 4.70454e-13)
(2764.5 -3.34509e-10 4.29322e-13)
(2764.5 -3.15436e-10 4.10784e-13)
(2764.5 -3.0038e-10 3.61028e-13)
(2764.5 -2.83829e-10 3.70028e-13)
(2764.5 -2.68486e-10 3.20073e-13)
(2764.5 -2.63076e-10 3.14768e-13)
(2764.5 -2.54739e-10 3.11813e-13)
(2764.5 -2.47021e-10 2.75103e-13)
(2764.5 -2.36305e-10 2.54978e-13)
(2764.5 -2.19227e-10 2.58934e-13)
(2764.5 -2.16609e-10 2.5309e-13)
(2764.5 -2.11886e-10 2.27542e-13)
(2764.5 -2.0669e-10 2.13005e-13)
(2764.5 -2.02497e-10 2.08205e-13)
(2764.5 -1.94256e-10 2.11971e-13)
(2764.5 -1.88814e-10 1.96032e-13)
(2764.5 -1.82885e-10 1.69657e-13)
(2764.5 -1.72512e-10 1.76898e-13)
(2764.5 -1.73735e-10 1.71908e-13)
(2764.5 -1.70317e-10 1.68203e-13)
(2764.5 -1.70514e-10 1.60084e-13)
(2764.5 -1.72483e-10 1.70794e-13)
(2764.5 -1.64999e-10 1.55233e-13)
(2764.5 -1.5851e-10 1.41746e-13)
(2764.5 -1.50877e-10 1.34549e-13)
(2764.5 -1.53092e-10 1.29418e-13)
(2764.5 -1.47264e-10 1.21402e-13)
(2764.5 -1.42314e-10 1.20584e-13)
(2764.5 -1.4187e-10 1.12526e-13)
(2764.5 -1.38003e-10 1.04924e-13)
(2764.5 -1.41891e-10 1.19219e-13)
(2764.5 -1.42059e-10 1.14285e-13)
(2764.5 -1.43609e-10 1.0698e-13)
(2764.5 -1.41858e-10 1.07506e-13)
(2764.5 -1.44462e-10 1.01338e-13)
(2764.5 -1.38267e-10 8.43193e-14)
(2764.5 -1.29036e-10 9.16317e-14)
(2764.5 -1.22235e-10 9.01708e-14)
(2764.5 -1.25311e-10 8.02106e-14)
(2764.5 -1.27661e-10 9.09546e-14)
(2764.5 -1.26942e-10 8.29707e-14)
(2764.5 -1.23495e-10 7.77607e-14)
(2764.5 -1.26628e-10 7.44698e-14)
(2764.5 -1.23048e-10 7.81583e-14)
(2764.5 -1.26361e-10 7.32476e-14)
(2764.5 -1.25111e-10 7.6578e-14)
(2764.5 -1.23131e-10 8.18996e-14)
(2764.5 -1.25229e-10 8.21082e-14)
(2764.5 -1.20739e-10 6.87458e-14)
(2764.5 -1.2114e-10 6.94369e-14)
(2764.5 -1.22212e-10 6.84175e-14)
(2764.5 -1.17687e-10 6.52301e-14)
(2764.5 -1.12708e-10 6.26094e-14)
(2764.5 -1.15765e-10 5.73103e-14)
(2764.5 -1.20597e-10 5.47581e-14)
(2764.5 -1.23587e-10 5.52535e-14)
(2764.5 -1.22296e-10 5.65744e-14)
(2764.5 -1.2016e-10 5.55235e-14)
(2764.5 -1.17705e-10 6.05487e-14)
(2764.5 -1.18135e-10 6.61882e-14)
(2764.5 -1.16827e-10 5.8251e-14)
(2764.5 -1.16977e-10 5.56591e-14)
(2764.5 -1.16636e-10 4.99643e-14)
(2764.5 -1.20495e-10 4.88963e-14)
(2764.5 -1.21792e-10 5.74035e-14)
(2764.5 -1.19858e-10 6.28702e-14)
(2764.5 -1.20608e-10 6.40128e-14)
(2764.5 -1.19176e-10 4.76755e-14)
(2764.5 -1.18172e-10 4.09357e-14)
(2764.5 -1.15894e-10 4.45045e-14)
(2764.5 -1.17072e-10 4.78292e-14)
(2764.5 -1.15186e-10 4.8684e-14)
(2764.5 -1.12626e-10 4.10655e-14)
(2764.5 -1.15917e-10 4.62635e-14)
(2764.5 -1.1936e-10 5.00329e-14)
(2764.5 -1.20062e-10 4.52483e-14)
(2764.5 -1.18635e-10 4.97453e-14)
(2764.5 -1.1675e-10 4.50091e-14)
(2764.5 -1.17774e-10 4.02666e-14)
(2764.5 -1.20214e-10 3.64564e-14)
(2764.5 -1.22776e-10 3.74867e-14)
(2764.5 -1.24677e-10 4.11308e-14)
(2764.5 -1.26133e-10 3.64222e-14)
(2764.5 -1.27784e-10 3.58137e-14)
(2764.5 -1.26854e-10 3.60578e-14)
(2764.5 -1.23824e-10 3.86922e-14)
(2764.5 -1.24064e-10 3.76643e-14)
(2764.5 -1.27144e-10 4.51272e-14)
(2764.5 -1.31504e-10 4.76813e-14)
(2764.5 -1.30843e-10 4.76485e-14)
(2764.5 -1.30112e-10 3.84783e-14)
(2764.5 -1.25983e-10 3.69208e-14)
(2764.5 -1.25272e-10 3.84761e-14)
(2764.5 -1.25139e-10 3.82719e-14)
(2764.5 -1.27064e-10 3.62996e-14)
(2764.5 -1.27542e-10 3.31301e-14)
(2764.5 -1.30292e-10 3.49873e-14)
(2764.5 -1.2972e-10 3.67672e-14)
(2764.5 -1.2889e-10 3.5099e-14)
(2764.5 -1.30479e-10 3.60911e-14)
(2764.5 -1.33802e-10 4.12496e-14)
(2764.5 -1.35135e-10 3.87059e-14)
(2764.5 -1.3611e-10 3.44323e-14)
(2764.5 -1.36301e-10 3.72061e-14)
(2764.5 -1.37688e-10 3.7748e-14)
(2764.5 -1.40582e-10 3.32001e-14)
(2764.5 -1.48509e-10 3.96279e-14)
(2764.5 -1.52067e-10 2.91999e-14)
(2764.5 -1.59537e-10 2.84982e-14)
(2764.5 -1.57494e-10 3.44413e-14)
(2764.5 -1.5366e-10 4.12813e-14)
(2764.5 -1.54014e-10 3.44574e-14)
(2764.5 -1.42863e-10 2.79063e-14)
(2764.5 -1.38521e-10 2.83238e-14)
(2764.5 -1.39533e-10 3.05671e-14)
(2764.5 -1.43991e-10 2.72325e-14)
(2764.5 -1.53472e-10 3.3526e-14)
(2764.5 -1.62441e-10 2.97958e-14)
(2764.5 -1.63425e-10 3.02713e-14)
(2764.5 -1.66476e-10 3.00854e-14)
(2764.5 -1.59671e-10 3.77369e-14)
(2764.5 -1.59757e-10 3.36157e-14)
(2764.5 -1.66212e-10 3.0265e-14)
(2764.5 -1.70294e-10 3.12173e-14)
(2764.5 -1.71519e-10 3.16581e-14)
(2764.5 -1.71833e-10 2.07972e-14)
(2764.5 -1.76497e-10 3.37644e-14)
(2764.5 -1.80651e-10 3.46839e-14)
(2764.5 -1.37742e-07 2.33325e-10)
(2764.5 -6.64038e-08 1.052e-10)
(2764.5 -3.25602e-08 4.9463e-11)
(2764.5 -1.83128e-08 2.76536e-11)
(2764.5 -1.175e-08 1.77833e-11)
(2764.5 -8.25227e-09 1.25115e-11)
(2764.5 -6.16183e-09 9.39885e-12)
(2764.5 -4.80532e-09 7.29405e-12)
(2764.5 -3.84706e-09 5.82959e-12)
(2764.5 -3.15667e-09 4.77334e-12)
(2764.5 -2.65015e-09 3.90314e-12)
(2764.5 -2.25029e-09 3.35725e-12)
(2764.5 -1.93794e-09 2.87073e-12)
(2764.5 -1.68889e-09 2.49669e-12)
(2764.5 -1.48955e-09 2.24887e-12)
(2764.5 -1.33038e-09 1.93147e-12)
(2764.5 -1.1918e-09 1.69228e-12)
(2764.5 -1.08301e-09 1.5109e-12)
(2764.5 -9.87256e-10 1.32964e-12)
(2764.5 -8.96118e-10 1.26187e-12)
(2764.5 -8.24166e-10 1.11657e-12)
(2764.5 -7.66995e-10 1.02962e-12)
(2764.5 -7.07915e-10 9.50914e-13)
(2764.5 -6.56629e-10 8.74226e-13)
(2764.5 -6.08631e-10 8.15074e-13)
(2764.5 -5.68607e-10 7.47959e-13)
(2764.5 -5.40815e-10 7.00873e-13)
(2764.5 -5.17625e-10 6.40845e-13)
(2764.5 -4.84472e-10 6.16442e-13)
(2764.5 -4.56695e-10 5.66767e-13)
(2764.5 -4.38256e-10 5.38091e-13)
(2764.5 -4.14489e-10 5.15747e-13)
(2764.5 -3.92653e-10 4.90565e-13)
(2764.5 -3.74548e-10 4.63576e-13)
(2764.5 -3.62403e-10 4.37102e-13)
(2764.5 -3.53974e-10 4.01106e-13)
(2764.5 -3.37569e-10 3.83429e-13)
(2764.5 -3.1978e-10 3.46765e-13)
(2764.5 -3.16692e-10 3.52428e-13)
(2764.5 -3.05833e-10 3.19835e-13)
(2764.5 -2.97267e-10 3.08755e-13)
(2764.5 -2.91735e-10 2.86363e-13)
(2764.5 -2.78954e-10 2.8394e-13)
(2764.5 -2.6783e-10 2.6492e-13)
(2764.5 -2.61793e-10 2.66204e-13)
(2764.5 -2.5149e-10 2.42151e-13)
(2764.5 -2.46883e-10 2.47133e-13)
(2764.5 -2.4638e-10 2.3521e-13)
(2764.5 -2.40732e-10 2.33797e-13)
(2764.5 -2.43045e-10 2.29238e-13)
(2764.5 -2.35007e-10 2.10188e-13)
(2764.5 -2.27221e-10 2.0505e-13)
(2764.5 -2.18031e-10 1.92078e-13)
(2764.5 -2.14759e-10 1.85874e-13)
(2764.5 -2.12296e-10 1.67892e-13)
(2764.5 -2.05776e-10 1.7422e-13)
(2764.5 -2.05254e-10 1.65937e-13)
(2764.5 -1.97185e-10 1.59626e-13)
(2764.5 -2.03002e-10 1.72364e-13)
(2764.5 -1.99846e-10 1.67394e-13)
(2764.5 -2.00963e-10 1.52691e-13)
(2764.5 -2.00588e-10 1.39978e-13)
(2764.5 -2.02162e-10 1.36466e-13)
(2764.5 -1.96656e-10 1.32365e-13)
(2764.5 -1.8581e-10 1.4645e-13)
(2764.5 -1.81244e-10 1.35132e-13)
(2764.5 -1.76022e-10 1.23715e-13)
(2764.5 -1.74808e-10 1.2964e-13)
(2764.5 -1.83141e-10 1.07723e-13)
(2764.5 -1.76714e-10 1.03439e-13)
(2764.5 -1.74787e-10 1.05326e-13)
(2764.5 -1.73761e-10 1.14271e-13)
(2764.5 -1.809e-10 1.1261e-13)
(2764.5 -1.76784e-10 1.1599e-13)
(2764.5 -1.71593e-10 1.08107e-13)
(2764.5 -1.73813e-10 1.02253e-13)
(2764.5 -1.6878e-10 1.04796e-13)
(2764.5 -1.68899e-10 1.06879e-13)
(2764.5 -1.7317e-10 9.96531e-14)
(2764.5 -1.7065e-10 9.16346e-14)
(2764.5 -1.6229e-10 8.28784e-14)
(2764.5 -1.63276e-10 9.36592e-14)
(2764.5 -1.71669e-10 8.70244e-14)
(2764.5 -1.69868e-10 8.58054e-14)
(2764.5 -1.68368e-10 8.25922e-14)
(2764.5 -1.71065e-10 8.82108e-14)
(2764.5 -1.71392e-10 8.53767e-14)
(2764.5 -1.70981e-10 7.91703e-14)
(2764.5 -1.69292e-10 7.42248e-14)
(2764.5 -1.64202e-10 7.96135e-14)
(2764.5 -1.65978e-10 7.78777e-14)
(2764.5 -1.66232e-10 7.9511e-14)
(2764.5 -1.66178e-10 8.14165e-14)
(2764.5 -1.68185e-10 8.67283e-14)
(2764.5 -1.6876e-10 7.5191e-14)
(2764.5 -1.70669e-10 7.28543e-14)
(2764.5 -1.69825e-10 7.47453e-14)
(2764.5 -1.66475e-10 6.61022e-14)
(2764.5 -1.64889e-10 6.62253e-14)
(2764.5 -1.67997e-10 6.56194e-14)
(2764.5 -1.63485e-10 6.00177e-14)
(2764.5 -1.64104e-10 6.44322e-14)
(2764.5 -1.64739e-10 6.85857e-14)
(2764.5 -1.65632e-10 6.84155e-14)
(2764.5 -1.67215e-10 6.62399e-14)
(2764.5 -1.62784e-10 6.48928e-14)
(2764.5 -1.63422e-10 6.15769e-14)
(2764.5 -1.67396e-10 6.04985e-14)
(2764.5 -1.67703e-10 5.61216e-14)
(2764.5 -1.70513e-10 5.01591e-14)
(2764.5 -1.70793e-10 5.0854e-14)
(2764.5 -1.72721e-10 5.05642e-14)
(2764.5 -1.73651e-10 5.6355e-14)
(2764.5 -1.76483e-10 5.72482e-14)
(2764.5 -1.74017e-10 6.02352e-14)
(2764.5 -1.7513e-10 6.06964e-14)
(2764.5 -1.76214e-10 6.11135e-14)
(2764.5 -1.77079e-10 5.53006e-14)
(2764.5 -1.79307e-10 5.00502e-14)
(2764.5 -1.79503e-10 5.4275e-14)
(2764.5 -1.79331e-10 5.50512e-14)
(2764.5 -1.7792e-10 5.38144e-14)
(2764.5 -1.79218e-10 4.88752e-14)
(2764.5 -1.78881e-10 5.03459e-14)
(2764.5 -1.83555e-10 5.56644e-14)
(2764.5 -1.8473e-10 5.33818e-14)
(2764.5 -1.8308e-10 5.73673e-14)
(2764.5 -1.81777e-10 5.85158e-14)
(2764.5 -1.82313e-10 5.24117e-14)
(2764.5 -1.8504e-10 5.00446e-14)
(2764.5 -1.87828e-10 5.03179e-14)
(2764.5 -1.9036e-10 5.11109e-14)
(2764.5 -1.9083e-10 4.85403e-14)
(2764.5 -1.94234e-10 4.76564e-14)
(2764.5 -2.00875e-10 4.97757e-14)
(2764.5 -2.04754e-10 4.796e-14)
(2764.5 -2.12797e-10 5.80507e-14)
(2764.5 -2.1925e-10 5.27125e-14)
(2764.5 -2.20546e-10 4.98193e-14)
(2764.5 -2.21495e-10 4.65632e-14)
(2764.5 -2.20074e-10 4.57424e-14)
(2764.5 -2.14694e-10 4.75024e-14)
(2764.5 -1.99873e-10 4.20684e-14)
(2764.5 -1.99801e-10 4.33584e-14)
(2764.5 -2.02795e-10 4.57928e-14)
(2764.5 -2.1295e-10 4.76381e-14)
(2764.5 -2.20874e-10 4.54914e-14)
(2764.5 -2.26322e-10 4.79229e-14)
(2764.5 -2.26759e-10 4.74551e-14)
(2764.5 -2.22258e-10 4.1576e-14)
(2764.5 -2.26438e-10 4.27194e-14)
(2764.5 -2.33034e-10 4.59849e-14)
(2764.5 -2.38268e-10 4.96767e-14)
(2764.5 -2.41906e-10 3.89266e-14)
(2764.5 -2.45772e-10 4.53145e-14)
(2764.5 -2.49523e-10 4.32908e-14)
(2764.5 -1.62711e-07 2.73877e-10)
(2764.5 -8.68559e-08 1.35874e-10)
(2764.5 -4.48788e-08 6.6334e-11)
(2764.5 -2.54203e-08 3.67611e-11)
(2764.5 -1.61546e-08 2.35066e-11)
(2764.5 -1.12289e-08 1.64648e-11)
(2764.5 -8.33043e-09 1.21806e-11)
(2764.5 -6.47789e-09 9.47951e-12)
(2764.5 -5.17999e-09 7.60264e-12)
(2764.5 -4.24034e-09 6.25827e-12)
(2764.5 -3.55125e-09 5.15482e-12)
(2764.5 -3.01665e-09 4.35512e-12)
(2764.5 -2.59835e-09 3.70367e-12)
(2764.5 -2.26156e-09 3.22274e-12)
(2764.5 -1.98637e-09 2.8634e-12)
(2764.5 -1.77404e-09 2.51255e-12)
(2764.5 -1.59212e-09 2.19609e-12)
(2764.5 -1.44623e-09 1.9867e-12)
(2764.5 -1.32117e-09 1.80233e-12)
(2764.5 -1.20038e-09 1.62892e-12)
(2764.5 -1.09333e-09 1.48433e-12)
(2764.5 -1.01325e-09 1.36046e-12)
(2764.5 -9.41568e-10 1.22971e-12)
(2764.5 -8.78374e-10 1.14941e-12)
(2764.5 -8.1587e-10 1.0365e-12)
(2764.5 -7.6498e-10 1.00491e-12)
(2764.5 -7.1339e-10 9.14921e-13)
(2764.5 -6.79383e-10 8.68861e-13)
(2764.5 -6.44319e-10 8.235e-13)
(2764.5 -6.09194e-10 7.60406e-13)
(2764.5 -5.78597e-10 6.95413e-13)
(2764.5 -5.46678e-10 6.67702e-13)
(2764.5 -5.24316e-10 6.09875e-13)
(2764.5 -5.00283e-10 5.67791e-13)
(2764.5 -4.77645e-10 5.52418e-13)
(2764.5 -4.66165e-10 5.3736e-13)
(2764.5 -4.48979e-10 4.96389e-13)
(2764.5 -4.29461e-10 4.67815e-13)
(2764.5 -4.1572e-10 4.34745e-13)
(2764.5 -4.01817e-10 4.10918e-13)
(2764.5 -3.89328e-10 4.09861e-13)
(2764.5 -3.82841e-10 3.92574e-13)
(2764.5 -3.65608e-10 3.74101e-13)
(2764.5 -3.51678e-10 3.62601e-13)
(2764.5 -3.43628e-10 3.48114e-13)
(2764.5 -3.35497e-10 3.29932e-13)
(2764.5 -3.27061e-10 3.10671e-13)
(2764.5 -3.24812e-10 3.0351e-13)
(2764.5 -3.16603e-10 2.90479e-13)
(2764.5 -3.14104e-10 2.68439e-13)
(2764.5 -3.1076e-10 2.74781e-13)
(2764.5 -2.9771e-10 2.62687e-13)
(2764.5 -2.88317e-10 2.54225e-13)
(2764.5 -2.82038e-10 2.42954e-13)
(2764.5 -2.76571e-10 2.40222e-13)
(2764.5 -2.66265e-10 2.33179e-13)
(2764.5 -2.64197e-10 2.11795e-13)
(2764.5 -2.58849e-10 2.05632e-13)
(2764.5 -2.64003e-10 2.14323e-13)
(2764.5 -2.68781e-10 1.94216e-13)
(2764.5 -2.63487e-10 1.87389e-13)
(2764.5 -2.61203e-10 1.80909e-13)
(2764.5 -2.60998e-10 1.8163e-13)
(2764.5 -2.57125e-10 1.89439e-13)
(2764.5 -2.45895e-10 1.74788e-13)
(2764.5 -2.37918e-10 1.75447e-13)
(2764.5 -2.32616e-10 1.69511e-13)
(2764.5 -2.28677e-10 1.55337e-13)
(2764.5 -2.3605e-10 1.59713e-13)
(2764.5 -2.32751e-10 1.57618e-13)
(2764.5 -2.26466e-10 1.47314e-13)
(2764.5 -2.24176e-10 1.48893e-13)
(2764.5 -2.31424e-10 1.43612e-13)
(2764.5 -2.31417e-10 1.39998e-13)
(2764.5 -2.25153e-10 1.41458e-13)
(2764.5 -2.24022e-10 1.38598e-13)
(2764.5 -2.22383e-10 1.40808e-13)
(2764.5 -2.19555e-10 1.31257e-13)
(2764.5 -2.1902e-10 1.21446e-13)
(2764.5 -2.19911e-10 1.21221e-13)
(2764.5 -2.12409e-10 1.27968e-13)
(2764.5 -2.07183e-10 1.19355e-13)
(2764.5 -2.1466e-10 1.12159e-13)
(2764.5 -2.17031e-10 1.13868e-13)
(2764.5 -2.15918e-10 1.12475e-13)
(2764.5 -2.17391e-10 1.09062e-13)
(2764.5 -2.18673e-10 1.01229e-13)
(2764.5 -2.17462e-10 1.07781e-13)
(2764.5 -2.19354e-10 1.13848e-13)
(2764.5 -2.19178e-10 1.12355e-13)
(2764.5 -2.17315e-10 1.03989e-13)
(2764.5 -2.15646e-10 1.01974e-13)
(2764.5 -2.13399e-10 9.97755e-14)
(2764.5 -2.14673e-10 9.5619e-14)
(2764.5 -2.13653e-10 9.58764e-14)
(2764.5 -2.19252e-10 9.78648e-14)
(2764.5 -2.19671e-10 8.80176e-14)
(2764.5 -2.18702e-10 8.74993e-14)
(2764.5 -2.14054e-10 9.08771e-14)
(2764.5 -2.14539e-10 8.49207e-14)
(2764.5 -2.15862e-10 7.93432e-14)
(2764.5 -2.14463e-10 8.28591e-14)
(2764.5 -2.14036e-10 8.80711e-14)
(2764.5 -2.12507e-10 8.04829e-14)
(2764.5 -2.12375e-10 8.04932e-14)
(2764.5 -2.11519e-10 8.3139e-14)
(2764.5 -2.11046e-10 8.0524e-14)
(2764.5 -2.13498e-10 7.95498e-14)
(2764.5 -2.149e-10 7.48247e-14)
(2764.5 -2.20174e-10 7.63867e-14)
(2764.5 -2.20411e-10 7.62857e-14)
(2764.5 -2.20476e-10 7.46614e-14)
(2764.5 -2.1968e-10 7.67411e-14)
(2764.5 -2.23451e-10 6.35569e-14)
(2764.5 -2.22044e-10 6.36871e-14)
(2764.5 -2.2562e-10 6.88427e-14)
(2764.5 -2.25131e-10 7.27985e-14)
(2764.5 -2.24851e-10 6.96096e-14)
(2764.5 -2.24211e-10 7.31133e-14)
(2764.5 -2.26202e-10 7.56261e-14)
(2764.5 -2.27882e-10 6.94398e-14)
(2764.5 -2.27508e-10 6.63454e-14)
(2764.5 -2.30032e-10 6.88922e-14)
(2764.5 -2.31387e-10 7.20245e-14)
(2764.5 -2.34567e-10 6.77476e-14)
(2764.5 -2.36134e-10 7.09064e-14)
(2764.5 -2.37618e-10 7.30957e-14)
(2764.5 -2.37276e-10 6.50383e-14)
(2764.5 -2.35791e-10 6.27603e-14)
(2764.5 -2.37609e-10 6.12037e-14)
(2764.5 -2.38791e-10 6.19365e-14)
(2764.5 -2.41762e-10 6.55108e-14)
(2764.5 -2.43194e-10 6.42712e-14)
(2764.5 -2.44364e-10 6.70229e-14)
(2764.5 -2.48616e-10 6.70117e-14)
(2764.5 -2.54261e-10 6.6511e-14)
(2764.5 -2.59809e-10 6.80694e-14)
(2764.5 -2.67648e-10 6.168e-14)
(2764.5 -2.73334e-10 6.17333e-14)
(2764.5 -2.76958e-10 5.64619e-14)
(2764.5 -2.80457e-10 6.15811e-14)
(2764.5 -2.82407e-10 5.97278e-14)
(2764.5 -2.85181e-10 5.9644e-14)
(2764.5 -2.6894e-10 6.11351e-14)
(2764.5 -2.65365e-10 6.26481e-14)
(2764.5 -2.66828e-10 6.21628e-14)
(2764.5 -2.72996e-10 5.68914e-14)
(2764.5 -2.78501e-10 5.45121e-14)
(2764.5 -2.8184e-10 5.42006e-14)
(2764.5 -2.8218e-10 5.57768e-14)
(2764.5 -2.83579e-10 5.20068e-14)
(2764.5 -2.8848e-10 6.3164e-14)
(2764.5 -2.95349e-10 5.7164e-14)
(2764.5 -2.99583e-10 5.27866e-14)
(2764.5 -3.05391e-10 6.22705e-14)
(2764.5 -3.12639e-10 6.16292e-14)
(2764.5 -1.82797e-07 3.07091e-10)
(2764.5 -1.06085e-07 1.64579e-10)
(2764.5 -5.78127e-08 8.34896e-11)
(2764.5 -3.32684e-08 4.65321e-11)
(2764.5 -2.1061e-08 2.94718e-11)
(2764.5 -1.45262e-08 2.04602e-11)
(2764.5 -1.07051e-08 1.52581e-11)
(2764.5 -8.29273e-09 1.17213e-11)
(2764.5 -6.62306e-09 9.3351e-12)
(2764.5 -5.40612e-09 7.65616e-12)
(2764.5 -4.51883e-09 6.35585e-12)
(2764.5 -3.83552e-09 5.36241e-12)
(2764.5 -3.29927e-09 4.59456e-12)
(2764.5 -2.87072e-09 4.0214e-12)
(2764.5 -2.51932e-09 3.47399e-12)
(2764.5 -2.24701e-09 3.05722e-12)
(2764.5 -2.02148e-09 2.73092e-12)
(2764.5 -1.83425e-09 2.42391e-12)
(2764.5 -1.67059e-09 2.20773e-12)
(2764.5 -1.51891e-09 1.97368e-12)
(2764.5 -1.38563e-09 1.82202e-12)
(2764.5 -1.27601e-09 1.66534e-12)
(2764.5 -1.1897e-09 1.51578e-12)
(2764.5 -1.10856e-09 1.36815e-12)
(2764.5 -1.0337e-09 1.29068e-12)
(2764.5 -9.69687e-10 1.22301e-12)
(2764.5 -9.06014e-10 1.12636e-12)
(2764.5 -8.54393e-10 1.06521e-12)
(2764.5 -8.11206e-10 9.75475e-13)
(2764.5 -7.65237e-10 8.91056e-13)
(2764.5 -7.23926e-10 8.54764e-13)
(2764.5 -6.87155e-10 8.01467e-13)
(2764.5 -6.5997e-10 7.50696e-13)
(2764.5 -6.3179e-10 7.16244e-13)
(2764.5 -6.02353e-10 6.76128e-13)
(2764.5 -5.79381e-10 6.15028e-13)
(2764.5 -5.5803e-10 6.20771e-13)
(2764.5 -5.42795e-10 5.81339e-13)
(2764.5 -5.23735e-10 5.52401e-13)
(2764.5 -5.03939e-10 5.30498e-13)
(2764.5 -4.85238e-10 4.90013e-13)
(2764.5 -4.80039e-10 4.70911e-13)
(2764.5 -4.61975e-10 4.52481e-13)
(2764.5 -4.38977e-10 4.41602e-13)
(2764.5 -4.27437e-10 4.20519e-13)
(2764.5 -4.19182e-10 4.18909e-13)
(2764.5 -4.09543e-10 3.80635e-13)
(2764.5 -4.05114e-10 3.70503e-13)
(2764.5 -3.97901e-10 3.63728e-13)
(2764.5 -3.88629e-10 3.42397e-13)
(2764.5 -3.83386e-10 3.32561e-13)
(2764.5 -3.76529e-10 3.19989e-13)
(2764.5 -3.60605e-10 3.07662e-13)
(2764.5 -3.49856e-10 3.05022e-13)
(2764.5 -3.44596e-10 2.85089e-13)
(2764.5 -3.32223e-10 2.72621e-13)
(2764.5 -3.24936e-10 2.63132e-13)
(2764.5 -3.18602e-10 2.64485e-13)
(2764.5 -3.22238e-10 2.50896e-13)
(2764.5 -3.34389e-10 2.39804e-13)
(2764.5 -3.26374e-10 2.42886e-13)
(2764.5 -3.20531e-10 2.28637e-13)
(2764.5 -3.23878e-10 2.2213e-13)
(2764.5 -3.20431e-10 2.16086e-13)
(2764.5 -3.09433e-10 2.11143e-13)
(2764.5 -2.99987e-10 2.14965e-13)
(2764.5 -2.93042e-10 2.03177e-13)
(2764.5 -2.84248e-10 1.8796e-13)
(2764.5 -2.88019e-10 1.98389e-13)
(2764.5 -2.90034e-10 1.87337e-13)
(2764.5 -2.83386e-10 1.7664e-13)
(2764.5 -2.78057e-10 1.76962e-13)
(2764.5 -2.81839e-10 1.78743e-13)
(2764.5 -2.8494e-10 1.66985e-13)
(2764.5 -2.79207e-10 1.7381e-13)
(2764.5 -2.74928e-10 1.71258e-13)
(2764.5 -2.77641e-10 1.65056e-13)
(2764.5 -2.81025e-10 1.57021e-13)
(2764.5 -2.73331e-10 1.68661e-13)
(2764.5 -2.72809e-10 1.60141e-13)
(2764.5 -2.65746e-10 1.56067e-13)
(2764.5 -2.58238e-10 1.4324e-13)
(2764.5 -2.57039e-10 1.41611e-13)