/*--------------------------------*- C++ -*----------------------------------*\
| =========                 |                                                 |
| \\      /  F ield         | OpenFOAM: The Open Source CFD Toolbox           |
|  \\    /   O peration     | Version:  v1706                                 |
|   \\  /    A nd           | Web:      www.OpenFOAM.com                      |
|    \\/     M anipulation  |                                                 |
\*---------------------------------------------------------------------------*/
FoamFile
{
    version     2.0;
    format      ascii;
    class       volScalarField;
    location    "1e-05";
    object      wallHeatFlux;
}
// * * * * * * * * * * * * * * * * * * * * * * * * * * * * * * * * * * * * * //

dimensions      [1 0 -3 0 0 0 0];


internalField   uniform 0;

boundaryField
{
    cone
    {
        type            calculated;
        value           nonuniform List<scalar> 
147
(
996001
995683
995330
994929
994474
993953
993361
992700
991966
991163
990290
989347
988335
987255
986106
984888
983602
982248
980826
979336
977779
976153
974457
972691
970856
968952
966979
964937
962826
960646
958398
956082
953699
951248
948730
946146
943497
940781
938000
935153
932242
929265
926226
923122
919956
916728
913439
910088
906677
903206
899675
896086
892440
888736
884975
881160
877288
873361
869381
865347
861259
857120
852930
848689
844398
840058
835670
831234
826752
822224
817650
813032
808370
803666
798920
794132
789304
784436
779530
774586
769606
764588
759535
754448
749326
744173
738987
733771
728524
723248
717942
712610
707250
701864
696454
691020
685562
680082
674580
669058
663517
657957
652380
646786
641177
635552
629914
624263
618600
612927
607244
601553
595854
590147
584435
578718
572995
567269
561541
555810
550079
544347
538616
532889
527165
521445
515732
510024
504323
498629
492944
487268
481602
475947
470303
464672
459053
453448
447858
442283
436724
431181
425657
420151
414664
409197
997062
)
;
    }
    inlet
    {
        type            calculated;
        value           uniform 0;
    }
    rWedge
    {
        type            wedge;
    }
    lWedge
    {
        type            wedge;
    }
    outlet
    {
        type            calculated;
        value           nonuniform 0();
    }
    procBoundary3to2
    {
        type            processor;
        value           uniform 0;
    }
}


// ************************************************************************* //
