/*--------------------------------*- C++ -*----------------------------------*\
| =========                 |                                                 |
| \\      /  F ield         | OpenFOAM: The Open Source CFD Toolbox           |
|  \\    /   O peration     | Version:  v1706                                 |
|   \\  /    A nd           | Web:      www.OpenFOAM.com                      |
|    \\/     M anipulation  |                                                 |
\*---------------------------------------------------------------------------*/
FoamFile
{
    version     2.0;
    format      ascii;
    class       volVectorField;
    location    "9e-06";
    object      U;
}
// * * * * * * * * * * * * * * * * * * * * * * * * * * * * * * * * * * * * * //

dimensions      [0 1 -1 0 0 0 0];


internalField   nonuniform List<vector> 
30104
(
(2764.5 -4.68481e-11 3.68957e-15)
(2764.5 -4.50289e-11 6.00018e-15)
(2764.5 -4.33494e-11 4.46772e-15)
(2764.5 -4.30467e-11 2.83136e-15)
(2764.5 -4.26712e-11 3.8338e-15)
(2764.5 -4.26908e-11 2.5629e-15)
(2764.5 -4.33991e-11 2.39641e-17)
(2764.5 -4.4927e-11 1.384e-15)
(2764.5 -4.57683e-11 4.40423e-15)
(2764.5 -4.64724e-11 4.47131e-15)
(2764.5 -4.68439e-11 3.83815e-15)
(2764.5 -4.47415e-11 4.31238e-15)
(2764.5 -4.32569e-11 2.18426e-15)
(2764.5 -4.2641e-11 2.54071e-15)
(2764.5 -4.29911e-11 4.70048e-15)
(2764.5 -4.32635e-11 4.82237e-15)
(2764.5 -4.36813e-11 4.30901e-15)
(2764.5 -4.34951e-11 2.15823e-15)
(2764.5 -4.42064e-11 2.934e-15)
(2764.5 -4.41214e-11 2.86353e-15)
(2764.5 -4.14184e-11 2.75154e-15)
(2764.5 -3.95009e-11 2.78267e-15)
(2764.5 -3.85647e-11 2.57381e-15)
(2764.5 -4.0534e-11 2.15006e-15)
(2764.5 -4.19162e-11 3.67364e-15)
(2764.5 -3.98344e-11 3.24081e-15)
(2764.5 -3.80622e-11 2.44986e-15)
(2764.5 -3.73804e-11 2.9062e-15)
(2764.5 -3.61123e-11 2.0171e-15)
(2764.5 -3.21983e-11 4.40751e-15)
(2764.5 -2.96641e-11 3.74169e-15)
(2764.5 -2.95983e-11 8.04595e-16)
(2764.5 -3.27122e-11 1.93561e-15)
(2764.5 -3.53502e-11 2.1424e-15)
(2764.5 -3.75036e-11 3.09477e-15)
(2764.5 -3.87286e-11 4.75546e-15)
(2764.5 -4.1112e-11 2.42289e-15)
(2764.5 -4.24089e-11 3.52627e-15)
(2764.5 -4.49775e-11 3.03428e-15)
(2764.5 -4.49573e-11 1.75484e-15)
(2764.5 -4.5392e-11 1.7647e-15)
(2764.5 -4.39788e-11 1.72655e-15)
(2764.5 -4.29423e-11 1.68225e-15)
(2764.5 -4.28871e-11 1.59867e-15)
(2764.5 -4.01295e-11 1.8428e-15)
(2764.5 -3.8942e-11 1.98487e-15)
(2764.5 -4.00739e-11 2.295e-15)
(2764.5 -4.10692e-11 1.07244e-15)
(2764.5 -4.12493e-11 2.83062e-15)
(2764.5 -4.29993e-11 4.56489e-15)
(2764.5 -4.25001e-11 1.40642e-15)
(2764.5 -4.16269e-11 1.01126e-15)
(2764.5 -4.09671e-11 1.67599e-15)
(2764.5 -3.89252e-11 3.72619e-15)
(2764.5 -3.80104e-11 1.45627e-15)
(2764.5 -4.02133e-11 2.12957e-15)
(2764.5 -4.13897e-11 2.40376e-15)
(2764.5 -3.95479e-11 1.54318e-15)
(2764.5 -3.36979e-11 2.02809e-15)
(2764.5 -3.17562e-11 1.75571e-15)
(2764.5 -2.84995e-11 3.63188e-15)
(2764.5 -2.87313e-11 3.7638e-15)
(2764.5 -2.66072e-11 1.94457e-15)
(2764.5 -2.53961e-11 2.33154e-15)
(2764.5 -2.60421e-11 2.44701e-15)
(2764.5 -2.85252e-11 2.69633e-15)
(2764.5 -2.93753e-11 -1.90564e-16)
(2764.5 -2.69677e-11 4.32276e-15)
(2764.5 -2.95443e-11 3.17106e-15)
(2764.5 -3.40324e-11 1.04061e-15)
(2764.5 -3.6907e-11 1.84419e-15)
(2764.5 -3.8584e-11 2.1391e-15)
(2764.5 -4.16377e-11 9.76652e-16)
(2764.5 -4.58213e-11 2.54679e-15)
(2764.5 -4.3442e-11 2.79332e-15)
(2764.5 -4.14092e-11 1.854e-15)
(2764.5 -3.94505e-11 1.57864e-15)
(2764.5 -4.05077e-11 9.8879e-16)
(2764.5 -4.34125e-11 2.52584e-15)
(2764.5 -4.113e-11 2.6706e-15)
(2764.5 -3.79849e-11 1.16338e-15)
(2764.5 -3.68917e-11 3.89328e-15)
(2764.5 -3.72618e-11 3.14906e-15)
(2764.5 -3.70984e-11 2.5641e-15)
(2764.5 -3.86286e-11 3.48422e-15)
(2764.5 -3.90419e-11 2.43484e-15)
(2764.5 -3.8671e-11 2.57118e-15)
(2764.5 -3.83554e-11 2.07914e-15)
(2764.5 -3.79635e-11 1.75352e-15)
(2764.5 -3.84327e-11 1.99967e-15)
(2764.5 -3.96863e-11 2.89398e-16)
(2764.5 -4.24236e-11 1.78072e-15)
(2764.5 -4.51564e-11 2.51293e-15)
(2764.5 -4.82796e-11 2.18827e-15)
(2764.5 -5.00364e-11 9.24702e-17)
(2764.5 -5.13651e-11 -5.43845e-16)
(2764.5 -5.1149e-11 1.97366e-15)
(2764.5 -5.28866e-11 1.29357e-15)
(2764.5 -5.32436e-11 2.03888e-15)
(2764.5 -5.22031e-11 1.16435e-15)
(2764.5 -4.81586e-11 4.31211e-16)
(2764.5 -4.73755e-11 2.41207e-15)
(2764.5 -4.94637e-11 3.13127e-15)
(2764.5 -4.98975e-11 2.90001e-15)
(2764.5 -5.20865e-11 1.99988e-15)
(2764.5 -5.27228e-11 1.84146e-15)
(2764.5 -4.27866e-11 2.19185e-15)
(2764.5 -3.71211e-11 2.31847e-15)
(2764.5 -3.1199e-11 1.64124e-15)
(2764.5 -2.76852e-11 2.97202e-15)
(2764.5 -2.40934e-11 2.26848e-15)
(2764.5 -2.13439e-11 1.28872e-15)
(2764.5 -2.13096e-11 2.20044e-15)
(2764.5 -1.92867e-11 1.14268e-15)
(2764.5 -1.23479e-11 2.92412e-16)
(2764.5 -8.78246e-12 2.24734e-15)
(2764.5 -9.90884e-12 2.19206e-15)
(2764.5 -9.45709e-12 2.09422e-15)
(2764.5 -7.70742e-12 2.20043e-15)
(2764.5 -1.08385e-11 1.67384e-15)
(2764.5 -1.84466e-11 1.43248e-15)
(2764.5 -2.84393e-11 1.09803e-15)
(2764.5 -3.819e-11 1.33567e-15)
(2764.5 -4.80824e-11 5.14131e-16)
(2764.5 -5.93493e-11 -6.63469e-16)
(2764.5 -6.79387e-11 1.65192e-15)
(2764.5 -6.7874e-11 2.41181e-15)
(2764.5 -6.94203e-11 1.87499e-15)
(2764.5 -7.24972e-11 1.8356e-15)
(2764.5 -7.4217e-11 1.43404e-15)
(2764.5 -7.84102e-11 1.34409e-15)
(2764.5 -8.44197e-11 -2.81384e-16)
(2764.5 -9.18095e-11 1.20349e-15)
(2764.5 -8.65721e-11 2.05664e-15)
(2764.5 -8.5882e-11 1.81606e-15)
(2764.5 -8.03187e-11 1.94797e-15)
(2764.5 -7.47458e-11 1.43207e-15)
(2764.5 -6.70749e-11 2.12658e-15)
(2764.5 -6.07506e-11 1.21746e-15)
(2764.5 -5.4927e-11 2.96221e-15)
(2764.5 -4.67837e-11 3.64206e-15)
(2764.5 -3.1997e-11 1.06272e-15)
(2764.5 -1.69893e-11 -7.4802e-17)
(2764.5 -1.14778e-11 1.08799e-15)
(2764.5 -5.10914e-12 1.46037e-15)
(2764.5 4.96795e-12 1.87383e-15)
(2764.5 1.03407e-11 1.50321e-15)
(2764.5 1.65264e-11 1.24549e-15)
(2764.5 1.81511e-11 2.08839e-15)
(2764.5 1.59971e-11 1.63386e-15)
(2764.5 1.32002e-11 2.0304e-15)
(2764.5 1.55777e-11 1.07636e-15)
(2764.5 1.75499e-11 1.92311e-15)
(2764.5 1.04448e-11 -3.85216e-16)
(2764.5 4.40405e-12 1.27214e-15)
(2764.5 3.29717e-12 1.08443e-15)
(2764.5 1.10848e-11 3.07742e-16)
(2764.5 2.06477e-11 1.73133e-15)
(2764.5 2.11846e-11 2.11609e-15)
(2764.5 1.11177e-11 1.67071e-15)
(2764.5 -1.74595e-12 1.57056e-15)
(2764.5 -2.5007e-11 8.10799e-16)
(2764.5 -4.46314e-11 -3.22197e-16)
(2764.5 -5.88594e-11 2.22734e-15)
(2764.5 -7.88761e-11 1.56077e-15)
(2764.5 -9.12896e-11 5.40601e-16)
(2764.5 -1.12515e-10 2.98363e-16)
(2764.5 -1.19262e-10 2.19158e-15)
(2764.5 -1.31101e-10 3.63903e-16)
(2764.5 -1.45296e-10 1.16924e-15)
(2764.5 -1.49447e-10 6.48048e-16)
(2764.5 -1.46842e-10 1.06865e-15)
(2764.5 -1.33174e-10 1.91609e-15)
(2764.5 -1.20017e-10 1.37812e-15)
(2764.5 -1.22301e-10 2.59852e-15)
(2764.5 -1.24111e-10 1.85713e-15)
(2764.5 -1.01111e-10 1.21348e-15)
(2764.5 -8.46754e-11 1.50095e-15)
(2764.5 -7.72291e-11 2.3977e-15)
(2764.5 -7.09469e-11 1.09729e-15)
(2764.5 -6.31963e-11 2.177e-15)
(2764.5 -5.07381e-11 2.15969e-15)
(2764.5 -2.56737e-11 1.75962e-15)
(2764.5 -2.80685e-12 3.36466e-15)
(2764.5 7.75004e-12 2.07896e-15)
(2764.5 3.26379e-11 2.0555e-15)
(2764.5 5.30186e-11 6.75561e-16)
(2764.5 8.03069e-11 1.71297e-15)
(2764.5 1.03016e-10 1.51098e-15)
(2764.5 1.21444e-10 1.74214e-15)
(2764.5 1.3935e-10 1.22929e-15)
(2764.5 1.42465e-10 8.41394e-16)
(2764.5 1.45298e-10 6.69878e-16)
(2764.5 1.40039e-10 1.55472e-15)
(2764.5 1.24562e-10 1.09335e-15)
(2764.5 1.12567e-10 4.69384e-16)
(2764.5 1.00794e-10 7.93459e-16)
(2764.5 8.494e-11 2.97783e-16)
(2764.5 7.21561e-11 7.60347e-16)
(2764.5 5.51209e-11 1.15873e-15)
(2764.5 2.99167e-11 5.84907e-16)
(2764.5 -3.7075e-13 1.07349e-15)
(2764.5 -3.19219e-11 1.32402e-15)
(2764.5 -6.80142e-11 3.92842e-16)
(2764.5 -1.15922e-10 9.62729e-16)
(2764.5 -1.52705e-10 1.16987e-15)
(2764.5 -1.67409e-10 6.56382e-16)
(2764.5 -1.91164e-10 4.15749e-16)
(2764.5 -2.06313e-10 4.32845e-16)
(2764.5 -2.47668e-10 2.35184e-16)
(2764.5 -1.27607e-10 1.44966e-14)
(2764.5 -1.3034e-10 1.35472e-14)
(2764.5 -1.29448e-10 1.02413e-14)
(2764.5 -1.2767e-10 9.42078e-15)
(2764.5 -1.2703e-10 1.09582e-14)
(2764.5 -1.25558e-10 9.55646e-15)
(2764.5 -1.22743e-10 1.01594e-14)
(2764.5 -1.21829e-10 1.29669e-14)
(2764.5 -1.21504e-10 1.48153e-14)
(2764.5 -1.20881e-10 1.06603e-14)
(2764.5 -1.21745e-10 1.15191e-14)
(2764.5 -1.2443e-10 9.69597e-15)
(2764.5 -1.23278e-10 1.57166e-14)
(2764.5 -1.23132e-10 1.5729e-14)
(2764.5 -1.20925e-10 1.54234e-14)
(2764.5 -1.18491e-10 1.47254e-14)
(2764.5 -1.16719e-10 1.27081e-14)
(2764.5 -9.90511e-11 1.9614e-15)
(2764.5 -1.00619e-10 7.72028e-15)
(2764.5 -1.04273e-10 9.80921e-15)
(2764.5 -1.10832e-10 9.43795e-15)
(2764.5 -1.14527e-10 8.75747e-15)
(2764.5 -1.14613e-10 9.87953e-15)
(2764.5 -1.117e-10 7.50673e-15)
(2764.5 -1.12232e-10 8.10293e-15)
(2764.5 -1.16128e-10 8.45267e-15)
(2764.5 -1.16517e-10 6.67311e-15)
(2764.5 -1.1667e-10 5.10813e-15)
(2764.5 -1.17614e-10 6.51402e-15)
(2764.5 -1.21775e-10 6.78275e-15)
(2764.5 -1.20459e-10 6.25621e-15)
(2764.5 -1.11614e-10 4.35574e-15)
(2764.5 -1.04127e-10 4.82194e-15)
(2764.5 -9.98722e-11 6.64259e-15)
(2764.5 -9.82922e-11 4.98759e-15)
(2764.5 -9.38234e-11 8.43904e-15)
(2764.5 -9.28256e-11 8.10427e-15)
(2764.5 -9.22848e-11 9.44226e-15)
(2764.5 -9.39259e-11 9.77081e-15)
(2764.5 -9.87914e-11 9.39375e-15)
(2764.5 -1.00645e-10 8.91075e-15)
(2764.5 -1.09123e-10 8.48998e-15)
(2764.5 -1.15032e-10 8.0503e-15)
(2764.5 -1.17993e-10 7.77279e-15)
(2764.5 -1.18943e-10 7.64661e-15)
(2764.5 -1.15729e-10 7.65119e-15)
(2764.5 -1.09774e-10 7.51458e-15)
(2764.5 -1.09916e-10 7.07342e-15)
(2764.5 -1.09717e-10 8.53723e-15)
(2764.5 -1.08229e-10 8.03448e-15)
(2764.5 -1.11633e-10 7.86003e-15)
(2764.5 -1.13028e-10 5.49056e-15)
(2764.5 -1.15176e-10 6.676e-15)
(2764.5 -1.17375e-10 8.25374e-15)
(2764.5 -1.15513e-10 5.76155e-15)
(2764.5 -1.11165e-10 6.90054e-15)
(2764.5 -1.11682e-10 8.09733e-15)
(2764.5 -1.13076e-10 8.8267e-15)
(2764.5 -1.13503e-10 9.78337e-15)
(2764.5 -1.0994e-10 7.69876e-15)
(2764.5 -1.1326e-10 7.45111e-15)
(2764.5 -1.1244e-10 1.05497e-14)
(2764.5 -1.16328e-10 8.86194e-15)
(2764.5 -1.16171e-10 4.94405e-15)
(2764.5 -1.12804e-10 4.22995e-15)
(2764.5 -1.05786e-10 6.83256e-15)
(2764.5 -1.05226e-10 4.37429e-15)
(2764.5 -1.07105e-10 7.22984e-15)
(2764.5 -1.02568e-10 7.00007e-15)
(2764.5 -9.565e-11 6.77571e-15)
(2764.5 -9.03794e-11 7.82988e-15)
(2764.5 -9.05201e-11 4.68907e-15)
(2764.5 -8.63964e-11 5.33889e-15)
(2764.5 -8.76085e-11 6.78704e-15)
(2764.5 -9.57495e-11 5.49993e-15)
(2764.5 -1.04054e-10 8.21162e-15)
(2764.5 -1.06378e-10 7.17652e-15)
(2764.5 -1.0127e-10 5.7634e-15)
(2764.5 -1.05035e-10 6.1105e-15)
(2764.5 -1.12205e-10 5.59765e-15)
(2764.5 -1.18905e-10 5.76085e-15)
(2764.5 -1.17736e-10 7.47223e-15)
(2764.5 -1.19774e-10 7.83912e-15)
(2764.5 -1.23158e-10 7.28872e-15)
(2764.5 -1.26358e-10 4.72932e-15)
(2764.5 -1.32485e-10 7.96438e-15)
(2764.5 -1.40305e-10 6.59718e-15)
(2764.5 -1.44706e-10 6.41991e-15)
(2764.5 -1.45082e-10 6.12925e-15)
(2764.5 -1.422e-10 5.7159e-15)
(2764.5 -1.37222e-10 5.41266e-15)
(2764.5 -1.29568e-10 8.9885e-15)
(2764.5 -1.26458e-10 9.37895e-15)
(2764.5 -1.28158e-10 6.32587e-15)
(2764.5 -1.22665e-10 4.61611e-15)
(2764.5 -1.20972e-10 5.92495e-15)
(2764.5 -1.18459e-10 4.87024e-15)
(2764.5 -1.14372e-10 3.69658e-15)
(2764.5 -1.12741e-10 4.2925e-15)
(2764.5 -1.09511e-10 4.13177e-15)
(2764.5 -1.11342e-10 6.27232e-15)
(2764.5 -1.00338e-10 6.29962e-15)
(2764.5 -8.98268e-11 6.05552e-15)
(2764.5 -8.0079e-11 5.13401e-15)
(2764.5 -7.66959e-11 5.55023e-15)
(2764.5 -7.95986e-11 6.98083e-15)
(2764.5 -9.20501e-11 7.24153e-15)
(2764.5 -9.47387e-11 7.97727e-15)
(2764.5 -9.66756e-11 7.89722e-15)
(2764.5 -1.0749e-10 7.12226e-15)
(2764.5 -1.12492e-10 7.8711e-15)
(2764.5 -1.17295e-10 2.38075e-15)
(2764.5 -1.16981e-10 3.12568e-15)
(2764.5 -1.2309e-10 2.73978e-15)
(2764.5 -1.32546e-10 2.68294e-15)
(2764.5 -1.39648e-10 7.57608e-15)
(2764.5 -1.39718e-10 3.7712e-15)
(2764.5 -1.52225e-10 5.74228e-15)
(2764.5 -1.61217e-10 3.62991e-15)
(2764.5 -1.70024e-10 3.90646e-15)
(2764.5 -1.6082e-10 6.02897e-15)
(2764.5 -1.67231e-10 6.61167e-15)
(2764.5 -1.57454e-10 6.77266e-15)
(2764.5 -1.45903e-10 4.07178e-15)
(2764.5 -1.41138e-10 7.05487e-15)
(2764.5 -1.31568e-10 6.20503e-15)
(2764.5 -1.31262e-10 6.16585e-15)
(2764.5 -1.24808e-10 8.76278e-15)
(2764.5 -1.14119e-10 8.79141e-15)
(2764.5 -1.07512e-10 6.82249e-15)
(2764.5 -9.10142e-11 6.34739e-15)
(2764.5 -6.48852e-11 7.00724e-15)
(2764.5 -4.22649e-11 4.7838e-15)
(2764.5 -3.47905e-11 5.94855e-15)
(2764.5 -1.5324e-11 9.56347e-15)
(2764.5 -2.9584e-12 5.65582e-15)
(2764.5 1.17212e-11 7.19736e-15)
(2764.5 1.62479e-11 4.2389e-15)
(2764.5 2.29776e-11 2.12049e-15)
(2764.5 2.89361e-11 6.22563e-15)
(2764.5 2.03696e-11 5.79819e-15)
(2764.5 3.21297e-13 3.80537e-15)
(2764.5 -1.42772e-12 2.98139e-15)
(2764.5 -1.25555e-11 2.54542e-15)
(2764.5 -3.62874e-11 2.41398e-15)
(2764.5 -4.15496e-11 2.41442e-15)
(2764.5 -5.31395e-11 2.25795e-15)
(2764.5 -7.43321e-11 4.63161e-15)
(2764.5 -9.13351e-11 2.80592e-15)
(2764.5 -1.25442e-10 2.67445e-15)
(2764.5 -1.5146e-10 3.16959e-15)
(2764.5 -1.99602e-10 2.95738e-15)
(2764.5 -2.36731e-10 5.99202e-15)
(2764.5 -2.73095e-10 4.21259e-15)
(2764.5 -2.97161e-10 3.68733e-15)
(2764.5 -3.28356e-10 2.77441e-15)
(2764.5 -3.46228e-10 5.01523e-15)
(2764.5 -3.57812e-10 5.77652e-15)
(2764.5 -3.43795e-10 6.06879e-15)
(2764.5 -3.24373e-10 6.05853e-15)
(2764.5 -3.04085e-10 5.66646e-15)
(2764.5 -2.6039e-10 6.80658e-15)
(2764.5 -2.47422e-10 7.02156e-15)
(2764.5 -2.30436e-10 5.28168e-15)
(2764.5 -1.8667e-10 7.02735e-15)
(2764.5 -1.40079e-10 6.19908e-15)
(2764.5 -1.18655e-10 4.90254e-15)
(2764.5 -9.86429e-11 5.7805e-15)
(2764.5 -7.52197e-11 5.27221e-15)
(2764.5 -3.81375e-11 7.15974e-15)
(2764.5 -1.07807e-11 6.9952e-15)
(2764.5 1.88886e-11 6.46333e-15)
(2764.5 4.80714e-11 6.95063e-15)
(2764.5 7.34459e-11 5.6643e-15)
(2764.5 1.32412e-10 5.81093e-15)
(2764.5 1.81393e-10 6.54204e-15)
(2764.5 1.81489e-10 3.73131e-15)
(2764.5 1.89948e-10 4.70751e-15)
(2764.5 1.93494e-10 3.24182e-15)
(2764.5 1.82408e-10 3.00153e-15)
(2764.5 1.56825e-10 4.6303e-15)
(2764.5 1.32504e-10 3.18389e-15)
(2764.5 1.03431e-10 3.18287e-15)
(2764.5 7.36692e-11 3.79189e-15)
(2764.5 3.4073e-11 4.88539e-15)
(2764.5 -1.69006e-11 4.27083e-15)
(2764.5 -7.79574e-11 3.77144e-15)
(2764.5 -1.44612e-10 4.49075e-15)
(2764.5 -2.02156e-10 1.61194e-15)
(2764.5 -2.53718e-10 2.33277e-15)
(2764.5 -3.10476e-10 3.36544e-15)
(2764.5 -3.35759e-10 1.97598e-15)
(2764.5 -3.76724e-10 2.93381e-15)
(2764.5 -3.94145e-10 3.6768e-15)
(2764.5 -4.22978e-10 3.06897e-15)
(2764.5 -4.42987e-10 2.24613e-15)
(2764.5 -4.73359e-10 3.24e-15)
(2764.5 -4.75883e-10 3.96838e-15)
(2764.5 -5.05489e-10 4.08265e-15)
(2764.5 -4.73786e-10 3.84271e-15)
(2764.5 -4.65173e-10 3.9751e-15)
(2764.5 -4.47887e-10 3.83969e-15)
(2764.5 -4.23622e-10 1.81158e-15)
(2764.5 -3.78047e-10 3.92168e-15)
(2764.5 -3.50375e-10 5.44198e-15)
(2764.5 -3.40266e-10 6.09543e-15)
(2764.5 -3.03648e-10 6.84941e-15)
(2764.5 -2.62533e-10 6.41863e-15)
(2764.5 -2.34392e-10 5.45598e-15)
(2764.5 -1.7288e-10 5.44756e-15)
(2764.5 -1.96622e-10 1.78295e-14)
(2764.5 -1.99685e-10 2.10103e-14)
(2764.5 -2.04834e-10 1.96784e-14)
(2764.5 -2.05301e-10 1.95473e-14)
(2764.5 -2.06794e-10 2.2516e-14)
(2764.5 -2.0517e-10 2.01465e-14)
(2764.5 -2.04104e-10 2.15546e-14)
(2764.5 -2.02417e-10 2.16168e-14)
(2764.5 -2.00223e-10 2.0016e-14)
(2764.5 -1.99249e-10 1.97937e-14)
(2764.5 -1.98146e-10 1.99595e-14)
(2764.5 -2.00569e-10 2.22154e-14)
(2764.5 -2.02251e-10 1.82519e-14)
(2764.5 -2.01339e-10 1.67835e-14)
(2764.5 -2.01707e-10 2.12388e-14)
(2764.5 -2.02239e-10 2.0657e-14)
(2764.5 -2.06949e-10 1.29335e-14)
(2764.5 -2.00442e-10 1.43582e-14)
(2764.5 -1.93854e-10 1.45934e-14)
(2764.5 -1.90748e-10 1.4715e-14)
(2764.5 -1.95679e-10 1.55022e-14)
(2764.5 -1.91716e-10 1.38503e-14)
(2764.5 -1.89585e-10 1.16572e-14)
(2764.5 -1.88907e-10 1.57659e-14)
(2764.5 -1.89642e-10 1.39448e-14)
(2764.5 -1.93435e-10 1.12795e-14)
(2764.5 -1.91964e-10 1.4697e-14)
(2764.5 -1.92554e-10 1.39466e-14)
(2764.5 -1.93144e-10 1.5235e-14)
(2764.5 -2.03481e-10 1.38533e-14)
(2764.5 -2.10331e-10 1.09899e-14)
(2764.5 -2.10121e-10 1.1742e-14)
(2764.5 -2.02035e-10 1.18242e-14)
(2764.5 -1.99045e-10 1.26615e-14)
(2764.5 -1.9523e-10 1.48053e-14)
(2764.5 -1.93764e-10 1.07221e-14)
(2764.5 -1.86073e-10 1.40914e-14)
(2764.5 -1.80466e-10 1.45183e-14)
(2764.5 -1.81636e-10 1.30672e-14)
(2764.5 -1.80704e-10 1.3101e-14)
(2764.5 -1.79928e-10 1.36829e-14)
(2764.5 -1.8048e-10 1.29807e-14)
(2764.5 -1.85509e-10 1.29285e-14)
(2764.5 -1.89693e-10 1.24968e-14)
(2764.5 -1.95126e-10 1.15616e-14)
(2764.5 -1.946e-10 1.26033e-14)
(2764.5 -1.92155e-10 1.26819e-14)
(2764.5 -1.92546e-10 1.26043e-14)
(2764.5 -1.92258e-10 1.23788e-14)
(2764.5 -1.9298e-10 1.248e-14)
(2764.5 -1.93579e-10 9.36541e-15)
(2764.5 -1.92599e-10 1.64506e-14)
(2764.5 -1.965e-10 1.15156e-14)
(2764.5 -2.02907e-10 1.19109e-14)
(2764.5 -2.05239e-10 1.32038e-14)
(2764.5 -2.05638e-10 1.27769e-14)
(2764.5 -2.08258e-10 1.34804e-14)
(2764.5 -2.09088e-10 1.39384e-14)
(2764.5 -2.06739e-10 1.2064e-14)
(2764.5 -1.92554e-10 1.293e-14)
(2764.5 -1.89265e-10 1.189e-14)
(2764.5 -1.81145e-10 1.08945e-14)
(2764.5 -1.80119e-10 1.30037e-14)
(2764.5 -1.77511e-10 1.36993e-14)
(2764.5 -1.70813e-10 1.237e-14)
(2764.5 -1.65063e-10 1.12245e-14)
(2764.5 -1.62545e-10 1.07499e-14)
(2764.5 -1.63449e-10 1.16529e-14)
(2764.5 -1.67963e-10 9.86466e-15)
(2764.5 -1.69294e-10 1.00932e-14)
(2764.5 -1.73359e-10 5.48492e-15)
(2764.5 -1.75383e-10 1.27881e-14)
(2764.5 -1.70667e-10 1.00714e-14)
(2764.5 -1.73751e-10 1.00719e-14)
(2764.5 -1.79739e-10 1.23222e-14)
(2764.5 -1.92611e-10 1.19007e-14)
(2764.5 -1.91069e-10 1.18053e-14)
(2764.5 -1.90197e-10 1.17356e-14)
(2764.5 -1.92532e-10 1.23852e-14)
(2764.5 -1.95332e-10 1.29319e-14)
(2764.5 -2.03827e-10 1.00231e-14)
(2764.5 -2.02819e-10 8.5014e-15)
(2764.5 -2.01456e-10 1.18334e-14)
(2764.5 -2.03582e-10 1.07161e-14)
(2764.5 -2.0331e-10 1.00229e-14)
(2764.5 -1.99005e-10 1.32696e-14)
(2764.5 -2.01303e-10 1.09675e-14)
(2764.5 -2.02366e-10 1.05465e-14)
(2764.5 -1.99174e-10 1.24575e-14)
(2764.5 -1.92775e-10 1.30439e-14)
(2764.5 -1.83519e-10 1.03174e-14)
(2764.5 -1.66641e-10 8.9936e-15)
(2764.5 -1.53004e-10 1.12771e-14)
(2764.5 -1.50787e-10 9.66443e-15)
(2764.5 -1.47889e-10 8.06352e-15)
(2764.5 -1.47396e-10 7.40725e-15)
(2764.5 -1.41809e-10 8.17151e-15)
(2764.5 -1.41519e-10 9.33556e-15)
(2764.5 -1.51245e-10 9.83926e-15)
(2764.5 -1.59443e-10 9.44391e-15)
(2764.5 -1.73915e-10 8.73742e-15)
(2764.5 -1.82922e-10 9.42055e-15)
(2764.5 -1.94722e-10 8.21889e-15)
(2764.5 -1.98743e-10 7.71826e-15)
(2764.5 -2.01066e-10 7.39593e-15)
(2764.5 -2.12569e-10 7.29404e-15)
(2764.5 -2.33436e-10 1.12778e-14)
(2764.5 -2.51208e-10 1.08441e-14)
(2764.5 -2.56699e-10 8.52448e-15)
(2764.5 -2.6408e-10 1.05398e-14)
(2764.5 -2.73956e-10 8.63072e-15)
(2764.5 -2.73035e-10 9.41827e-15)
(2764.5 -2.66179e-10 7.64896e-15)
(2764.5 -2.61553e-10 1.14002e-14)
(2764.5 -2.51543e-10 1.12258e-14)
(2764.5 -2.31786e-10 8.18748e-15)
(2764.5 -2.05449e-10 8.53176e-15)
(2764.5 -1.77265e-10 9.64535e-15)
(2764.5 -1.4611e-10 8.2206e-15)
(2764.5 -1.12452e-10 1.05838e-14)
(2764.5 -9.52842e-11 1.21469e-14)
(2764.5 -7.39931e-11 7.90109e-15)
(2764.5 -5.34569e-11 7.55732e-15)
(2764.5 -3.24377e-11 1.00786e-14)
(2764.5 -1.83916e-11 8.02538e-15)
(2764.5 -2.17068e-11 1.11371e-14)
(2764.5 -2.73346e-11 1.15952e-14)
(2764.5 -2.33521e-11 1.03001e-14)
(2764.5 -3.24694e-11 7.90085e-15)
(2764.5 -4.87529e-11 9.05935e-15)
(2764.5 -7.64537e-11 7.56745e-15)
(2764.5 -9.54259e-11 8.64209e-15)
(2764.5 -1.24212e-10 7.69935e-15)
(2764.5 -1.54917e-10 9.15924e-15)
(2764.5 -2.01781e-10 8.48881e-15)
(2764.5 -2.30225e-10 8.01661e-15)
(2764.5 -2.57763e-10 7.88376e-15)
(2764.5 -2.86399e-10 7.13315e-15)
(2764.5 -3.18704e-10 7.91979e-15)
(2764.5 -3.431e-10 7.49833e-15)
(2764.5 -3.61156e-10 7.18854e-15)
(2764.5 -3.92952e-10 7.26562e-15)
(2764.5 -4.02529e-10 6.61662e-15)
(2764.5 -4.0346e-10 8.26686e-15)
(2764.5 -4.17103e-10 6.16968e-15)
(2764.5 -4.02648e-10 5.10775e-15)
(2764.5 -3.92933e-10 7.03236e-15)
(2764.5 -3.72135e-10 6.34588e-15)
(2764.5 -3.34805e-10 9.742e-15)
(2764.5 -2.94395e-10 1.05753e-14)
(2764.5 -2.643e-10 8.94695e-15)
(2764.5 -2.21438e-10 1.03101e-14)
(2764.5 -1.82729e-10 1.03259e-14)
(2764.5 -1.51285e-10 1.03191e-14)
(2764.5 -1.17362e-10 1.29458e-14)
(2764.5 -9.71554e-11 1.08441e-14)
(2764.5 -7.54606e-11 1.05745e-14)
(2764.5 -5.35989e-11 1.00118e-14)
(2764.5 4.10004e-12 1.09127e-14)
(2764.5 3.91535e-11 1.00033e-14)
(2764.5 7.56855e-11 1.04511e-14)
(2764.5 1.18506e-10 8.3119e-15)
(2764.5 1.78674e-10 8.9995e-15)
(2764.5 2.09237e-10 1.01988e-14)
(2764.5 2.21346e-10 9.68795e-15)
(2764.5 2.35412e-10 8.10168e-15)
(2764.5 2.46039e-10 8.64338e-15)
(2764.5 2.48383e-10 8.14567e-15)
(2764.5 2.33114e-10 8.31933e-15)
(2764.5 2.06798e-10 7.7474e-15)
(2764.5 1.31202e-10 5.65779e-15)
(2764.5 4.41787e-11 7.41442e-15)
(2764.5 -4.05761e-11 7.71883e-15)
(2764.5 -1.10941e-10 8.76006e-15)
(2764.5 -1.64311e-10 6.91018e-15)
(2764.5 -2.47645e-10 6.93255e-15)
(2764.5 -3.35875e-10 6.00522e-15)
(2764.5 -3.84373e-10 4.11264e-15)
(2764.5 -4.26255e-10 2.47379e-15)
(2764.5 -4.64828e-10 3.2084e-15)
(2764.5 -5.24401e-10 5.31768e-15)
(2764.5 -5.72546e-10 5.55352e-15)
(2764.5 -5.93311e-10 6.41843e-15)
(2764.5 -6.09617e-10 3.36174e-15)
(2764.5 -6.10624e-10 8.89245e-15)
(2764.5 -6.14781e-10 7.99325e-15)
(2764.5 -6.11847e-10 5.25815e-15)
(2764.5 -5.69084e-10 8.4814e-15)
(2764.5 -5.38562e-10 9.42871e-15)
(2764.5 -5.03993e-10 8.14513e-15)
(2764.5 -4.47626e-10 6.72095e-15)
(2764.5 -3.90866e-10 6.67129e-15)
(2764.5 -3.15895e-10 8.03611e-15)
(2764.5 -2.42642e-10 8.70929e-15)
(2764.5 -1.66392e-10 7.48621e-15)
(2764.5 -9.51158e-11 6.19218e-15)
(2764.5 -1.5956e-11 7.30501e-15)
(2764.5 7.09818e-11 7.34878e-15)
(2764.5 1.14719e-10 7.69165e-15)
(2764.5 1.76637e-10 8.31258e-15)
(2764.5 2.46695e-10 8.16812e-15)
(2764.5 3.17607e-10 9.2088e-15)
(2764.5 3.74832e-10 8.88375e-15)
(2764.5 4.4074e-10 6.39597e-15)
(2764.5 4.87831e-10 9.65163e-15)
(2764.5 5.06493e-10 9.30407e-15)
(2764.5 5.13165e-10 7.97078e-15)
(2764.5 5.35249e-10 8.56839e-15)
(2764.5 5.64036e-10 8.48439e-15)
(2764.5 -2.93093e-10 2.72603e-14)
(2764.5 -2.93833e-10 2.62406e-14)
(2764.5 -2.96594e-10 2.4833e-14)
(2764.5 -3.00955e-10 2.79169e-14)
(2764.5 -3.0576e-10 3.09402e-14)
(2764.5 -3.11075e-10 2.59245e-14)
(2764.5 -3.15836e-10 2.58799e-14)
(2764.5 -3.1741e-10 2.57504e-14)
(2764.5 -3.18419e-10 2.65002e-14)
(2764.5 -3.18084e-10 2.78237e-14)
(2764.5 -3.16387e-10 3.02978e-14)
(2764.5 -3.16656e-10 3.03042e-14)
(2764.5 -3.19793e-10 2.84836e-14)
(2764.5 -3.21706e-10 2.66081e-14)
(2764.5 -3.2518e-10 2.73424e-14)
(2764.5 -3.21239e-10 2.60415e-14)
(2764.5 -2.67838e-10 1.90045e-14)
(2764.5 -2.73509e-10 1.67868e-14)
(2764.5 -2.7439e-10 1.74407e-14)
(2764.5 -2.69725e-10 1.74364e-14)
(2764.5 -2.68321e-10 1.99613e-14)
(2764.5 -2.68852e-10 2.03574e-14)
(2764.5 -2.65471e-10 1.91151e-14)
(2764.5 -2.59426e-10 1.95217e-14)
(2764.5 -2.54036e-10 2.12246e-14)
(2764.5 -2.49908e-10 2.17054e-14)
(2764.5 -2.53304e-10 1.8764e-14)
(2764.5 -2.52078e-10 1.86027e-14)
(2764.5 -2.47738e-10 1.66929e-14)
(2764.5 -2.50002e-10 1.34367e-14)
(2764.5 -2.53303e-10 1.95324e-14)
(2764.5 -2.56901e-10 1.68009e-14)
(2764.5 -2.60789e-10 1.7069e-14)
(2764.5 -2.64905e-10 1.54675e-14)
(2764.5 -2.65913e-10 1.30809e-14)
(2764.5 -2.64713e-10 1.58171e-14)
(2764.5 -2.61824e-10 1.73528e-14)
(2764.5 -2.5496e-10 1.91352e-14)
(2764.5 -2.50607e-10 1.94653e-14)
(2764.5 -2.41843e-10 1.89283e-14)
(2764.5 -2.43892e-10 1.68245e-14)
(2764.5 -2.40291e-10 1.71098e-14)
(2764.5 -2.39039e-10 1.75612e-14)
(2764.5 -2.35904e-10 1.60505e-14)
(2764.5 -2.3875e-10 1.96135e-14)
(2764.5 -2.42601e-10 1.83302e-14)
(2764.5 -2.41672e-10 1.32079e-14)
(2764.5 -2.40156e-10 1.81579e-14)
(2764.5 -2.4127e-10 1.61639e-14)
(2764.5 -2.4329e-10 1.56091e-14)
(2764.5 -2.45676e-10 1.66354e-14)
(2764.5 -2.46075e-10 1.65163e-14)
(2764.5 -2.43325e-10 1.68744e-14)
(2764.5 -2.40262e-10 1.95145e-14)
(2764.5 -2.41713e-10 1.8782e-14)
(2764.5 -2.4803e-10 1.50594e-14)
(2764.5 -2.54218e-10 1.78117e-14)
(2764.5 -2.57698e-10 1.59823e-14)
(2764.5 -2.61442e-10 1.63577e-14)
(2764.5 -2.71173e-10 1.7609e-14)
(2764.5 -2.6314e-10 1.76654e-14)
(2764.5 -2.58715e-10 1.76234e-14)
(2764.5 -2.54141e-10 1.75983e-14)
(2764.5 -2.63764e-10 1.5857e-14)
(2764.5 -2.69074e-10 1.72227e-14)
(2764.5 -2.66084e-10 1.39901e-14)
(2764.5 -2.63254e-10 1.32138e-14)
(2764.5 -2.62176e-10 1.69341e-14)
(2764.5 -2.61177e-10 1.56364e-14)
(2764.5 -2.56571e-10 1.6574e-14)
(2764.5 -2.52558e-10 1.51904e-14)
(2764.5 -2.5856e-10 1.73457e-14)
(2764.5 -2.5266e-10 1.44222e-14)
(2764.5 -2.46499e-10 1.47994e-14)
(2764.5 -2.42055e-10 1.62413e-14)
(2764.5 -2.38587e-10 1.6362e-14)
(2764.5 -2.53272e-10 1.7719e-14)
(2764.5 -2.42842e-10 1.65025e-14)
(2764.5 -2.37358e-10 1.58949e-14)
(2764.5 -2.33281e-10 1.67387e-14)
(2764.5 -2.25898e-10 1.32189e-14)
(2764.5 -2.18965e-10 1.28861e-14)
(2764.5 -2.06348e-10 1.59549e-14)
(2764.5 -1.99679e-10 1.49819e-14)
(2764.5 -1.93397e-10 1.56153e-14)
(2764.5 -1.92471e-10 1.55972e-14)
(2764.5 -1.9751e-10 1.52484e-14)
(2764.5 -2.0813e-10 1.42446e-14)
(2764.5 -2.20907e-10 1.55533e-14)
(2764.5 -2.35132e-10 1.41033e-14)
(2764.5 -2.52319e-10 1.4395e-14)
(2764.5 -2.58721e-10 1.45382e-14)
(2764.5 -2.6718e-10 1.50895e-14)
(2764.5 -2.71894e-10 1.4464e-14)
(2764.5 -2.8478e-10 1.47326e-14)
(2764.5 -3.00695e-10 1.36863e-14)
(2764.5 -3.13947e-10 1.61003e-14)
(2764.5 -3.19365e-10 1.46126e-14)
(2764.5 -3.11338e-10 1.39271e-14)
(2764.5 -3.096e-10 1.34743e-14)
(2764.5 -3.17552e-10 1.59732e-14)
(2764.5 -3.35057e-10 1.69174e-14)
(2764.5 -3.37293e-10 1.45859e-14)
(2764.5 -3.2749e-10 1.39332e-14)
(2764.5 -3.0966e-10 1.19771e-14)
(2764.5 -2.8344e-10 1.40664e-14)
(2764.5 -2.70925e-10 1.63474e-14)
(2764.5 -2.57644e-10 1.35933e-14)
(2764.5 -2.29395e-10 1.39246e-14)
(2764.5 -2.19038e-10 1.51495e-14)
(2764.5 -2.08287e-10 1.32961e-14)
(2764.5 -2.02614e-10 1.30727e-14)
(2764.5 -2.01971e-10 1.30657e-14)
(2764.5 -2.00523e-10 1.35918e-14)
(2764.5 -1.91143e-10 1.40158e-14)
(2764.5 -1.86749e-10 1.23503e-14)
(2764.5 -1.92226e-10 1.26039e-14)
(2764.5 -1.95574e-10 1.2063e-14)
(2764.5 -1.9323e-10 1.25627e-14)
(2764.5 -1.9216e-10 1.37128e-14)
(2764.5 -1.95437e-10 1.27037e-14)
(2764.5 -2.05128e-10 1.1467e-14)
(2764.5 -2.35611e-10 1.24891e-14)
(2764.5 -2.61133e-10 1.34077e-14)
(2764.5 -2.829e-10 1.17344e-14)
(2764.5 -2.91877e-10 1.14358e-14)
(2764.5 -3.0272e-10 1.09366e-14)
(2764.5 -3.35604e-10 1.44981e-14)
(2764.5 -3.68351e-10 1.15073e-14)
(2764.5 -3.91356e-10 1.15326e-14)
(2764.5 -4.0177e-10 1.27162e-14)
(2764.5 -4.08783e-10 1.00291e-14)
(2764.5 -4.13242e-10 1.18121e-14)
(2764.5 -4.14773e-10 1.10386e-14)
(2764.5 -4.01826e-10 1.2295e-14)
(2764.5 -3.86413e-10 1.72129e-14)
(2764.5 -3.8232e-10 1.49981e-14)
(2764.5 -3.73082e-10 1.26416e-14)
(2764.5 -3.47167e-10 1.45558e-14)
(2764.5 -3.1032e-10 1.50174e-14)
(2764.5 -2.72468e-10 1.36098e-14)
(2764.5 -2.39868e-10 1.52992e-14)
(2764.5 -2.05289e-10 1.24817e-14)
(2764.5 -1.68703e-10 1.19868e-14)
(2764.5 -1.26074e-10 1.39793e-14)
(2764.5 -9.51252e-11 1.34615e-14)
(2764.5 -6.27013e-11 1.2994e-14)
(2764.5 -1.89367e-11 1.21399e-14)
(2764.5 2.17889e-11 1.08561e-14)
(2764.5 7.38079e-11 1.0769e-14)
(2764.5 1.08834e-10 1.08301e-14)
(2764.5 1.3144e-10 1.04178e-14)
(2764.5 1.5022e-10 1.19883e-14)
(2764.5 1.44469e-10 1.27967e-14)
(2764.5 1.32564e-10 1.2035e-14)
(2764.5 9.56565e-11 1.08681e-14)
(2764.5 4.98891e-11 9.33479e-15)
(2764.5 -2.89978e-11 9.40545e-15)
(2764.5 -9.17763e-11 9.28121e-15)
(2764.5 -1.61915e-10 9.69972e-15)
(2764.5 -2.15381e-10 7.85109e-15)
(2764.5 -2.8272e-10 1.04877e-14)
(2764.5 -3.53128e-10 9.95351e-15)
(2764.5 -4.02138e-10 8.91631e-15)
(2764.5 -4.71254e-10 8.80393e-15)
(2764.5 -5.07536e-10 8.39384e-15)
(2764.5 -5.44562e-10 1.00319e-14)
(2764.5 -5.73007e-10 7.83066e-15)
(2764.5 -5.91823e-10 8.17321e-15)
(2764.5 -6.25787e-10 7.60554e-15)
(2764.5 -6.58557e-10 8.10632e-15)
(2764.5 -6.61675e-10 7.52216e-15)
(2764.5 -6.68271e-10 7.72741e-15)
(2764.5 -6.77644e-10 9.9582e-15)
(2764.5 -6.62038e-10 1.14915e-14)
(2764.5 -6.2524e-10 1.00281e-14)
(2764.5 -5.76737e-10 1.19872e-14)
(2764.5 -5.24583e-10 1.12434e-14)
(2764.5 -4.74735e-10 1.31117e-14)
(2764.5 -3.84575e-10 9.72508e-15)
(2764.5 -3.07847e-10 1.0794e-14)
(2764.5 -2.31921e-10 1.06511e-14)
(2764.5 -1.40717e-10 1.11388e-14)
(2764.5 -5.85603e-11 9.96657e-15)
(2764.5 2.23895e-11 1.07152e-14)
(2764.5 1.03355e-10 9.47275e-15)
(2764.5 1.61022e-10 1.28926e-14)
(2764.5 2.17552e-10 1.20451e-14)
(2764.5 2.74517e-10 1.16621e-14)
(2764.5 3.1204e-10 1.30541e-14)
(2764.5 3.43264e-10 1.3278e-14)
(2764.5 3.73697e-10 1.20429e-14)
(2764.5 3.59937e-10 1.31577e-14)
(2764.5 3.52557e-10 1.12942e-14)
(2764.5 3.47487e-10 1.10102e-14)
(2764.5 3.16389e-10 1.01811e-14)
(2764.5 2.59532e-10 1.05694e-14)
(2764.5 2.40028e-10 1.00834e-14)
(2764.5 1.85804e-10 9.64775e-15)
(2764.5 1.09219e-10 1.04432e-14)
(2764.5 2.02444e-11 9.90531e-15)
(2764.5 -6.53391e-11 9.26629e-15)
(2764.5 -1.54563e-10 8.32765e-15)
(2764.5 -2.33524e-10 7.17228e-15)
(2764.5 -3.16341e-10 7.59092e-15)
(2764.5 -3.95833e-10 8.04816e-15)
(2764.5 -4.77262e-10 8.44308e-15)
(2764.5 -5.49881e-10 8.56193e-15)
(2764.5 -6.54881e-10 8.0051e-15)
(2764.5 -3.11105e-10 3.1267e-14)
(2764.5 -3.07105e-10 3.28945e-14)
(2764.5 -3.04983e-10 3.73264e-14)
(2764.5 -3.0134e-10 3.84046e-14)
(2764.5 -2.97152e-10 3.4173e-14)
(2764.5 -2.96199e-10 3.36667e-14)
(2764.5 -2.96953e-10 3.49575e-14)
(2764.5 -2.98482e-10 3.67954e-14)
(2764.5 -3.00364e-10 3.32178e-14)
(2764.5 -3.0323e-10 3.67972e-14)
(2764.5 -3.01523e-10 3.80551e-14)
(2764.5 -2.9694e-10 3.36434e-14)
(2764.5 -2.91714e-10 3.88443e-14)
(2764.5 -2.89419e-10 3.12258e-14)
(2764.5 -2.89849e-10 3.00449e-14)
(2764.5 -3.11332e-10 2.63934e-14)
(2764.5 -3.08029e-10 2.37692e-14)
(2764.5 -3.15434e-10 2.14125e-14)
(2764.5 -3.20418e-10 2.16791e-14)
(2764.5 -3.24364e-10 2.39331e-14)
(2764.5 -3.29685e-10 2.22913e-14)
(2764.5 -3.35047e-10 2.22725e-14)
(2764.5 -3.37332e-10 2.39179e-14)
(2764.5 -3.37613e-10 2.39183e-14)
(2764.5 -3.35371e-10 2.51783e-14)
(2764.5 -3.30026e-10 2.46779e-14)
(2764.5 -3.30376e-10 2.3655e-14)
(2764.5 -3.23073e-10 2.58346e-14)