/*--------------------------------*- C++ -*----------------------------------*\
| =========                 |                                                 |
| \\      /  F ield         | OpenFOAM: The Open Source CFD Toolbox           |
|  \\    /   O peration     | Version:  v1706                                 |
|   \\  /    A nd           | Web:      www.OpenFOAM.com                      |
|    \\/     M anipulation  |                                                 |
\*---------------------------------------------------------------------------*/
FoamFile
{
    version     2.0;
    format      ascii;
    class       volScalarField;
    location    "9e-06";
    object      wallHeatFlux;
}
// * * * * * * * * * * * * * * * * * * * * * * * * * * * * * * * * * * * * * //

dimensions      [1 0 -3 0 0 0 0];


internalField   uniform 0;

boundaryField
{
    cone
    {
        type            calculated;
        value           nonuniform List<scalar> 
119
(
236086
239881
243736
247651
251628
255666
259765
263926
268150
272435
276784
281197
285676
290220
294832
299512
304263
309086
313984
318959
324015
329154
334380
339696
345107
350619
356235
361963
367808
373779
379882
386127
392522
399078
405804
412714
419818
427132
434668
442444
450476
458782
467383
476300
485557
495178
505193
515630
526525
537916
549846
562366
575534
589416
604090
619645
636186
653836
672741
693077
715053
738918
764960
793486
824750
858747
894733
930223
959352
971331
951364
886924
778672
644110
506529
383024
281221
201852
142204
98521
67166.7
45033.9
29631.4
19043.4
11840.9
6985.39
3737.17
1578.79
154.02
-779.431
-1385.65
-1775.27
-2022.98
-2178.61
-2275.16
-2334.26
-2369.96
-2391.23
-2403.72
-2410.96
-2415.12
-2417.52
-2418.94
-2419.87
-2420.58
-2421.23
-2421.87
-2422.53
-2423.23
-2424.03
-2425.17
-2427.13
-2430.78
-2437.62
-2450.11
-2472.12
-2510.97
-2579.6
-2688.46
)
;
    }
    inlet
    {
        type            calculated;
        value           uniform 0;
    }
    rWedge
    {
        type            wedge;
    }
    lWedge
    {
        type            wedge;
    }
    outlet
    {
        type            calculated;
        value           uniform 0;
    }
    procBoundary0to1
    {
        type            processor;
        value           uniform 0;
    }
    procBoundary0to2
    {
        type            processor;
        value           uniform 0;
    }
}


// ************************************************************************* //
