/*--------------------------------*- C++ -*----------------------------------*\
| =========                 |                                                 |
| \\      /  F ield         | OpenFOAM: The Open Source CFD Toolbox           |
|  \\    /   O peration     | Version:  v1706                                 |
|   \\  /    A nd           | Web:      www.OpenFOAM.com                      |
|    \\/     M anipulation  |                                                 |
\*---------------------------------------------------------------------------*/
FoamFile
{
    version     2.0;
    format      ascii;
    class       volVectorField;
    location    "1.2e-05";
    object      U;
}
// * * * * * * * * * * * * * * * * * * * * * * * * * * * * * * * * * * * * * //

dimensions      [0 1 -1 0 0 0 0];


internalField   nonuniform List<vector> 
30104
(
(2764.5 -4.59405e-11 3.25221e-15)
(2764.5 -4.30836e-11 5.94167e-15)
(2764.5 -4.1468e-11 5.64916e-15)
(2764.5 -4.15218e-11 2.38978e-15)
(2764.5 -4.19766e-11 2.99236e-15)
(2764.5 -4.1938e-11 3.41202e-15)
(2764.5 -4.44067e-11 1.62408e-15)
(2764.5 -4.64916e-11 2.45387e-15)
(2764.5 -4.68139e-11 3.4152e-15)
(2764.5 -4.55924e-11 3.20539e-15)
(2764.5 -4.25901e-11 2.80233e-15)
(2764.5 -3.76622e-11 3.2917e-15)
(2764.5 -3.36026e-11 1.61167e-15)
(2764.5 -3.31543e-11 3.30225e-15)
(2764.5 -3.42521e-11 4.60426e-15)
(2764.5 -3.71783e-11 5.023e-15)
(2764.5 -3.98159e-11 4.51919e-15)
(2764.5 -6.56153e-11 2.10745e-15)
(2764.5 -5.38797e-11 4.11617e-15)
(2764.5 -3.9672e-11 3.16755e-15)
(2764.5 -2.92394e-11 2.77021e-15)
(2764.5 -2.57037e-11 2.7551e-15)
(2764.5 -2.67753e-11 2.66531e-15)
(2764.5 -3.14103e-11 2.19613e-15)
(2764.5 -3.62112e-11 3.86599e-15)
(2764.5 -3.77081e-11 2.98807e-15)
(2764.5 -3.75682e-11 2.19389e-15)
(2764.5 -3.6984e-11 2.49591e-15)
(2764.5 -3.44978e-11 2.6244e-15)
(2764.5 -3.41282e-11 4.18865e-15)
(2764.5 -3.41077e-11 3.20289e-15)
(2764.5 -3.56586e-11 1.28936e-15)
(2764.5 -3.67692e-11 2.33465e-15)
(2764.5 -3.69039e-11 2.64953e-15)
(2764.5 -3.82002e-11 2.5727e-15)
(2764.5 -3.81294e-11 3.36261e-15)
(2764.5 -3.85836e-11 1.92144e-15)
(2764.5 -3.94297e-11 3.50009e-15)
(2764.5 -3.9099e-11 4.28167e-15)
(2764.5 -3.65246e-11 1.75535e-15)
(2764.5 -3.81585e-11 1.78535e-15)
(2764.5 -4.09956e-11 1.79484e-15)
(2764.5 -4.35147e-11 1.67479e-15)
(2764.5 -4.67132e-11 1.75264e-15)
(2764.5 -4.70002e-11 1.93872e-15)
(2764.5 -4.22215e-11 2.01601e-15)
(2764.5 -3.98128e-11 1.98653e-15)
(2764.5 -3.86668e-11 1.26235e-15)
(2764.5 -3.89403e-11 2.80265e-15)
(2764.5 -4.05511e-11 3.24559e-15)
(2764.5 -4.11542e-11 2.41554e-15)
(2764.5 -4.18599e-11 1.34653e-15)
(2764.5 -4.32182e-11 1.02896e-15)
(2764.5 -4.00651e-11 3.14204e-15)
(2764.5 -3.90803e-11 1.76985e-15)
(2764.5 -3.96789e-11 2.61337e-15)
(2764.5 -3.71713e-11 2.85488e-15)
(2764.5 -3.54248e-11 2.09977e-15)
(2764.5 -3.64435e-11 1.74183e-15)
(2764.5 -3.59027e-11 2.10598e-15)
(2764.5 -3.62309e-11 3.19155e-15)
(2764.5 -3.62711e-11 3.53538e-15)
(2764.5 -3.29783e-11 2.32566e-15)
(2764.5 -2.90723e-11 2.498e-15)
(2764.5 -2.77351e-11 2.06683e-15)
(2764.5 -2.95094e-11 2.81349e-15)
(2764.5 -2.73596e-11 6.30922e-16)
(2764.5 -2.57974e-11 3.81039e-15)
(2764.5 -2.84041e-11 2.48605e-15)
(2764.5 -2.93508e-11 6.08198e-16)
(2764.5 -2.71779e-11 2.12255e-15)
(2764.5 -2.71875e-11 2.66354e-15)
(2764.5 -3.41252e-11 1.18335e-15)
(2764.5 -3.90221e-11 2.51524e-15)
(2764.5 -3.89753e-11 2.475e-15)
(2764.5 -3.82078e-11 1.93377e-15)
(2764.5 -3.47826e-11 1.27611e-15)
(2764.5 -3.56627e-11 1.27748e-15)
(2764.5 -3.88423e-11 2.63977e-15)
(2764.5 -3.94311e-11 2.41957e-15)
(2764.5 -4.06426e-11 2.33203e-15)
(2764.5 -4.23739e-11 3.48067e-15)
(2764.5 -4.19967e-11 2.48588e-15)
(2764.5 -4.1118e-11 2.66985e-15)
(2764.5 -4.32831e-11 3.01769e-15)
(2764.5 -4.38188e-11 2.56763e-15)
(2764.5 -4.29487e-11 2.69634e-15)
(2764.5 -4.12407e-11 2.21851e-15)
(2764.5 -3.9337e-11 1.86075e-15)
(2764.5 -3.7707e-11 1.55017e-15)
(2764.5 -3.6208e-11 -1.09983e-16)
(2764.5 -3.85612e-11 2.95058e-15)
(2764.5 -3.94214e-11 3.11809e-15)
(2764.5 -4.01405e-11 1.84023e-15)
(2764.5 -4.21469e-11 -1.21783e-18)
(2764.5 -4.333e-11 3.49472e-16)
(2764.5 -4.39349e-11 2.41234e-15)
(2764.5 -4.72399e-11 1.36729e-15)
(2764.5 -4.8746e-11 1.85462e-15)
(2764.5 -4.64352e-11 -2.27825e-16)
(2764.5 -4.05048e-11 3.60082e-16)
(2764.5 -4.09388e-11 3.22934e-15)
(2764.5 -4.16474e-11 3.35288e-15)
(2764.5 -4.34489e-11 2.27515e-15)
(2764.5 -4.42139e-11 2.12137e-15)
(2764.5 -4.98128e-11 1.99279e-15)
(2764.5 -5.20353e-11 1.97403e-15)
(2764.5 -4.83174e-11 2.03558e-15)
(2764.5 -4.78529e-11 2.01081e-15)
(2764.5 -4.75567e-11 2.26123e-15)
(2764.5 -4.70342e-11 1.95051e-15)
(2764.5 -4.3964e-11 7.62606e-16)
(2764.5 -4.00087e-11 1.6041e-15)
(2764.5 -3.49066e-11 2.09521e-16)
(2764.5 -3.12392e-11 -1.02678e-16)
(2764.5 -3.09646e-11 3.02111e-15)
(2764.5 -3.72443e-11 2.66145e-15)
(2764.5 -3.60509e-11 2.44552e-15)
(2764.5 -3.05971e-11 2.44079e-15)
(2764.5 -2.80521e-11 2.03942e-15)
(2764.5 -3.26324e-11 1.62472e-15)
(2764.5 -3.2548e-11 1.22725e-15)
(2764.5 -3.41781e-11 1.9864e-15)
(2764.5 -3.58998e-11 2.02581e-16)
(2764.5 -3.43609e-11 1.99075e-16)
(2764.5 -3.4906e-11 2.22912e-15)
(2764.5 -3.56099e-11 2.48519e-15)
(2764.5 -3.62426e-11 1.95319e-15)
(2764.5 -3.77473e-11 1.92481e-15)
(2764.5 -3.78145e-11 1.68429e-15)
(2764.5 -3.92433e-11 1.22989e-15)
(2764.5 -4.23779e-11 5.01692e-16)
(2764.5 -4.45462e-11 1.19022e-15)
(2764.5 -4.44708e-11 1.57968e-15)
(2764.5 -4.45396e-11 1.57165e-15)
(2764.5 -4.21953e-11 1.43444e-15)
(2764.5 -3.75093e-11 1.16e-15)
(2764.5 -3.71157e-11 1.53518e-15)
(2764.5 -3.5761e-11 1.17364e-15)
(2764.5 -3.33199e-11 2.50152e-15)
(2764.5 -2.95625e-11 2.82781e-15)
(2764.5 -1.72938e-11 6.28883e-17)
(2764.5 -1.44932e-11 -4.05352e-16)
(2764.5 -2.18191e-11 4.29341e-16)
(2764.5 -2.59677e-11 1.10166e-15)
(2764.5 -3.03531e-11 1.39176e-15)
(2764.5 -3.31658e-11 1.08559e-15)
(2764.5 -3.31654e-11 1.27287e-15)
(2764.5 -3.95497e-11 1.73891e-15)
(2764.5 -4.55212e-11 1.52383e-15)
(2764.5 -5.37747e-11 2.03036e-15)
(2764.5 -5.95317e-11 1.28016e-15)
(2764.5 -6.51054e-11 1.75035e-15)
(2764.5 -6.93656e-11 6.89246e-16)
(2764.5 -7.2223e-11 1.78014e-15)
(2764.5 -6.49654e-11 1.54344e-15)
(2764.5 -5.66709e-11 1.09091e-15)
(2764.5 -3.99386e-11 2.42006e-15)
(2764.5 -3.21249e-11 2.85001e-15)
(2764.5 -3.31912e-11 2.35354e-15)
(2764.5 -3.59219e-11 1.99229e-15)
(2764.5 -3.58705e-11 1.29995e-15)
(2764.5 -3.31639e-11 1.40984e-16)
(2764.5 -3.07594e-11 2.8248e-15)
(2764.5 -3.00498e-11 2.16364e-15)
(2764.5 -3.70824e-11 1.03101e-15)
(2764.5 -4.36951e-11 8.40548e-16)
(2764.5 -4.92285e-11 2.08749e-15)
(2764.5 -4.86533e-11 8.20386e-16)
(2764.5 -4.35338e-11 1.48582e-15)
(2764.5 -4.2587e-11 1.23388e-15)
(2764.5 -4.23278e-11 1.47395e-15)
(2764.5 -3.65173e-11 1.87507e-15)
(2764.5 -3.1034e-11 9.10971e-16)
(2764.5 -3.16325e-11 2.10847e-15)
(2764.5 -3.38616e-11 1.59236e-15)
(2764.5 -3.10738e-11 1.08249e-15)
(2764.5 -2.78522e-11 1.18178e-15)
(2764.5 -3.11485e-11 1.54959e-15)
(2764.5 -3.39056e-11 1.00526e-15)
(2764.5 -4.02282e-11 1.69401e-15)
(2764.5 -4.66438e-11 1.37758e-15)
(2764.5 -4.52655e-11 1.31252e-15)
(2764.5 -3.47361e-11 2.34843e-15)
(2764.5 -3.10026e-11 1.57712e-15)
(2764.5 -2.76939e-11 9.06366e-16)
(2764.5 -3.01189e-11 1.76666e-16)
(2764.5 -3.46471e-11 1.21732e-15)
(2764.5 -3.62143e-11 1.32009e-15)
(2764.5 -3.69236e-11 1.03686e-15)
(2764.5 -3.85111e-11 1.03816e-15)
(2764.5 -4.02641e-11 9.13363e-16)
(2764.5 -4.70922e-11 8.05727e-16)
(2764.5 -5.65071e-11 1.6722e-15)
(2764.5 -6.24715e-11 1.52455e-15)
(2764.5 -6.53244e-11 9.1285e-16)
(2764.5 -6.60743e-11 8.49823e-16)
(2764.5 -5.94251e-11 5.32582e-16)
(2764.5 -4.04943e-11 7.26362e-16)
(2764.5 -3.31584e-11 2.01634e-15)
(2764.5 -2.19006e-11 1.1089e-15)
(2764.5 -4.9305e-12 2.07187e-15)
(2764.5 -4.22087e-12 2.00256e-15)
(2764.5 -1.87131e-11 1.55396e-15)
(2764.5 -3.60384e-11 1.10135e-15)
(2764.5 -4.81861e-11 1.43446e-15)
(2764.5 -3.74784e-11 1.21308e-15)
(2764.5 -3.31242e-11 1.01223e-15)
(2764.5 -3.0905e-11 1.1077e-15)
(2764.5 -3.14601e-11 9.96317e-16)
(2764.5 -1.29091e-10 1.40066e-14)
(2764.5 -1.31579e-10 1.66048e-14)
(2764.5 -1.30012e-10 8.53164e-15)
(2764.5 -1.27821e-10 9.58168e-15)
(2764.5 -1.27124e-10 1.04975e-14)
(2764.5 -1.26639e-10 1.17136e-14)
(2764.5 -1.22588e-10 1.20369e-14)
(2764.5 -1.21564e-10 1.04978e-14)
(2764.5 -1.24477e-10 1.30915e-14)
(2764.5 -1.28068e-10 1.17758e-14)
(2764.5 -1.31851e-10 1.22015e-14)
(2764.5 -1.34594e-10 1.35741e-14)
(2764.5 -1.3147e-10 1.66549e-14)
(2764.5 -1.26374e-10 1.60116e-14)
(2764.5 -1.21273e-10 1.48547e-14)
(2764.5 -1.18074e-10 1.42189e-14)
(2764.5 -1.17414e-10 1.2399e-14)
(2764.5 -6.65424e-11 3.99832e-15)
(2764.5 -9.95831e-11 5.47285e-15)
(2764.5 -1.24091e-10 9.26306e-15)
(2764.5 -1.44677e-10 8.84858e-15)
(2764.5 -1.46497e-10 8.43107e-15)
(2764.5 -1.42262e-10 8.79368e-15)
(2764.5 -1.26576e-10 6.295e-15)
(2764.5 -1.13938e-10 8.52726e-15)
(2764.5 -1.09368e-10 1.00211e-14)
(2764.5 -1.0994e-10 8.04656e-15)
(2764.5 -1.14897e-10 5.48396e-15)
(2764.5 -1.19591e-10 6.90363e-15)
(2764.5 -1.18908e-10 7.08968e-15)
(2764.5 -1.19568e-10 5.6299e-15)
(2764.5 -1.12448e-10 3.62901e-15)
(2764.5 -1.13475e-10 4.61786e-15)
(2764.5 -1.0982e-10 5.90069e-15)
(2764.5 -1.08607e-10 6.83331e-15)
(2764.5 -1.08659e-10 8.57061e-15)
(2764.5 -1.05177e-10 8.29523e-15)
(2764.5 -1.03617e-10 9.19721e-15)
(2764.5 -1.05695e-10 9.26872e-15)
(2764.5 -1.05558e-10 9.04617e-15)
(2764.5 -9.52212e-11 8.64972e-15)
(2764.5 -9.35804e-11 8.46135e-15)
(2764.5 -9.51188e-11 7.98562e-15)
(2764.5 -9.70862e-11 7.89097e-15)
(2764.5 -1.06082e-10 7.69422e-15)
(2764.5 -1.18063e-10 7.64294e-15)
(2764.5 -1.22651e-10 8.44233e-15)
(2764.5 -1.23589e-10 6.55771e-15)
(2764.5 -1.20783e-10 8.61856e-15)
(2764.5 -1.1599e-10 8.53454e-15)
(2764.5 -1.12765e-10 6.40144e-15)
(2764.5 -1.111e-10 3.86665e-15)
(2764.5 -1.10828e-10 6.67403e-15)
(2764.5 -1.15205e-10 9.12546e-15)
(2764.5 -1.1871e-10 6.66373e-15)
(2764.5 -1.18115e-10 6.94947e-15)
(2764.5 -1.20097e-10 8.48469e-15)
(2764.5 -1.15709e-10 8.67747e-15)
(2764.5 -1.11072e-10 9.84775e-15)
(2764.5 -1.10652e-10 7.9509e-15)
(2764.5 -1.07655e-10 8.42091e-15)
(2764.5 -1.07896e-10 9.64068e-15)
(2764.5 -1.12489e-10 7.59347e-15)
(2764.5 -1.11771e-10 5.24629e-15)
(2764.5 -1.09391e-10 5.32196e-15)
(2764.5 -1.0517e-10 6.93085e-15)
(2764.5 -1.04736e-10 5.79422e-15)
(2764.5 -1.04567e-10 6.90544e-15)
(2764.5 -9.72591e-11 6.65206e-15)
(2764.5 -9.65311e-11 6.27921e-15)
(2764.5 -1.00641e-10 7.68739e-15)
(2764.5 -9.90231e-11 5.37094e-15)
(2764.5 -9.5891e-11 5.31456e-15)
(2764.5 -9.80061e-11 6.45648e-15)
(2764.5 -1.04013e-10 6.98529e-15)
(2764.5 -1.0877e-10 8.65567e-15)
(2764.5 -1.11533e-10 7.09173e-15)
(2764.5 -1.09656e-10 5.96325e-15)
(2764.5 -1.10879e-10 6.14999e-15)
(2764.5 -1.14408e-10 5.71287e-15)
(2764.5 -1.18462e-10 5.90831e-15)
(2764.5 -1.21603e-10 7.28502e-15)
(2764.5 -1.27504e-10 7.97553e-15)
(2764.5 -1.28294e-10 6.61176e-15)
(2764.5 -1.25844e-10 6.32063e-15)
(2764.5 -1.28923e-10 7.57754e-15)
(2764.5 -1.33132e-10 6.59931e-15)
(2764.5 -1.34105e-10 6.50059e-15)
(2764.5 -1.32194e-10 6.02845e-15)
(2764.5 -1.31222e-10 5.49662e-15)
(2764.5 -1.23491e-10 4.73299e-15)
(2764.5 -1.14661e-10 8.79207e-15)
(2764.5 -1.1077e-10 7.61123e-15)
(2764.5 -1.13559e-10 6.38992e-15)
(2764.5 -1.066e-10 5.01125e-15)
(2764.5 -1.07984e-10 4.61963e-15)
(2764.5 -1.06845e-10 5.50955e-15)
(2764.5 -1.05023e-10 2.77411e-15)
(2764.5 -1.0922e-10 3.137e-15)
(2764.5 -1.14939e-10 4.08097e-15)
(2764.5 -1.19449e-10 6.77513e-15)
(2764.5 -1.14852e-10 6.7505e-15)
(2764.5 -1.13966e-10 6.77452e-15)
(2764.5 -1.13141e-10 5.5376e-15)
(2764.5 -1.10213e-10 5.77881e-15)
(2764.5 -1.08035e-10 6.76662e-15)
(2764.5 -1.08993e-10 7.48351e-15)
(2764.5 -1.09637e-10 7.53151e-15)
(2764.5 -1.10325e-10 6.82695e-15)
(2764.5 -1.14297e-10 6.7729e-15)
(2764.5 -1.14045e-10 5.23728e-15)
(2764.5 -1.16952e-10 3.56121e-15)
(2764.5 -1.18615e-10 5.7918e-15)
(2764.5 -1.23302e-10 3.87308e-15)
(2764.5 -1.171e-10 6.19265e-15)
(2764.5 -1.02484e-10 7.60097e-15)
(2764.5 -9.91733e-11 5.18006e-15)
(2764.5 -1.02867e-10 5.51444e-15)
(2764.5 -1.0792e-10 3.50329e-15)
(2764.5 -1.07644e-10 2.66064e-15)
(2764.5 -1.03376e-10 6.14313e-15)
(2764.5 -1.07573e-10 6.34391e-15)
(2764.5 -1.09018e-10 5.79824e-15)
(2764.5 -1.11444e-10 5.4456e-15)
(2764.5 -1.1878e-10 7.00305e-15)
(2764.5 -1.18174e-10 5.94143e-15)
(2764.5 -1.20305e-10 5.76665e-15)
(2764.5 -1.18824e-10 7.61422e-15)
(2764.5 -1.1732e-10 7.4025e-15)
(2764.5 -1.21077e-10 5.33783e-15)
(2764.5 -1.21945e-10 5.50077e-15)
(2764.5 -1.15626e-10 5.93766e-15)
(2764.5 -1.15865e-10 4.08812e-15)
(2764.5 -1.11375e-10 6.79169e-15)
(2764.5 -1.06877e-10 7.5945e-15)
(2764.5 -1.0829e-10 6.54663e-15)
(2764.5 -1.10501e-10 7.18774e-15)
(2764.5 -1.09042e-10 3.89295e-15)
(2764.5 -1.13876e-10 3.54583e-15)
(2764.5 -1.18081e-10 6.50204e-15)
(2764.5 -1.2637e-10 5.8158e-15)
(2764.5 -1.35882e-10 3.8986e-15)
(2764.5 -1.2994e-10 3.85848e-15)
(2764.5 -1.15649e-10 3.72327e-15)
(2764.5 -1.16262e-10 3.73033e-15)
(2764.5 -1.06988e-10 3.6271e-15)
(2764.5 -1.05131e-10 4.26102e-15)
(2764.5 -9.87383e-11 6.14186e-15)
(2764.5 -8.3907e-11 3.56716e-15)
(2764.5 -7.89925e-11 3.6762e-15)
(2764.5 -7.92241e-11 3.96738e-15)
(2764.5 -8.42977e-11 4.82501e-15)
(2764.5 -8.46381e-11 5.65991e-15)
(2764.5 -9.21482e-11 3.95457e-15)
(2764.5 -1.03629e-10 3.80174e-15)
(2764.5 -1.14163e-10 3.53277e-15)
(2764.5 -1.2542e-10 5.30019e-15)
(2764.5 -1.35535e-10 5.4374e-15)
(2764.5 -1.22161e-10 5.80933e-15)
(2764.5 -1.07183e-10 5.6425e-15)
(2764.5 -1.07841e-10 5.16386e-15)
(2764.5 -1.1202e-10 6.03536e-15)
(2764.5 -1.11327e-10 6.78802e-15)
(2764.5 -1.00258e-10 5.11956e-15)
(2764.5 -9.76046e-11 5.60445e-15)
(2764.5 -8.85493e-11 4.32746e-15)
(2764.5 -8.20711e-11 4.06347e-15)
(2764.5 -8.76934e-11 4.16029e-15)
(2764.5 -9.14754e-11 4.03284e-15)
(2764.5 -1.00369e-10 5.69619e-15)
(2764.5 -1.00079e-10 5.68784e-15)
(2764.5 -9.96612e-11 5.54084e-15)
(2764.5 -1.09289e-10 5.45038e-15)
(2764.5 -1.08468e-10 4.72494e-15)
(2764.5 -1.04162e-10 5.96977e-15)
(2764.5 -9.55968e-11 4.58361e-15)
(2764.5 -1.00759e-10 3.65399e-15)
(2764.5 -9.92874e-11 4.60134e-15)
(2764.5 -9.63192e-11 4.14497e-15)
(2764.5 -9.61338e-11 3.75621e-15)
(2764.5 -9.54658e-11 4.40925e-15)
(2764.5 -1.03885e-10 3.55795e-15)
(2764.5 -1.17874e-10 2.63981e-15)
(2764.5 -1.32552e-10 5.31926e-15)
(2764.5 -1.4159e-10 5.66401e-15)
(2764.5 -1.43347e-10 5.01208e-15)
(2764.5 -1.36199e-10 5.46458e-15)
(2764.5 -1.31983e-10 5.90549e-15)
(2764.5 -1.30278e-10 3.18657e-15)
(2764.5 -1.22801e-10 4.33728e-15)
(2764.5 -1.17167e-10 4.90971e-15)
(2764.5 -1.05504e-10 3.607e-15)
(2764.5 -9.15521e-11 4.69391e-15)
(2764.5 -7.54112e-11 5.0554e-15)
(2764.5 -7.74695e-11 4.09483e-15)
(2764.5 -7.36206e-11 3.59921e-15)
(2764.5 -7.8936e-11 4.02615e-15)
(2764.5 -9.17222e-11 4.2726e-15)
(2764.5 -1.01518e-10 4.5707e-15)
(2764.5 -8.58366e-11 4.08847e-15)
(2764.5 -9.2552e-11 4.74054e-15)
(2764.5 -9.95228e-11 2.45984e-15)
(2764.5 -8.91618e-11 2.17249e-15)
(2764.5 -7.88862e-11 3.55152e-15)
(2764.5 -8.35786e-11 4.40542e-15)
(2764.5 -1.11208e-10 5.08836e-15)
(2764.5 -1.40267e-10 6.00482e-15)
(2764.5 -1.51323e-10 6.56283e-15)
(2764.5 -1.55329e-10 4.89503e-15)
(2764.5 -1.55745e-10 4.10454e-15)
(2764.5 -2.07485e-10 1.86664e-14)
(2764.5 -2.07493e-10 1.9561e-14)
(2764.5 -2.08354e-10 1.88065e-14)
(2764.5 -2.07644e-10 2.03118e-14)
(2764.5 -2.05736e-10 2.48408e-14)
(2764.5 -2.05414e-10 2.13184e-14)
(2764.5 -2.05912e-10 1.94946e-14)
(2764.5 -2.05992e-10 2.00135e-14)
(2764.5 -2.06983e-10 2.03314e-14)
(2764.5 -2.10444e-10 2.00987e-14)
(2764.5 -2.17715e-10 2.30219e-14)
(2764.5 -2.24463e-10 2.46722e-14)
(2764.5 -2.28109e-10 2.01497e-14)
(2764.5 -2.25632e-10 1.96195e-14)
(2764.5 -2.2233e-10 2.11951e-14)
(2764.5 -2.15579e-10 2.0145e-14)
(2764.5 -2.33741e-10 1.20312e-14)
(2764.5 -1.90363e-10 1.24294e-14)
(2764.5 -1.56744e-10 1.33584e-14)
(2764.5 -1.41693e-10 1.38327e-14)
(2764.5 -1.48522e-10 1.46226e-14)
(2764.5 -1.63458e-10 1.32437e-14)
(2764.5 -1.87717e-10 1.20751e-14)
(2764.5 -2.0546e-10 1.62686e-14)
(2764.5 -2.09601e-10 1.31678e-14)
(2764.5 -2.06759e-10 1.22943e-14)
(2764.5 -1.93551e-10 1.39466e-14)
(2764.5 -1.87556e-10 1.23873e-14)
(2764.5 -1.82197e-10 1.34864e-14)
(2764.5 -1.85888e-10 1.64829e-14)
(2764.5 -1.86631e-10 1.03576e-14)
(2764.5 -1.88131e-10 1.16945e-14)
(2764.5 -1.89419e-10 1.0373e-14)
(2764.5 -1.84313e-10 1.26922e-14)
(2764.5 -1.84997e-10 1.56001e-14)
(2764.5 -1.84498e-10 1.18198e-14)
(2764.5 -1.82556e-10 1.3414e-14)
(2764.5 -1.8795e-10 1.38478e-14)
(2764.5 -1.94333e-10 1.25711e-14)
(2764.5 -1.92398e-10 1.27083e-14)
(2764.5 -1.88904e-10 1.30244e-14)
(2764.5 -1.78857e-10 1.23863e-14)
(2764.5 -1.71669e-10 1.24934e-14)
(2764.5 -1.71499e-10 1.25428e-14)
(2764.5 -1.68972e-10 1.16532e-14)
(2764.5 -1.76272e-10 1.25873e-14)
(2764.5 -1.86519e-10 1.18947e-14)
(2764.5 -1.88924e-10 1.19362e-14)
(2764.5 -1.88007e-10 1.22663e-14)
(2764.5 -1.88177e-10 1.19765e-14)
(2764.5 -1.81708e-10 1.21509e-14)
(2764.5 -1.79376e-10 1.46344e-14)
(2764.5 -1.7905e-10 1.06282e-14)
(2764.5 -1.74108e-10 1.10326e-14)
(2764.5 -1.77834e-10 1.33886e-14)
(2764.5 -1.81021e-10 1.29408e-14)
(2764.5 -1.82353e-10 1.33523e-14)
(2764.5 -1.80631e-10 1.52608e-14)
(2764.5 -1.80899e-10 9.47023e-15)
(2764.5 -1.7993e-10 1.34116e-14)
(2764.5 -1.74871e-10 1.13651e-14)
(2764.5 -1.74395e-10 1.15113e-14)
(2764.5 -1.771e-10 1.22043e-14)
(2764.5 -1.80913e-10 1.38021e-14)
(2764.5 -1.83036e-10 1.2966e-14)
(2764.5 -1.86655e-10 1.13874e-14)
(2764.5 -1.88475e-10 1.12699e-14)
(2764.5 -1.85726e-10 1.12241e-14)
(2764.5 -1.84567e-10 1.00889e-14)
(2764.5 -1.80081e-10 9.87868e-15)
(2764.5 -1.77601e-10 6.64587e-15)
(2764.5 -1.71483e-10 1.43439e-14)
(2764.5 -1.66231e-10 1.03396e-14)
(2764.5 -1.64862e-10 1.08773e-14)
(2764.5 -1.72047e-10 1.1853e-14)
(2764.5 -1.77603e-10 1.16518e-14)
(2764.5 -1.72749e-10 1.16153e-14)
(2764.5 -1.70245e-10 1.15517e-14)
(2764.5 -1.69698e-10 1.24603e-14)
(2764.5 -1.6663e-10 1.26933e-14)
(2764.5 -1.65615e-10 1.01432e-14)
(2764.5 -1.67482e-10 7.96204e-15)
(2764.5 -1.72298e-10 1.2295e-14)
(2764.5 -1.81686e-10 1.07605e-14)
(2764.5 -1.83069e-10 1.0735e-14)
(2764.5 -1.8576e-10 1.20085e-14)
(2764.5 -1.92403e-10 1.01783e-14)
(2764.5 -1.9665e-10 1.03831e-14)
(2764.5 -2.0013e-10 1.19045e-14)
(2764.5 -2.05682e-10 1.21688e-14)
(2764.5 -2.0598e-10 9.46569e-15)
(2764.5 -2.00495e-10 8.53528e-15)
(2764.5 -1.97355e-10 1.30541e-14)
(2764.5 -1.95395e-10 9.67786e-15)
(2764.5 -1.91638e-10 8.52588e-15)
(2764.5 -1.90148e-10 6.54767e-15)
(2764.5 -1.8327e-10 7.98128e-15)
(2764.5 -1.81475e-10 9.99349e-15)
(2764.5 -1.87143e-10 1.09048e-14)
(2764.5 -1.93551e-10 1.03981e-14)
(2764.5 -1.92985e-10 9.86906e-15)
(2764.5 -1.91855e-10 9.9444e-15)
(2764.5 -1.90943e-10 8.76006e-15)
(2764.5 -1.91842e-10 8.28204e-15)
(2764.5 -1.91031e-10 7.32865e-15)
(2764.5 -1.94697e-10 8.67824e-15)
(2764.5 -1.95537e-10 1.0805e-14)
(2764.5 -1.87764e-10 1.08855e-14)
(2764.5 -1.84024e-10 9.81601e-15)
(2764.5 -1.87014e-10 9.18749e-15)
(2764.5 -1.87988e-10 8.40997e-15)
(2764.5 -1.88993e-10 8.26283e-15)
(2764.5 -1.92034e-10 8.78504e-15)
(2764.5 -1.95661e-10 1.07079e-14)
(2764.5 -1.95376e-10 9.23143e-15)
(2764.5 -1.89126e-10 7.73358e-15)
(2764.5 -1.85424e-10 8.89317e-15)
(2764.5 -1.83169e-10 8.70774e-15)
(2764.5 -1.78676e-10 8.43206e-15)
(2764.5 -1.73308e-10 1.01926e-14)
(2764.5 -1.63756e-10 1.1788e-14)
(2764.5 -1.57682e-10 8.03402e-15)
(2764.5 -1.52784e-10 6.45869e-15)
(2764.5 -1.55951e-10 9.12053e-15)
(2764.5 -1.62877e-10 9.14515e-15)
(2764.5 -1.60928e-10 1.06284e-14)
(2764.5 -1.58386e-10 1.08148e-14)
(2764.5 -1.58411e-10 1.03166e-14)
(2764.5 -1.51819e-10 8.60691e-15)
(2764.5 -1.60149e-10 9.73554e-15)
(2764.5 -1.7382e-10 9.44556e-15)
(2764.5 -1.76464e-10 9.44001e-15)
(2764.5 -1.86163e-10 9.59782e-15)
(2764.5 -1.87971e-10 9.93857e-15)
(2764.5 -1.87448e-10 9.28901e-15)
(2764.5 -1.83494e-10 9.86359e-15)
(2764.5 -1.7284e-10 9.75885e-15)
(2764.5 -1.62898e-10 9.22918e-15)
(2764.5 -1.5857e-10 9.42466e-15)
(2764.5 -1.56599e-10 8.85083e-15)
(2764.5 -1.63281e-10 8.42819e-15)
(2764.5 -1.7626e-10 7.50066e-15)
(2764.5 -1.73713e-10 7.19594e-15)
(2764.5 -1.73535e-10 8.30759e-15)
(2764.5 -1.67228e-10 6.19805e-15)
(2764.5 -1.6743e-10 5.3404e-15)
(2764.5 -1.72474e-10 6.41665e-15)
(2764.5 -1.7242e-10 5.87173e-15)
(2764.5 -1.627e-10 8.83848e-15)
(2764.5 -1.51751e-10 9.56075e-15)
(2764.5 -1.51323e-10 8.25789e-15)
(2764.5 -1.50765e-10 8.80345e-15)
(2764.5 -1.50335e-10 9.18147e-15)
(2764.5 -1.59664e-10 8.71536e-15)
(2764.5 -1.67755e-10 1.0195e-14)
(2764.5 -1.86843e-10 9.33578e-15)
(2764.5 -2.07645e-10 9.1368e-15)
(2764.5 -2.19763e-10 8.24392e-15)
(2764.5 -2.13858e-10 9.33969e-15)
(2764.5 -1.9813e-10 8.99125e-15)
(2764.5 -1.92451e-10 8.00584e-15)
(2764.5 -1.98716e-10 7.6273e-15)
(2764.5 -1.92101e-10 8.81498e-15)
(2764.5 -1.83713e-10 1.02129e-14)
(2764.5 -1.74178e-10 9.17661e-15)
(2764.5 -1.59199e-10 7.9477e-15)
(2764.5 -1.50275e-10 8.95693e-15)
(2764.5 -1.461e-10 8.29735e-15)
(2764.5 -1.40687e-10 9.08684e-15)
(2764.5 -1.47163e-10 7.87676e-15)
(2764.5 -1.48126e-10 7.21433e-15)
(2764.5 -1.5288e-10 8.32465e-15)
(2764.5 -1.68421e-10 8.23883e-15)
(2764.5 -1.75272e-10 1.00377e-14)
(2764.5 -1.78691e-10 8.39877e-15)
(2764.5 -1.83661e-10 8.50031e-15)
(2764.5 -1.92476e-10 8.08653e-15)
(2764.5 -1.91727e-10 5.43055e-15)
(2764.5 -1.93489e-10 4.90565e-15)
(2764.5 -1.95119e-10 5.50315e-15)
(2764.5 -1.89658e-10 7.26988e-15)
(2764.5 -1.87e-10 7.52127e-15)
(2764.5 -1.82318e-10 6.34009e-15)
(2764.5 -1.74857e-10 7.26721e-15)
(2764.5 -1.72634e-10 9.21597e-15)
(2764.5 -1.66295e-10 8.74303e-15)
(2764.5 -1.53519e-10 6.50694e-15)
(2764.5 -1.44581e-10 8.89132e-15)
(2764.5 -1.47264e-10 9.01116e-15)
(2764.5 -1.45695e-10 8.11905e-15)
(2764.5 -1.50528e-10 6.37767e-15)
(2764.5 -1.42607e-10 6.18786e-15)
(2764.5 -1.26414e-10 6.50539e-15)
(2764.5 -1.1796e-10 6.16258e-15)
(2764.5 -1.18561e-10 4.99626e-15)
(2764.5 -1.22372e-10 4.74776e-15)
(2764.5 -1.32023e-10 5.37512e-15)
(2764.5 -1.63511e-10 4.95382e-15)
(2764.5 -1.97405e-10 5.49179e-15)
(2764.5 -2.15552e-10 6.36964e-15)
(2764.5 -2.26054e-10 6.53174e-15)
(2764.5 -2.26063e-10 8.08143e-15)
(2764.5 -2.10916e-10 6.7155e-15)
(2764.5 -2.00037e-10 6.18509e-15)
(2764.5 -1.8567e-10 8.32123e-15)
(2764.5 -2.04069e-10 7.32865e-15)
(2764.5 -2.16789e-10 6.86975e-15)
(2764.5 -2.11118e-10 7.72609e-15)
(2764.5 -1.88671e-10 7.81983e-15)
(2764.5 -2.92564e-10 2.84248e-14)
(2764.5 -2.91114e-10 2.7246e-14)
(2764.5 -2.8928e-10 2.55031e-14)
(2764.5 -2.89735e-10 2.9902e-14)
(2764.5 -2.87824e-10 3.01795e-14)
(2764.5 -2.87547e-10 2.22248e-14)
(2764.5 -2.83371e-10 2.34706e-14)
(2764.5 -2.77296e-10 2.65732e-14)
(2764.5 -2.73209e-10 2.83536e-14)
(2764.5 -2.72537e-10 2.76629e-14)
(2764.5 -2.7636e-10 3.23058e-14)
(2764.5 -2.77571e-10 3.062e-14)
(2764.5 -2.84764e-10 2.71025e-14)
(2764.5 -2.93397e-10 2.55418e-14)
(2764.5 -2.98977e-10 2.68026e-14)
(2764.5 -3.06665e-10 2.56128e-14)
(2764.5 -2.16343e-10 1.85772e-14)
(2764.5 -2.84371e-10 1.74613e-14)
(2764.5 -3.33577e-10 1.84397e-14)
(2764.5 -3.46401e-10 1.76701e-14)
(2764.5 -3.35847e-10 1.91452e-14)
(2764.5 -3.01697e-10 1.99016e-14)
(2764.5 -2.57907e-10 1.89186e-14)
(2764.5 -2.30955e-10 1.94358e-14)
(2764.5 -2.23031e-10 1.85455e-14)
(2764.5 -2.39931e-10 2.11537e-14)
(2764.5 -2.5869e-10 1.91045e-14)
(2764.5 -2.71423e-10 1.95545e-14)
(2764.5 -2.72656e-10 1.63968e-14)
(2764.5 -2.66177e-10 1.54918e-14)
(2764.5 -2.61172e-10 1.83168e-14)
(2764.5 -2.53841e-10 1.73686e-14)
(2764.5 -2.52024e-10 1.72926e-14)
(2764.5 -2.53359e-10 1.58224e-14)
(2764.5 -2.50696e-10 1.4014e-14)
(2764.5 -2.57033e-10 1.43691e-14)
(2764.5 -2.51637e-10 1.75064e-14)
(2764.5 -2.50204e-10 1.98828e-14)
(2764.5 -2.55783e-10 2.02613e-14)
(2764.5 -2.61314e-10 1.80334e-14)
(2764.5 -2.61314e-10 1.70869e-14)
(2764.5 -2.61869e-10 1.74307e-14)
(2764.5 -2.56044e-10 1.75284e-14)
(2764.5 -2.47788e-10 1.67431e-14)
(2764.5 -2.40526e-10 1.95335e-14)
(2764.5 -2.39496e-10 1.91082e-14)
(2764.5 -2.42617e-10 1.35219e-14)
(2764.5 -2.46696e-10 1.79216e-14)
(2764.5 -2.54598e-10 1.58837e-14)
(2764.5 -2.59826e-10 1.60096e-14)
(2764.5 -2.5946e-10 1.73208e-14)
(2764.5 -2.54611e-10 1.68201e-14)
(2764.5 -2.55679e-10 1.68541e-14)
(2764.5 -2.52303e-10 1.87588e-14)
(2764.5 -2.48228e-10 1.80701e-14)
(2764.5 -2.51556e-10 1.4309e-14)
(2764.5 -2.54401e-10 1.92389e-14)
(2764.5 -2.54316e-10 1.7315e-14)
(2764.5 -2.5538e-10 1.43389e-14)
(2764.5 -2.58239e-10 1.75583e-14)
(2764.5 -2.62004e-10 1.76351e-14)
(2764.5 -2.62036e-10 1.80112e-14)
(2764.5 -2.54884e-10 1.71022e-14)
(2764.5 -2.52348e-10 1.53898e-14)
(2764.5 -2.49291e-10 1.75833e-14)
(2764.5 -2.46681e-10 1.55307e-14)
(2764.5 -2.48946e-10 1.27965e-14)
(2764.5 -2.516e-10 1.62249e-14)
(2764.5 -2.52581e-10 1.58501e-14)
(2764.5 -2.60659e-10 1.60818e-14)
(2764.5 -2.58555e-10 1.60371e-14)
(2764.5 -2.6074e-10 1.74923e-14)
(2764.5 -2.58232e-10 1.54711e-14)
(2764.5 -2.49433e-10 1.5447e-14)
(2764.5 -2.37705e-10 1.57092e-14)
(2764.5 -2.34308e-10 1.52194e-14)
(2764.5 -2.43365e-10 1.6923e-14)
(2764.5 -2.4364e-10 1.52632e-14)
(2764.5 -2.4196e-10 1.50377e-14)
(2764.5 -2.37678e-10 1.54331e-14)
(2764.5 -2.37416e-10 1.3047e-14)
(2764.5 -2.32529e-10 1.34402e-14)
(2764.5 -2.26084e-10 1.62877e-14)
(2764.5 -2.2568e-10 1.47378e-14)
(2764.5 -2.29777e-10 1.59829e-14)
(2764.5 -2.32658e-10 1.61033e-14)
(2764.5 -2.43122e-10 1.5812e-14)
(2764.5 -2.59416e-10 1.53601e-14)
(2764.5 -2.67427e-10 1.59922e-14)
(2764.5 -2.7063e-10 1.47948e-14)
(2764.5 -2.75708e-10 1.46801e-14)
(2764.5 -2.76155e-10 1.48363e-14)
(2764.5 -2.68093e-10 1.59381e-14)
(2764.5 -2.60266e-10 1.513e-14)
(2764.5 -2.57703e-10 1.51619e-14)
(2764.5 -2.52586e-10 1.437e-14)
(2764.5 -2.45941e-10 1.69458e-14)
(2764.5 -2.38627e-10 1.49034e-14)
(2764.5 -2.35312e-10 1.49287e-14)
(2764.5 -2.33569e-10 1.24261e-14)
(2764.5 -2.45269e-10 1.54421e-14)
(2764.5 -2.4886e-10 1.45046e-14)
(2764.5 -2.46809e-10 1.37198e-14)
(2764.5 -2.4303e-10 1.27906e-14)
(2764.5 -2.4425e-10 1.25074e-14)
(2764.5 -2.48725e-10 1.41381e-14)
(2764.5 -2.55843e-10 1.46165e-14)
(2764.5 -2.62382e-10 1.38043e-14)
(2764.5 -2.61949e-10 1.33997e-14)
(2764.5 -2.61845e-10 1.40973e-14)
(2764.5 -2.57756e-10 1.26415e-14)
(2764.5 -2.57104e-10 1.24057e-14)
(2764.5 -2.6053e-10 1.29798e-14)
(2764.5 -2.63969e-10 1.36838e-14)
(2764.5 -2.67529e-10 1.2826e-14)
(2764.5 -2.69988e-10 1.26057e-14)
(2764.5 -2.7084e-10 1.30951e-14)
(2764.5 -2.71977e-10 1.23153e-14)
(2764.5 -2.70188e-10 1.34291e-14)
(2764.5 -2.67774e-10 1.54863e-14)
(2764.5 -2.67452e-10 1.37391e-14)
(2764.5 -2.58131e-10 1.3195e-14)
(2764.5 -2.53387e-10 1.37496e-14)
(2764.5 -2.43039e-10 1.34616e-14)
(2764.5 -2.35026e-10 1.26861e-14)
(2764.5 -2.46446e-10 1.09098e-14)
(2764.5 -2.50629e-10 1.22972e-14)
(2764.5 -2.5283e-10 1.69444e-14)
(2764.5 -2.36293e-10 1.40537e-14)
(2764.5 -2.21791e-10 1.26365e-14)
(2764.5 -2.171e-10 1.41881e-14)
(2764.5 -2.2505e-10 1.00384e-14)
(2764.5 -2.36096e-10 1.23634e-14)
(2764.5 -2.45555e-10 1.08142e-14)
(2764.5 -2.56692e-10 1.25663e-14)
(2764.5 -2.62727e-10 1.62276e-14)
(2764.5 -2.73889e-10 1.3645e-14)
(2764.5 -2.72795e-10 1.26392e-14)
(2764.5 -2.66748e-10 1.36481e-14)
(2764.5 -2.4979e-10 1.42305e-14)
(2764.5 -2.31073e-10 1.3219e-14)
(2764.5 -2.29186e-10 1.33161e-14)
(2764.5 -2.30183e-10 1.18866e-14)
(2764.5 -2.34671e-10 1.02783e-14)
(2764.5 -2.32657e-10 1.18877e-14)
(2764.5 -2.24607e-10 1.17476e-14)
(2764.5 -2.30557e-10 1.17167e-14)
(2764.5 -2.29508e-10 1.06344e-14)
(2764.5 -2.31367e-10 9.44987e-15)
(2764.5 -2.21944e-10 9.76653e-15)
(2764.5 -2.08961e-10 9.97309e-15)
(2764.5 -2.07881e-10 1.00783e-14)
(2764.5 -1.94563e-10 1.18193e-14)
(2764.5 -1.98914e-10 1.28088e-14)
(2764.5 -2.0104e-10 1.2796e-14)
(2764.5 -2.07931e-10 1.06792e-14)
(2764.5 -2.23294e-10 9.71396e-15)
(2764.5 -2.48842e-10 1.02126e-14)
(2764.5 -2.49945e-10 1.00218e-14)
(2764.5 -2.4512e-10 1.09244e-14)
(2764.5 -2.39324e-10 9.33671e-15)
(2764.5 -2.40315e-10 1.156e-14)
(2764.5 -2.49434e-10 1.22439e-14)
(2764.5 -2.50619e-10 1.06855e-14)
(2764.5 -2.5217e-10 1.08725e-14)
(2764.5 -2.45455e-10 1.09452e-14)
(2764.5 -2.39747e-10 1.17094e-14)
(2764.5 -2.44185e-10 9.11806e-15)
(2764.5 -2.38085e-10 9.77556e-15)
(2764.5 -2.5053e-10 8.90553e-15)
(2764.5 -2.52489e-10 1.00396e-14)
(2764.5 -2.42121e-10 9.44613e-15)
(2764.5 -2.37505e-10 9.21008e-15)
(2764.5 -2.50814e-10 1.14529e-14)
(2764.5 -2.49499e-10 1.11995e-14)
(2764.5 -2.35022e-10 1.0776e-14)
(2764.5 -2.33428e-10 1.21384e-14)
(2764.5 -2.31725e-10 1.11956e-14)
(2764.5 -2.25254e-10 1.19735e-14)
(2764.5 -2.18784e-10 9.20513e-15)
(2764.5 -2.10337e-10 1.01396e-14)
(2764.5 -2.03207e-10 9.91149e-15)
(2764.5 -2.00875e-10 8.89856e-15)
(2764.5 -1.98082e-10 9.2561e-15)
(2764.5 -1.89011e-10 8.65905e-15)
(2764.5 -1.89222e-10 6.37878e-15)
(2764.5 -1.92638e-10 1.19742e-14)
(2764.5 -1.94442e-10 9.44996e-15)
(2764.5 -1.97777e-10 9.54339e-15)
(2764.5 -2.16439e-10 1.11263e-14)
(2764.5 -2.42892e-10 1.08559e-14)
(2764.5 -2.60917e-10 9.97235e-15)
(2764.5 -2.96347e-10 1.10611e-14)
(2764.5 -3.0287e-10 9.97589e-15)
(2764.5 -2.9946e-10 9.58715e-15)
(2764.5 -2.86582e-10 9.02519e-15)
(2764.5 -2.71973e-10 9.82387e-15)
(2764.5 -2.6253e-10 9.99829e-15)
(2764.5 -2.49518e-10 8.89903e-15)
(2764.5 -2.44463e-10 9.97431e-15)
(2764.5 -2.31642e-10 1.09259e-14)
(2764.5 -2.15577e-10 1.02578e-14)
(2764.5 -2.02155e-10 9.4399e-15)
(2764.5 -1.82967e-10 8.89155e-15)
(2764.5 -1.43039e-10 9.61822e-15)
(2764.5 -1.2066e-10 1.01209e-14)
(2764.5 -1.10755e-10 1.04145e-14)
(2764.5 -1.42593e-10 9.46423e-15)
(2764.5 -1.60482e-10 8.81772e-15)
(2764.5 -3.6918e-10 3.51259e-14)
(2764.5 -3.70483e-10 3.42407e-14)
(2764.5 -3.72639e-10 3.75187e-14)
(2764.5 -3.75996e-10 4.10879e-14)
(2764.5 -3.79161e-10 3.55664e-14)
(2764.5 -3.81905e-10 3.32133e-14)
(2764.5 -3.85249e-10 3.46535e-14)
(2764.5 -3.8618e-10 3.75547e-14)
(2764.5 -3.85944e-10 3.56942e-14)
(2764.5 -3.80681e-10 4.02139e-14)
(2764.5 -3.7598e-10 4.06483e-14)
(2764.5 -3.72066e-10 3.59312e-14)
(2764.5 -3.66019e-10 3.54248e-14)
(2764.5 -3.60391e-10 3.2591e-14)
(2764.5 -3.51034e-10 3.0794e-14)
(2764.5 -3.86421e-10 2.68792e-14)
(2764.5 -2.68458e-10 2.38127e-14)
(2764.5 -2.14759e-10 2.31043e-14)
(2764.5 -2.10962e-10 2.14064e-14)
(2764.5 -2.41742e-10 2.47301e-14)
(2764.5 -3.13812e-10 2.24728e-14)
(2764.5 -3.77498e-10 2.20063e-14)
(2764.5 -3.90001e-10 2.47532e-14)
(2764.5 -3.84816e-10 2.37555e-14)