/*--------------------------------*- C++ -*----------------------------------*\
| =========                 |                                                 |
| \\      /  F ield         | OpenFOAM: The Open Source CFD Toolbox           |
|  \\    /   O peration     | Version:  v1706                                 |
|   \\  /    A nd           | Web:      www.OpenFOAM.com                      |
|    \\/     M anipulation  |                                                 |
\*---------------------------------------------------------------------------*/
FoamFile
{
    version     2.0;
    format      ascii;
    class       volScalarField;
    location    "1.2e-05";
    object      wallHeatFlux;
}
// * * * * * * * * * * * * * * * * * * * * * * * * * * * * * * * * * * * * * //

dimensions      [1 0 -3 0 0 0 0];


internalField   uniform 0;

boundaryField
{
    cone
    {
        type            calculated;
        value           nonuniform List<scalar> 
119
(
78422.1
76792.1
74979.5
73074.8
71161.8
69313.3
67585.9
66018
64630
63427.1
62403
61544.4
60834.5
60256.3
59791.9
59424.5
59140.2
58926.3
58771.9
58667.8
58606.6
58582.4
58590.6
58627.8
58691.8
58781
58894.9
59033.4
59197.1
59386.6
59602.9
59847.1
60119.9
60422.2
60754.7
61117.6
61511.1
61935.1
62389.3
62873.3
63386.5
63928.4
64498.5
65096.3
65721.5
66374
67053.9
67761.2
68496.5
69260.1
70052.7
70875.2
71728.1
72612.5
73529.1
74478.8
75462.5
76481
77535.1
78625.8
79753.8
80920
82125.2
83370.3
84656.3
85983.9
87354.3
88768.4
90227.4
91732.2
93284.1
94884.1
96533.5
98233.5
99985.2
101790
103649
105563
107534
109563
111650
113798
116007
118278
120612
123011
125475
128005
130603
133268
136001
138804
141676
144619
147632
150715
153870
157094
160389
163755
167193
170705
174299
177984
181773
185683
189726
193899
198180
202506
206765
210802
214515
217953
221276
224825
228859
234651
243634
)
;
    }
    inlet
    {
        type            calculated;
        value           uniform 0;
    }
    rWedge
    {
        type            wedge;
    }
    lWedge
    {
        type            wedge;
    }
    outlet
    {
        type            calculated;
        value           uniform 0;
    }
    procBoundary0to1
    {
        type            processor;
        value           uniform 0;
    }
    procBoundary0to2
    {
        type            processor;
        value           uniform 0;
    }
}


// ************************************************************************* //
