/*--------------------------------*- C++ -*----------------------------------*\
| =========                 |                                                 |
| \\      /  F ield         | OpenFOAM: The Open Source CFD Toolbox           |
|  \\    /   O peration     | Version:  v1706                                 |
|   \\  /    A nd           | Web:      www.OpenFOAM.com                      |
|    \\/     M anipulation  |                                                 |
\*---------------------------------------------------------------------------*/
FoamFile
{
    version     2.0;
    format      ascii;
    class       volScalarField;
    location    "4e-06";
    object      alpha;
}
// * * * * * * * * * * * * * * * * * * * * * * * * * * * * * * * * * * * * * //

dimensions      [1 -1 -1 0 0 0 0];


internalField   nonuniform List<scalar> 
30038
(
1.40478e-05
1.40478e-05
1.40478e-05
1.40478e-05
1.40478e-05
1.40478e-05
1.40478e-05
1.40478e-05
1.40478e-05
1.40478e-05
1.40478e-05
1.40478e-05
1.40478e-05
1.40478e-05
1.40478e-05
1.40478e-05
1.40478e-05
1.40478e-05
1.40478e-05
1.40478e-05
1.40478e-05
1.40478e-05
1.40478e-05
1.40478e-05
1.40478e-05
1.40478e-05
1.40478e-05
1.40478e-05
1.40478e-05
1.40478e-05
1.40478e-05
1.40478e-05
1.40478e-05
1.40478e-05
1.40478e-05
1.40478e-05
1.40478e-05
1.40478e-05
1.40478e-05
1.40478e-05
1.40478e-05
1.40478e-05
1.40478e-05
1.40478e-05
1.40478e-05
1.40478e-05
1.40478e-05
1.40478e-05
1.40478e-05
1.40478e-05
1.40478e-05
1.40478e-05
1.40478e-05
1.40478e-05
1.40478e-05
1.40478e-05
1.40478e-05
1.40478e-05
1.40478e-05
1.40478e-05
1.40478e-05
1.40478e-05
1.40478e-05
1.40478e-05
1.40478e-05
1.40478e-05
1.40478e-05
1.40478e-05
1.40478e-05
1.40478e-05
1.40478e-05
1.40478e-05
1.40478e-05
1.40478e-05
1.40478e-05
1.40478e-05
1.40478e-05
1.40478e-05
1.40478e-05
1.40478e-05
1.40478e-05
1.40478e-05
1.40478e-05
1.40478e-05
1.40478e-05
1.40478e-05
1.40478e-05
1.40478e-05
1.40478e-05
1.40478e-05
1.40478e-05
1.40478e-05
1.40478e-05
1.40478e-05
1.40478e-05
1.40478e-05
1.40478e-05
1.40478e-05
1.40478e-05
1.40478e-05
1.40478e-05
1.40478e-05
1.40478e-05
1.40478e-05
1.40478e-05
1.40478e-05
1.40478e-05
1.40478e-05
1.40478e-05
1.40478e-05
1.40478e-05
1.40478e-05
1.40478e-05
1.40478e-05
1.40478e-05
1.40478e-05
1.40478e-05
1.40478e-05
1.40478e-05
1.40478e-05
1.40478e-05
1.40478e-05
1.40478e-05
1.40478e-05
1.40478e-05
1.40478e-05
1.40478e-05
1.40478e-05
1.40478e-05
1.40478e-05
1.40478e-05
1.40478e-05
1.40478e-05
1.40478e-05
1.40478e-05
1.40478e-05
1.40478e-05
1.40478e-05
1.40478e-05
1.40478e-05
1.40478e-05
1.40478e-05
1.40478e-05
1.40478e-05
1.40478e-05
1.40478e-05
1.40478e-05
1.40478e-05
1.40478e-05
1.40478e-05
1.40478e-05
1.40478e-05
1.40478e-05
1.40478e-05
1.40478e-05
1.40478e-05
1.40478e-05
1.40478e-05
1.40478e-05
1.40478e-05
1.40478e-05
1.40478e-05
1.40478e-05
1.40478e-05
1.40478e-05
1.40478e-05
1.40478e-05
1.40478e-05
1.40478e-05
1.40478e-05
1.40478e-05
1.40478e-05
1.40478e-05
1.40478e-05
1.40478e-05
1.40478e-05
1.40478e-05
1.40478e-05
1.40478e-05
1.40478e-05
1.40478e-05
1.40478e-05
1.40478e-05
1.40478e-05
1.40478e-05
1.40478e-05
1.40478e-05
1.40478e-05
1.40478e-05
1.40478e-05
1.40478e-05
1.40478e-05
1.40478e-05
1.40478e-05
1.40478e-05
1.40478e-05
1.40478e-05
1.40478e-05
1.40478e-05
1.40478e-05
1.40478e-05
1.40478e-05
1.40478e-05
1.40478e-05
1.40478e-05
1.40478e-05
1.40478e-05
1.40478e-05
1.40478e-05
1.40478e-05
1.40478e-05
1.40478e-05
1.40478e-05
1.40478e-05
1.40478e-05
1.40478e-05
1.40478e-05
1.40478e-05
1.40478e-05
1.40478e-05
1.40478e-05
1.40478e-05
1.40478e-05
1.40478e-05
1.40478e-05
1.40478e-05
1.40478e-05
1.40478e-05
1.40478e-05
1.40478e-05
1.40478e-05
1.40478e-05
1.40478e-05
1.40478e-05
1.40478e-05
1.40478e-05
1.40478e-05
1.40478e-05
1.40478e-05
1.40478e-05
1.40478e-05
1.40478e-05
1.40478e-05
1.40478e-05
1.40478e-05
1.40478e-05
1.40478e-05
1.40478e-05
1.40478e-05
1.40478e-05
1.40478e-05
1.40478e-05
1.40478e-05
1.40478e-05
1.40478e-05
1.40478e-05
1.40478e-05
1.40478e-05
1.40478e-05
1.40478e-05
1.40478e-05
1.40478e-05
1.40478e-05
1.40478e-05
1.40478e-05
1.40478e-05
1.40478e-05
1.40478e-05
1.40478e-05
1.40478e-05
1.40478e-05
1.40478e-05
1.40478e-05
1.40478e-05
1.40478e-05
1.40478e-05
1.40478e-05
1.40478e-05
1.40478e-05
1.40478e-05
1.40478e-05
1.40478e-05
1.40478e-05
1.40478e-05
1.40478e-05
1.40478e-05
1.40478e-05
1.40478e-05
1.40478e-05
1.40478e-05
1.40478e-05
1.40478e-05
1.40478e-05
1.40478e-05
1.40478e-05
1.40478e-05
1.40478e-05
1.40478e-05
1.40478e-05
1.40478e-05
1.40478e-05
1.40478e-05
1.40478e-05
1.40478e-05
1.40478e-05
1.40478e-05
1.40478e-05
1.40478e-05
1.40478e-05
1.40478e-05
1.40478e-05
1.40478e-05
1.40478e-05
1.40478e-05
1.40478e-05
1.40478e-05
1.40478e-05
1.40478e-05
1.40478e-05
1.40478e-05
1.40478e-05
1.40478e-05
1.40478e-05
1.40478e-05
1.40478e-05
1.40478e-05
1.40478e-05
1.40478e-05
1.40478e-05
1.40478e-05
1.40478e-05
1.40478e-05
1.40478e-05
1.40478e-05
1.40478e-05
1.40478e-05
1.40478e-05
1.40478e-05
1.40478e-05
1.40478e-05
1.40478e-05
1.40478e-05
1.40478e-05
1.40478e-05
1.40478e-05
1.40478e-05
1.40478e-05
1.40478e-05
1.40478e-05
1.40478e-05
1.40478e-05
1.40478e-05
1.40478e-05
1.40478e-05
1.40478e-05
1.40478e-05
1.40478e-05
1.40478e-05
1.40478e-05
1.40478e-05
1.40478e-05
1.40478e-05
1.40478e-05
1.40478e-05
1.40478e-05
1.40478e-05
1.40478e-05
1.40478e-05
1.40478e-05
1.40478e-05
1.40478e-05
1.40478e-05
1.40478e-05
1.40478e-05
1.40478e-05
1.40478e-05
1.40478e-05
1.40478e-05
1.40478e-05
1.40478e-05
1.40478e-05
1.40478e-05
1.40478e-05
1.40478e-05
1.40478e-05
1.40478e-05
1.40478e-05
1.40478e-05
1.40478e-05
1.40478e-05
1.40478e-05
1.40478e-05
1.40478e-05
1.40478e-05
1.40478e-05
1.40478e-05
1.40478e-05
1.40478e-05
1.40478e-05
1.40478e-05
1.40478e-05
1.40478e-05
1.40478e-05
1.40478e-05
1.40478e-05
1.40478e-05
1.40478e-05
1.40478e-05
1.40478e-05
1.40478e-05
1.40478e-05
1.40478e-05
1.40478e-05
1.40478e-05
1.40478e-05
1.40478e-05
1.40478e-05
1.40478e-05
1.40478e-05
1.40478e-05
1.40478e-05
1.40478e-05
1.40478e-05
1.40478e-05
1.40478e-05
1.40478e-05
1.40478e-05
1.40478e-05
1.40478e-05
1.40478e-05
1.40478e-05
1.40478e-05
1.40478e-05
1.40478e-05
1.40478e-05
1.40478e-05
1.40478e-05
1.40478e-05
1.40478e-05
1.40478e-05
1.40478e-05
1.40478e-05
1.40478e-05
1.40478e-05
1.40478e-05
1.40478e-05
1.40478e-05
1.40478e-05
1.40478e-05
1.40478e-05
1.40478e-05
1.40478e-05
1.40478e-05
1.40478e-05
1.40478e-05
1.40478e-05
1.40478e-05
1.40478e-05
1.40478e-05
1.40478e-05
1.40478e-05
1.40478e-05
1.40478e-05
1.40478e-05
1.40478e-05
1.40478e-05
1.40478e-05
1.40478e-05
1.40478e-05
1.40478e-05
1.40478e-05
1.40478e-05
1.40478e-05
1.40478e-05
1.40478e-05
1.40478e-05
1.40478e-05
1.40478e-05
1.40478e-05
1.40478e-05
1.40478e-05
1.40478e-05
1.40478e-05
1.40478e-05
1.40478e-05
1.40478e-05
1.40478e-05
1.40478e-05
1.40478e-05
1.40478e-05
1.40478e-05
1.40478e-05
1.40478e-05
1.40478e-05
1.40478e-05
1.40478e-05
1.40478e-05
1.40478e-05
1.40478e-05
1.40478e-05
1.40478e-05
1.40478e-05
1.40478e-05
1.40478e-05
1.40478e-05
1.40478e-05
1.40478e-05
1.40478e-05
1.40478e-05
1.40478e-05
1.40478e-05
1.40478e-05
1.40478e-05
1.40478e-05
1.40478e-05
1.40478e-05
1.40478e-05
1.40478e-05
1.40478e-05
1.40478e-05
1.40478e-05
1.40478e-05
1.40478e-05
1.40478e-05
1.40478e-05
1.40478e-05
1.40478e-05
1.40478e-05
1.40478e-05
1.40478e-05
1.40478e-05
1.40478e-05
1.40478e-05
1.40478e-05
1.40478e-05
1.40478e-05
1.40478e-05
1.40478e-05
1.40478e-05
1.40478e-05
1.40478e-05
1.40478e-05
1.40478e-05
1.40478e-05
1.40478e-05
1.40478e-05
1.40478e-05
1.40478e-05
1.40478e-05
1.40478e-05
1.40478e-05
1.40478e-05
1.40478e-05
1.40478e-05
1.40478e-05
1.40478e-05
1.40478e-05
1.40478e-05
1.40478e-05
1.40478e-05
1.40478e-05
1.40478e-05
1.40478e-05
1.40478e-05
1.40478e-05
1.40478e-05
1.40478e-05
1.40478e-05
1.40478e-05
1.40478e-05
1.40478e-05
1.40478e-05
1.40478e-05
1.40478e-05
1.40478e-05
1.40478e-05
1.40478e-05
1.40478e-05
1.40478e-05
1.40478e-05
1.40478e-05
1.40478e-05
1.40478e-05
1.40478e-05
1.40478e-05
1.40478e-05
1.40478e-05
1.40478e-05
1.40478e-05
1.40478e-05
1.40478e-05
1.40478e-05
1.40478e-05
1.40478e-05
1.40478e-05
1.40478e-05
1.40478e-05
1.40478e-05
1.40478e-05
1.40478e-05
1.40478e-05
1.40478e-05
1.40478e-05
1.40478e-05
1.40478e-05
1.40478e-05
1.40478e-05
1.40478e-05
1.40478e-05
1.40478e-05
1.40478e-05
1.40478e-05
1.40478e-05
1.40478e-05
1.40478e-05
1.40478e-05
1.40478e-05
1.40478e-05
1.40478e-05
1.40478e-05
1.40478e-05
1.40478e-05
1.40478e-05
1.40478e-05
1.40478e-05
1.40478e-05
1.40478e-05
1.40478e-05
1.40478e-05
1.40478e-05
1.40478e-05
1.40478e-05
1.40478e-05
1.40478e-05
1.40478e-05
1.40478e-05
1.40478e-05
1.40478e-05
1.40478e-05
1.40478e-05
1.40478e-05
1.40478e-05
1.40478e-05
1.40478e-05
1.40478e-05
1.40478e-05
1.40478e-05
1.40478e-05
1.40478e-05
1.40478e-05
1.40478e-05
1.40478e-05
1.40478e-05
1.40478e-05
1.40478e-05
1.40478e-05
1.40478e-05
1.40478e-05
1.40478e-05
1.40478e-05
1.40478e-05
1.40478e-05
1.40478e-05
1.40478e-05
1.40478e-05
1.40478e-05
1.40478e-05
1.40478e-05
1.40478e-05
1.40478e-05
1.40478e-05
1.40478e-05
1.40478e-05
1.40478e-05
1.40478e-05
1.40478e-05
1.40478e-05
1.40478e-05
1.40478e-05
1.40478e-05
1.40478e-05
1.40478e-05
1.40478e-05
1.40478e-05
1.40478e-05
1.40478e-05
1.40478e-05
1.40478e-05
1.40478e-05
1.40478e-05
1.40478e-05
1.40478e-05
1.40478e-05
1.40478e-05
1.40478e-05
1.40478e-05
1.40478e-05
1.40478e-05
1.40478e-05
1.40479e-05
1.40479e-05
1.40478e-05
1.40478e-05
1.40478e-05
1.40478e-05
1.40478e-05
1.40478e-05
1.40478e-05
1.40478e-05
1.40478e-05
1.40478e-05
1.40478e-05
1.40478e-05
1.40478e-05
1.40478e-05
1.40478e-05
1.40478e-05
1.40478e-05
1.40478e-05
1.40478e-05
1.40478e-05
1.40478e-05
1.40478e-05
1.40478e-05
1.40478e-05
1.40478e-05
1.40478e-05
1.40478e-05
1.40478e-05
1.40478e-05
1.40478e-05
1.40478e-05
1.40478e-05
1.40478e-05
1.40478e-05
1.40478e-05
1.40478e-05
1.40478e-05
1.40479e-05
1.4048e-05
1.40481e-05
1.40484e-05
1.40478e-05
1.40478e-05
1.40478e-05
1.40478e-05
1.40478e-05
1.40478e-05
1.40478e-05
1.40478e-05
1.40478e-05
1.40478e-05
1.40478e-05
1.40478e-05
1.40478e-05
1.40478e-05
1.40478e-05
1.40478e-05
1.40478e-05
1.40478e-05
1.40478e-05
1.40478e-05
1.40478e-05
1.40478e-05
1.40478e-05
1.40478e-05
1.40478e-05
1.40478e-05
1.40478e-05
1.40478e-05
1.40478e-05
1.40478e-05
1.40478e-05
1.40478e-05
1.40478e-05
1.40478e-05
1.40479e-05
1.40479e-05
1.4048e-05
1.40482e-05
1.40486e-05
1.40492e-05
1.40504e-05
1.40478e-05
1.40478e-05
1.40478e-05
1.40478e-05
1.40478e-05
1.40478e-05
1.40478e-05
1.40478e-05
1.40478e-05
1.40478e-05
1.40478e-05
1.40478e-05
1.40478e-05
1.40478e-05
1.40478e-05
1.40478e-05
1.40478e-05
1.40478e-05
1.40478e-05
1.40478e-05
1.40478e-05
1.40478e-05
1.40478e-05
1.40478e-05
1.40478e-05
1.40478e-05
1.40478e-05
1.40478e-05
1.40478e-05
1.40478e-05
1.40478e-05
1.40478e-05
1.40479e-05
1.40479e-05
1.4048e-05
1.40482e-05
1.40484e-05
1.40489e-05
1.40498e-05
1.40513e-05
1.40541e-05
1.40594e-05
1.40478e-05
1.40478e-05
1.40478e-05
1.40478e-05
1.40478e-05
1.40478e-05
1.40478e-05
1.40478e-05
1.40478e-05
1.40478e-05
1.40478e-05
1.40478e-05
1.40478e-05
1.40478e-05
1.40478e-05
1.40478e-05
1.40478e-05
1.40478e-05
1.40478e-05
1.40478e-05
1.40478e-05
1.40478e-05
1.40478e-05
1.40478e-05
1.40478e-05
1.40478e-05
1.40478e-05
1.40478e-05
1.40478e-05
1.40478e-05
1.40478e-05
1.40479e-05
1.4048e-05
1.40481e-05
1.40483e-05
1.40487e-05
1.40494e-05
1.40507e-05
1.40529e-05
1.40567e-05
1.40635e-05
1.40756e-05
1.40988e-05
1.40478e-05
1.40478e-05
1.40478e-05
1.40478e-05
1.40478e-05
1.40478e-05
1.40478e-05
1.40478e-05
1.40478e-05
1.40478e-05
1.40478e-05
1.40478e-05
1.40478e-05
1.40478e-05
1.40478e-05
1.40478e-05
1.40478e-05
1.40478e-05
1.40478e-05
1.40478e-05
1.40478e-05
1.40478e-05
1.40478e-05
1.40478e-05
1.40478e-05
1.40478e-05
1.40478e-05
1.40478e-05
1.40479e-05
1.40479e-05
1.4048e-05
1.40482e-05
1.40486e-05
1.40491e-05
1.40501e-05
1.40519e-05
1.4055e-05
1.40604e-05
1.40698e-05
1.40865e-05
1.41158e-05
1.41681e-05
1.42658e-05
1.40478e-05
1.40478e-05
1.40478e-05
1.40478e-05
1.40478e-05
1.40478e-05
1.40478e-05
1.40478e-05
1.40478e-05
1.40478e-05
1.40478e-05
1.40478e-05
1.40478e-05
1.40478e-05
1.40478e-05
1.40478e-05
1.40478e-05
1.40478e-05
1.40478e-05
1.40478e-05
1.40478e-05
1.40478e-05
1.40478e-05
1.40478e-05
1.40478e-05
1.40478e-05
1.40479e-05
1.40479e-05
1.4048e-05
1.40482e-05
1.40484e-05
1.40489e-05
1.40497e-05
1.40511e-05
1.40536e-05
1.40579e-05
1.40654e-05
1.40786e-05
1.41017e-05
1.41422e-05
1.42128e-05
1.4336e-05
1.45514e-05
1.49365e-05
1.40478e-05
1.40478e-05
1.40478e-05
1.40478e-05
1.40478e-05
1.40478e-05
1.40478e-05
1.40478e-05
1.40478e-05
1.40478e-05
1.40478e-05
1.40478e-05
1.40478e-05
1.40478e-05
1.40478e-05
1.40478e-05
1.40478e-05
1.40478e-05
1.40478e-05
1.40478e-05
1.40478e-05
1.40478e-05
1.40478e-05
1.40478e-05
1.40478e-05
1.40479e-05
1.4048e-05
1.40481e-05
1.40483e-05
1.40487e-05
1.40493e-05
1.40505e-05
1.40524e-05
1.40559e-05
1.40619e-05
1.40723e-05
1.40905e-05
1.41224e-05
1.41778e-05
1.42741e-05
1.44405e-05
1.47248e-05
1.52025e-05
1.59886e-05
1.72545e-05
1.40478e-05
1.40478e-05
1.40478e-05
1.40478e-05
1.40478e-05
1.40478e-05
1.40478e-05
1.40478e-05
1.40478e-05
1.40478e-05
1.40478e-05
1.40478e-05
1.40478e-05
1.40478e-05
1.40478e-05
1.40478e-05
1.40478e-05
1.40478e-05
1.40478e-05
1.40478e-05
1.40478e-05
1.40478e-05
1.40478e-05
1.40479e-05
1.40479e-05
1.4048e-05
1.40482e-05
1.40485e-05
1.4049e-05
1.405e-05
1.40515e-05
1.40543e-05
1.4059e-05
1.40673e-05
1.40816e-05
1.41066e-05
1.415e-05
1.42254e-05
1.43555e-05
1.45782e-05
1.49542e-05
1.55739e-05
1.65595e-05
1.80523e-05
2.01898e-05
2.30691e-05
1.40478e-05
1.40478e-05
1.40478e-05
1.40478e-05
1.40478e-05
1.40478e-05
1.40478e-05
1.40478e-05
1.40478e-05
1.40478e-05
1.40478e-05
1.40478e-05
1.40478e-05
1.40478e-05
1.40478e-05
1.40478e-05
1.40478e-05
1.40478e-05
1.40478e-05
1.40478e-05
1.40478e-05
1.40478e-05
1.40479e-05
1.40479e-05
1.4048e-05
1.40481e-05
1.40484e-05
1.40488e-05
1.40495e-05
1.40508e-05
1.4053e-05
1.40567e-05
1.40633e-05
1.40746e-05
1.40941e-05
1.41281e-05
1.41868e-05
1.42882e-05
1.44621e-05
1.47568e-05
1.52472e-05
1.60392e-05
1.72645e-05
1.90559e-05
2.15054e-05
2.46259e-05
2.83541e-05
3.25468e-05
1.40478e-05
1.40478e-05
1.40478e-05
1.40478e-05
1.40478e-05
1.40478e-05
1.40478e-05
1.40478e-05
1.40478e-05
1.40478e-05
1.40478e-05
1.40478e-05
1.40478e-05
1.40478e-05
1.40478e-05
1.40478e-05
1.40478e-05
1.40478e-05
1.40478e-05
1.40478e-05
1.40479e-05
1.4048e-05
1.40481e-05
1.40483e-05
1.40486e-05
1.40492e-05
1.40502e-05
1.40519e-05
1.40549e-05
1.40601e-05
1.4069e-05
1.40843e-05
1.41108e-05
1.41565e-05
1.42353e-05
1.43704e-05
1.46002e-05
1.49852e-05
1.56149e-05
1.66085e-05
1.81004e-05
2.02058e-05
2.2977e-05
2.63761e-05
3.0276e-05
3.44847e-05
3.88001e-05
4.30548e-05
1.40478e-05
1.40478e-05
1.40478e-05
1.40478e-05
1.40478e-05
1.40478e-05
1.40478e-05
1.40478e-05
1.40478e-05
1.40478e-05
1.40478e-05
1.40478e-05
1.40478e-05
1.40478e-05
1.40478e-05
1.40478e-05
1.40478e-05
1.40478e-05
1.40478e-05
1.40479e-05
1.40479e-05
1.4048e-05
1.40482e-05
1.40485e-05
1.40489e-05
1.40497e-05
1.40511e-05
1.40535e-05
1.40575e-05
1.40645e-05
1.40765e-05
1.40972e-05
1.41327e-05
1.41938e-05
1.42986e-05
1.44769e-05
1.4777e-05
1.52728e-05
1.6068e-05
1.72904e-05
1.90678e-05
2.14877e-05
2.45588e-05
2.81998e-05
3.22512e-05
3.65063e-05
4.07513e-05
4.48032e-05
4.85376e-05
5.17695e-05
1.40478e-05
1.40478e-05
1.40478e-05
1.40478e-05
1.40478e-05
1.40478e-05
1.40478e-05
1.40478e-05
1.40478e-05
1.40478e-05
1.40478e-05
1.40478e-05
1.40478e-05
1.40478e-05
1.40478e-05
1.40478e-05
1.40479e-05
1.40479e-05
1.4048e-05
1.40481e-05
1.40483e-05
1.40487e-05
1.40494e-05
1.40505e-05
1.40523e-05
1.40555e-05
1.4061e-05
1.40704e-05
1.40865e-05
1.41141e-05
1.41615e-05
1.42424e-05
1.43803e-05
1.46131e-05
1.50004e-05
1.56296e-05
1.66163e-05
1.80902e-05
2.01628e-05
2.28858e-05
2.62244e-05
3.00612e-05
3.42156e-05
3.84795e-05
4.26518e-05
4.65713e-05
5.01e-05
5.29971e-05
5.50875e-05
5.6471e-05
1.40478e-05
1.40478e-05
1.40478e-05
1.40478e-05
1.40478e-05
1.40478e-05
1.40478e-05
1.40478e-05
1.40478e-05
1.40478e-05
1.40478e-05
1.40478e-05
1.40478e-05
1.40478e-05
1.40479e-05
1.40479e-05
1.40481e-05
1.40482e-05
1.40485e-05
1.40491e-05
1.40499e-05
1.40514e-05
1.4054e-05
1.40583e-05
1.40656e-05
1.40782e-05
1.40996e-05
1.41363e-05
1.41988e-05
1.43052e-05
1.4485e-05
1.47855e-05
1.52787e-05
1.60647e-05
1.72669e-05
1.90087e-05
2.1376e-05
2.43806e-05
2.79482e-05
3.19341e-05
3.61459e-05
4.03822e-05
4.44578e-05
4.82331e-05
5.15559e-05
5.41937e-05
5.60328e-05
5.71902e-05
5.788e-05
5.82989e-05
1.40478e-05
1.40478e-05
1.40478e-05
1.40478e-05
1.40478e-05
1.40478e-05
1.40478e-05
1.40478e-05
1.40478e-05
1.40478e-05
1.40478e-05
1.40479e-05
1.40479e-05
1.4048e-05
1.40482e-05
1.40484e-05
1.40488e-05
1.40495e-05
1.40507e-05
1.40527e-05
1.40561e-05
1.40619e-05
1.40717e-05
1.40883e-05
1.41167e-05
1.4165e-05
1.42469e-05
1.43854e-05
1.46176e-05
1.50011e-05
1.56204e-05
1.65865e-05
1.80243e-05
2.00422e-05
2.26937e-05
2.59507e-05
2.9706e-05
3.37962e-05
3.80258e-05
4.22048e-05
4.61649e-05
4.97822e-05
5.28902e-05
5.52778e-05
5.68907e-05
5.78847e-05
5.84691e-05
5.88145e-05
5.90178e-05
5.91374e-05
1.40478e-05
1.40478e-05
1.40478e-05
1.40478e-05
1.40478e-05
1.40478e-05
1.40478e-05
1.40478e-05
1.40479e-05
1.40479e-05
1.4048e-05
1.40481e-05
1.40483e-05
1.40486e-05
1.40492e-05
1.40501e-05
1.40517e-05
1.40544e-05
1.40589e-05
1.40666e-05
1.40795e-05
1.41015e-05
1.41388e-05
1.42019e-05
1.43084e-05
1.44871e-05
1.47837e-05
1.52672e-05
1.60337e-05
1.72012e-05
1.8889e-05
2.11826e-05
2.40992e-05
2.75742e-05
3.14756e-05
3.56292e-05
3.9843e-05
4.39417e-05
4.77721e-05
5.12205e-05
5.41098e-05
5.62591e-05
5.76705e-05
5.85261e-05
5.9024e-05
5.93219e-05
5.94851e-05
5.95843e-05
5.968e-05
5.9781e-05
1.40478e-05
1.40478e-05
1.40478e-05
1.40478e-05
1.40478e-05
1.40478e-05
1.40479e-05
1.40479e-05
1.4048e-05
1.40482e-05
1.40485e-05
1.40489e-05
1.40497e-05
1.40509e-05
1.4053e-05
1.40566e-05
1.40626e-05
1.40727e-05
1.40897e-05
1.41185e-05
1.41671e-05
1.42489e-05
1.43862e-05
1.46147e-05
1.49896e-05
1.55913e-05
1.65256e-05
1.79124e-05
1.98577e-05
2.2418e-05
2.55739e-05
2.92302e-05
3.32377e-05
3.74187e-05
4.15894e-05
4.55897e-05
4.92801e-05
5.25513e-05
5.52226e-05
5.71494e-05
5.83841e-05
5.9122e-05
5.95488e-05
5.98063e-05
5.99392e-05
6.00293e-05
6.01246e-05
6.02065e-05
6.02826e-05
6.03667e-05
1.40478e-05
1.40478e-05
1.40478e-05
1.40479e-05
1.40479e-05
1.4048e-05
1.40481e-05
1.40483e-05
1.40487e-05
1.40493e-05
1.40503e-05
1.4052e-05
1.40548e-05
1.40595e-05
1.40674e-05
1.40806e-05
1.41029e-05
1.41403e-05
1.42032e-05
1.43086e-05
1.4484e-05
1.47732e-05
1.52416e-05
1.59802e-05
1.71016e-05
1.87207e-05
2.09237e-05
2.37341e-05
2.70989e-05
3.08993e-05
3.49763e-05
3.91537e-05
4.32595e-05
4.7148e-05
5.06907e-05
5.37796e-05
5.62377e-05
5.79603e-05
5.90413e-05
5.96792e-05
6.0048e-05
6.02697e-05
6.03802e-05
6.04624e-05
6.05542e-05
6.06282e-05
6.07017e-05
6.07762e-05
6.0856e-05
6.09546e-05
1.40479e-05
1.40479e-05
1.4048e-05
1.40481e-05
1.40482e-05
1.40485e-05
1.4049e-05
1.40498e-05
1.40512e-05
1.40534e-05
1.40571e-05
1.40632e-05
1.40736e-05
1.40908e-05
1.41197e-05
1.41681e-05
1.4249e-05
1.43835e-05
1.46058e-05
1.4968e-05
1.55462e-05
1.64403e-05
1.77648e-05
1.96236e-05
2.20768e-05
2.51148e-05
2.86559e-05
3.25646e-05
3.66783e-05
4.08265e-05
4.48504e-05
4.8617e-05
5.20069e-05
5.49112e-05
5.71645e-05
5.87023e-05
5.96505e-05
6.02037e-05
6.0525e-05
6.07136e-05
6.08074e-05
6.08847e-05
6.09705e-05
6.104e-05
6.11113e-05
6.1183e-05
6.12606e-05
6.13518e-05
6.14592e-05
6.15894e-05
1.4048e-05
1.40482e-05
1.40484e-05
1.40488e-05
1.40494e-05
1.40505e-05
1.40523e-05
1.40552e-05
1.406e-05
1.40681e-05
1.40815e-05
1.41039e-05
1.41411e-05
1.42033e-05
1.43064e-05
1.44769e-05
1.47559e-05
1.52049e-05
1.59097e-05
1.69764e-05
1.8516e-05
2.06151e-05
2.33046e-05
2.65437e-05
3.02278e-05
3.42118e-05
3.83338e-05
4.24319e-05
4.6361e-05
4.99986e-05
5.32322e-05
5.59527e-05
5.80123e-05
5.93847e-05
6.02185e-05
6.07002e-05
6.09822e-05
6.11401e-05
6.12226e-05
6.12972e-05
6.13763e-05
6.14425e-05
6.15115e-05
6.15802e-05
6.16565e-05
6.17463e-05
6.1851e-05
6.19724e-05
6.2112e-05
6.22748e-05
1.40486e-05
1.40491e-05
1.405e-05
1.40514e-05
1.40537e-05
1.40575e-05
1.40638e-05
1.40743e-05
1.40916e-05
1.41204e-05
1.41682e-05
1.42474e-05
1.43782e-05
1.45924e-05
1.49393e-05
1.54896e-05
1.63375e-05
1.75916e-05
1.93535e-05
2.16872e-05
2.45936e-05
2.80046e-05
3.17996e-05
3.58289e-05
3.99352e-05
4.39668e-05
4.77912e-05
5.1295e-05
5.43709e-05
5.69112e-05
5.87901e-05
6.00159e-05
6.07512e-05
6.11728e-05
6.14214e-05
6.15515e-05
6.16271e-05
6.17005e-05
6.17719e-05
6.18362e-05
6.19017e-05
6.19678e-05
6.20428e-05
6.2131e-05
6.22339e-05
6.23528e-05
6.24883e-05
6.26409e-05
6.28119e-05
6.30062e-05
1.40507e-05
1.40525e-05
1.40555e-05
1.40605e-05
1.40687e-05
1.40822e-05
1.41045e-05
1.41414e-05
1.42023e-05
1.43026e-05
1.4467e-05
1.4734e-05
1.51609e-05
1.58278e-05
1.68344e-05
1.82871e-05
2.02728e-05
2.28296e-05
2.59296e-05
2.94829e-05
3.33584e-05
3.74068e-05
4.14774e-05
4.54296e-05
4.91423e-05
5.25093e-05
5.54279e-05
5.77939e-05
5.95061e-05
6.06029e-05
6.12533e-05
6.16244e-05
6.1844e-05
6.19524e-05
6.20216e-05
6.20946e-05
6.21581e-05
6.22202e-05
6.22823e-05
6.23462e-05
6.24198e-05
6.25062e-05
6.2607e-05
6.27233e-05
6.28557e-05
6.30045e-05
6.317e-05
6.33527e-05
6.35538e-05
6.37777e-05
1.40579e-05
1.40644e-05
1.40749e-05
1.40923e-05
1.41208e-05
1.41678e-05
1.42449e-05
1.4371e-05
1.45762e-05
1.49059e-05
1.54261e-05
1.62244e-05
1.74033e-05
1.90618e-05
2.12673e-05
2.40309e-05
2.72989e-05
3.09653e-05
3.48938e-05
3.89386e-05
4.29572e-05
4.68201e-05
5.04162e-05
5.36451e-05
5.64081e-05
5.86078e-05
6.01679e-05
6.11516e-05
6.17289e-05
6.20575e-05
6.22514e-05
6.23437e-05
6.24063e-05
6.24772e-05
6.25346e-05
6.25944e-05
6.26536e-05
6.27156e-05
6.27876e-05
6.2872e-05
6.29705e-05
6.30841e-05
6.32131e-05
6.3358e-05
6.35192e-05
6.36968e-05
6.38911e-05
6.41025e-05
6.43317e-05
6.45827e-05
1.40829e-05
1.4105e-05
1.41413e-05
1.42007e-05
1.42977e-05
1.44554e-05
1.47094e-05
1.51129e-05
1.57399e-05
1.66838e-05
1.80458e-05
1.99125e-05
2.23288e-05
2.52791e-05
2.86886e-05
3.24404e-05
3.63975e-05
4.04195e-05
4.43731e-05
4.81394e-05
5.16154e-05
5.47062e-05
5.7317e-05
5.93594e-05
6.07821e-05
6.16669e-05
6.21813e-05
6.24741e-05
6.2645e-05
6.27241e-05
6.27815e-05
6.28481e-05
6.29023e-05
6.29596e-05
6.30162e-05
6.30763e-05
6.31465e-05
6.32287e-05
6.33247e-05
6.34353e-05
6.35608e-05
6.37017e-05
6.38584e-05
6.4031e-05
6.42198e-05
6.44249e-05
6.46462e-05
6.48838e-05
6.51384e-05
6.5413e-05
1.4167e-05
1.42417e-05
1.4363e-05
1.45585e-05
1.48705e-05
1.53596e-05
1.6107e-05
1.72092e-05
1.87615e-05
2.08341e-05
2.34476e-05
2.65623e-05
3.0087e-05
3.38989e-05
3.78631e-05
4.18464e-05
4.57248e-05
4.93891e-05
5.27433e-05
5.56972e-05
5.81603e-05
6.00555e-05
6.13545e-05
6.2153e-05
6.26133e-05
6.28757e-05
6.30259e-05
6.30945e-05
6.31479e-05
6.32102e-05
6.32615e-05
6.33164e-05
6.33704e-05
6.34285e-05
6.34967e-05
6.35767e-05
6.367e-05
6.37773e-05
6.38992e-05
6.4036e-05
6.41879e-05
6.43554e-05
6.45386e-05
6.47376e-05
6.49523e-05
6.51827e-05
6.54284e-05
6.56891e-05
6.59652e-05
6.62589e-05
1.44431e-05
1.46839e-05
1.50637e-05
1.56507e-05
1.65316e-05
1.78022e-05
1.95482e-05
2.18199e-05
2.46136e-05
2.78691e-05
3.14838e-05
3.53328e-05
3.92859e-05
4.32176e-05
4.7013e-05
5.05715e-05
5.38034e-05
5.66225e-05
5.89437e-05
6.0702e-05
6.18902e-05
6.26134e-05
6.30271e-05
6.32635e-05
6.33952e-05
6.34556e-05
6.35059e-05
6.35638e-05
6.36126e-05
6.3665e-05
6.37163e-05
6.37725e-05
6.38385e-05
6.3916e-05
6.40065e-05
6.41105e-05
6.42285e-05
6.4361e-05
6.45082e-05
6.46705e-05
6.48479e-05
6.50407e-05
6.52488e-05
6.54722e-05
6.57104e-05
6.5963e-05
6.62295e-05
6.65093e-05
6.68023e-05
6.71099e-05
1.4835e-05
1.52934e-05
1.59907e-05
1.70168e-05
1.84634e-05
2.04021e-05
2.28618e-05
2.58163e-05
2.9189e-05
3.28701e-05
3.67361e-05
4.06626e-05
4.45322e-05
4.82388e-05
5.16893e-05
5.47993e-05
5.74868e-05
5.96725e-05
6.13043e-05
6.23938e-05
6.30512e-05
6.34247e-05
6.36387e-05
6.3754e-05
6.38079e-05
6.38558e-05
6.39091e-05
6.39559e-05
6.40055e-05
6.40542e-05
6.41083e-05
6.41721e-05
6.4247e-05
6.43345e-05
6.44351e-05
6.45492e-05
6.46773e-05
6.48196e-05
6.49765e-05
6.51482e-05
6.53347e-05
6.55362e-05
6.57524e-05
6.59832e-05
6.6228e-05
6.64864e-05
6.67575e-05
6.70405e-05
6.73344e-05
6.7639e-05
6.79548e-05
1.63837e-05
1.75649e-05
1.91914e-05
2.13179e-05
2.39513e-05
2.70457e-05
3.05125e-05
3.42386e-05
3.8104e-05
4.19911e-05
4.57905e-05
4.9404e-05
5.27454e-05
5.57348e-05
5.82945e-05
6.03519e-05
6.18675e-05
6.28689e-05
6.34687e-05
6.38076e-05
6.40022e-05
6.41029e-05
6.41518e-05
6.41976e-05
6.42462e-05
6.42914e-05
6.43379e-05
6.43841e-05
6.44362e-05
6.44977e-05
6.457e-05
6.46544e-05
6.47514e-05
6.48616e-05
6.49851e-05
6.51225e-05
6.5274e-05
6.54398e-05
6.562e-05
6.58147e-05
6.60239e-05
6.62472e-05
6.64842e-05
6.67345e-05
6.69973e-05
6.72718e-05
6.75568e-05
6.78514e-05
6.81542e-05
6.84646e-05
6.87825e-05
1.81769e-05
1.99836e-05
2.22891e-05
2.50794e-05
2.82924e-05
3.18313e-05
3.55833e-05
3.94331e-05
4.32703e-05
4.6993e-05
5.05107e-05
5.37428e-05
5.66137e-05
5.905e-05
6.09865e-05
6.23958e-05
6.33187e-05
6.38683e-05
6.41773e-05
6.43547e-05
6.44429e-05
6.44877e-05
6.45318e-05
6.45758e-05
6.46191e-05
6.46626e-05
6.47065e-05
6.47564e-05
6.48155e-05
6.48851e-05
6.49664e-05
6.50598e-05
6.51658e-05
6.52849e-05
6.54172e-05
6.55633e-05
6.57231e-05
6.5897e-05
6.6085e-05
6.6287e-05
6.65028e-05
6.67321e-05
6.69743e-05
6.72288e-05
6.74949e-05
6.77714e-05
6.80573e-05
6.83513e-05
6.8652e-05
6.8958e-05
6.92685e-05
6.95825e-05
2.33088e-05
2.62375e-05
2.95478e-05
3.31387e-05
3.68995e-05
4.07209e-05
4.44996e-05
4.81411e-05
5.15612e-05
5.46845e-05
5.74397e-05
5.97576e-05
6.15807e-05
6.2893e-05
6.37462e-05
6.42516e-05
6.45346e-05
6.46971e-05
6.47748e-05
6.48159e-05
6.48581e-05
6.48979e-05
6.49392e-05
6.49799e-05
6.50214e-05
6.50692e-05
6.51258e-05
6.51927e-05
6.52707e-05
6.53605e-05
6.54624e-05
6.55768e-05
6.57042e-05
6.58447e-05
6.59986e-05
6.61661e-05
6.63474e-05
6.65422e-05
6.67505e-05
6.6972e-05
6.72062e-05
6.74525e-05
6.77101e-05
6.79782e-05
6.82556e-05
6.85411e-05
6.88334e-05
6.9131e-05
6.94324e-05
6.97359e-05
7.00407e-05
7.03448e-05
3.08046e-05
3.44289e-05
3.81837e-05
4.1966e-05
4.56794e-05
4.92362e-05
5.25579e-05
5.55738e-05
5.82163e-05
6.04211e-05
6.21385e-05
6.33625e-05
6.41534e-05
6.46202e-05
6.48807e-05
6.50299e-05
6.50986e-05
6.51366e-05
6.51767e-05
6.52127e-05
6.52518e-05
6.52899e-05
6.53292e-05
6.53748e-05
6.54289e-05
6.54929e-05
6.55676e-05
6.56537e-05
6.57515e-05
6.58613e-05
6.59836e-05
6.61186e-05
6.62666e-05
6.64278e-05
6.66022e-05
6.679e-05
6.69908e-05
6.72045e-05
6.74307e-05
6.76687e-05
6.7918e-05
6.81776e-05
6.84466e-05
6.87237e-05
6.90078e-05
6.92974e-05
6.95909e-05
6.98867e-05
7.01832e-05
7.04787e-05
7.0772e-05
7.10608e-05
3.94336e-05
4.31677e-05
4.68104e-05
5.028e-05
5.35034e-05
5.64137e-05
5.89472e-05
6.10444e-05
6.26633e-05
6.38072e-05
6.45426e-05
6.49755e-05
6.52163e-05
6.53539e-05
6.54154e-05
6.545e-05
6.5488e-05
6.55206e-05
6.55572e-05
6.55929e-05
6.56301e-05
6.56734e-05
6.57249e-05
6.5786e-05
6.58575e-05
6.59398e-05
6.60334e-05
6.61386e-05
6.62559e-05
6.63854e-05
6.65275e-05
6.66823e-05
6.68501e-05
6.70307e-05
6.72241e-05
6.743e-05
6.76482e-05
6.7878e-05
6.8119e-05
6.83702e-05
6.86307e-05
6.88996e-05
6.91754e-05
6.9457e-05
6.97428e-05
7.00312e-05
7.03207e-05
7.06095e-05
7.08958e-05
7.11778e-05
7.14545e-05
7.17228e-05
4.78939e-05
5.12746e-05
5.44001e-05
5.72072e-05
5.96356e-05
6.1631e-05
6.31586e-05
6.42299e-05
6.49154e-05
6.53183e-05
6.5542e-05
6.56694e-05
6.57251e-05
6.57563e-05
6.57916e-05
6.58217e-05
6.58557e-05
6.58892e-05
6.59242e-05
6.59653e-05
6.60142e-05
6.60723e-05
6.61404e-05
6.62189e-05
6.63084e-05
6.6409e-05
6.65213e-05
6.66453e-05
6.67816e-05
6.69301e-05
6.70912e-05
6.72647e-05
6.74507e-05
6.7649e-05
6.78592e-05
6.80809e-05
6.83136e-05
6.85564e-05
6.88086e-05
6.90691e-05
6.93367e-05
6.96103e-05
6.98884e-05
7.01696e-05
7.04522e-05
7.07345e-05
7.10149e-05
7.12915e-05
7.15626e-05
7.18263e-05
7.20815e-05
7.23247e-05
5.52509e-05
5.79572e-05
6.02846e-05
6.21838e-05
6.36269e-05
6.46327e-05
6.52734e-05
6.56497e-05
6.58584e-05
6.59769e-05
6.60277e-05
6.60558e-05
6.60881e-05
6.61161e-05
6.61476e-05
6.6179e-05
6.62119e-05
6.62506e-05
6.62969e-05
6.6352e-05
6.64167e-05
6.64915e-05
6.65768e-05
6.66729e-05
6.67801e-05
6.68988e-05
6.70292e-05
6.71715e-05
6.73259e-05
6.74925e-05
6.76712e-05
6.78618e-05
6.80641e-05
6.82777e-05
6.85021e-05
6.87367e-05
6.89805e-05
6.92327e-05
6.94922e-05
6.97578e-05
7.00283e-05
7.03021e-05
7.05778e-05
7.08538e-05
7.11283e-05
7.13997e-05
7.16662e-05
7.19259e-05
7.21772e-05
7.24182e-05
7.26475e-05
7.28617e-05
6.08973e-05
6.27057e-05
6.4071e-05
6.50172e-05
6.56179e-05
6.59705e-05
6.61661e-05
6.62768e-05
6.63234e-05
6.63487e-05
6.63781e-05
6.64041e-05
6.6433e-05
6.64625e-05
6.64932e-05
6.65296e-05
6.65733e-05
6.66254e-05
6.66868e-05
6.67578e-05
6.68389e-05
6.69304e-05
6.70327e-05
6.7146e-05
6.72706e-05
6.74068e-05
6.75547e-05
6.77143e-05
6.78858e-05
6.80688e-05
6.82634e-05
6.8469e-05
6.86852e-05
6.89114e-05
6.91469e-05
6.93909e-05
6.96423e-05
6.99e-05
7.01627e-05
7.04292e-05
7.0698e-05
7.09676e-05
7.12363e-05
7.15025e-05
7.17644e-05
7.20203e-05
7.22685e-05
7.25071e-05
7.27344e-05
7.29486e-05
7.31484e-05
7.333e-05
6.53851e-05
6.59502e-05
6.62814e-05
6.64654e-05
6.65692e-05
6.66123e-05
6.66352e-05
6.66617e-05
6.66859e-05
6.67123e-05
6.674e-05
6.67685e-05
6.68025e-05
6.68435e-05
6.68927e-05
6.69507e-05
6.7018e-05
6.7095e-05
6.7182e-05
6.72793e-05
6.73873e-05
6.75062e-05
6.76363e-05
6.77777e-05
6.79306e-05
6.80948e-05
6.82705e-05
6.84573e-05
6.86549e-05
6.88631e-05
6.90811e-05
6.93084e-05
6.95441e-05
6.97874e-05
7.00371e-05
7.02922e-05
7.05514e-05
7.08133e-05
7.10764e-05
7.13392e-05
7.16001e-05
7.18574e-05
7.21095e-05
7.23546e-05
7.25909e-05
7.28168e-05
7.30304e-05
7.32302e-05
7.34142e-05
7.35813e-05
7.37276e-05
6.65833e-05
6.67569e-05
6.68548e-05
6.68948e-05
6.69153e-05
6.69392e-05
6.69615e-05
6.69855e-05
6.70114e-05
6.70379e-05
6.70695e-05
6.71079e-05
6.71541e-05
6.72088e-05
6.72724e-05
6.73453e-05
6.74278e-05
6.75203e-05
6.7623e-05
6.77363e-05
6.78604e-05
6.79954e-05
6.81415e-05
6.82988e-05
6.8467e-05
6.86462e-05
6.8836e-05
6.90362e-05
6.92461e-05
6.94652e-05
6.96927e-05
6.99279e-05
7.01698e-05