/*--------------------------------*- C++ -*----------------------------------*\
| =========                 |                                                 |
| \\      /  F ield         | OpenFOAM: The Open Source CFD Toolbox           |
|  \\    /   O peration     | Version:  v1706                                 |
|   \\  /    A nd           | Web:      www.OpenFOAM.com                      |
|    \\/     M anipulation  |                                                 |
\*---------------------------------------------------------------------------*/
FoamFile
{
    version     2.0;
    format      ascii;
    class       volScalarField;
    location    "4e-06";
    object      kappave;
}
// * * * * * * * * * * * * * * * * * * * * * * * * * * * * * * * * * * * * * //

dimensions      [1 1 -3 -1 0 0 0];


internalField   nonuniform List<scalar> 
30038
(
1.46038e-10
1.46038e-10
1.46038e-10
1.46038e-10
1.46038e-10
1.46038e-10
1.46038e-10
1.46038e-10
1.46038e-10
1.46038e-10
1.46038e-10
1.46038e-10
1.46038e-10
1.46038e-10
1.46038e-10
1.46038e-10
1.46038e-10
1.46038e-10
1.46038e-10
1.46038e-10
1.46038e-10
1.46038e-10
1.46038e-10
1.46038e-10
1.46038e-10
1.46038e-10
1.46038e-10
1.46038e-10
1.46038e-10
1.46038e-10
1.46038e-10
1.46038e-10
1.46038e-10
1.46038e-10
1.46038e-10
1.46038e-10
1.46038e-10
1.46038e-10
1.46038e-10
1.46038e-10
1.46038e-10
1.46038e-10
1.46038e-10
1.46038e-10
1.46038e-10
1.46038e-10
1.46038e-10
1.46038e-10
1.46038e-10
1.46038e-10
1.46038e-10
1.46038e-10
1.46038e-10
1.46038e-10
1.46038e-10
1.46038e-10
1.46038e-10
1.46038e-10
1.46038e-10
1.46038e-10
1.46038e-10
1.46038e-10
1.46038e-10
1.46038e-10
1.46038e-10
1.46038e-10
1.46038e-10
1.46038e-10
1.46038e-10
1.46038e-10
1.46038e-10
1.46038e-10
1.46038e-10
1.46038e-10
1.46038e-10
1.46038e-10
1.46038e-10
1.46038e-10
1.46038e-10
1.46038e-10
1.46038e-10
1.46038e-10
1.46038e-10
1.46038e-10
1.46038e-10
1.46038e-10
1.46038e-10
1.46038e-10
1.46038e-10
1.46038e-10
1.46038e-10
1.46038e-10
1.46038e-10
1.46038e-10
1.46038e-10
1.46038e-10
1.46038e-10
1.46038e-10
1.46038e-10
1.46038e-10
1.46038e-10
1.46038e-10
1.46038e-10
1.46038e-10
1.46038e-10
1.46038e-10
1.46038e-10
1.46038e-10
1.46038e-10
1.46038e-10
1.46038e-10
1.46038e-10
1.46038e-10
1.46038e-10
1.46038e-10
1.46038e-10
1.46038e-10
1.46038e-10
1.46038e-10
1.46038e-10
1.46038e-10
1.46038e-10
1.46038e-10
1.46038e-10
1.46038e-10
1.46038e-10
1.46038e-10
1.46038e-10
1.46038e-10
1.46038e-10
1.46038e-10
1.46038e-10
1.46038e-10
1.46038e-10
1.46038e-10
1.46038e-10
1.46038e-10
1.46038e-10
1.46038e-10
1.46038e-10
1.46038e-10
1.46038e-10
1.46038e-10
1.46038e-10
1.46038e-10
1.46038e-10
1.46038e-10
1.46038e-10
1.46038e-10
1.46038e-10
1.46038e-10
1.46038e-10
1.46038e-10
1.46038e-10
1.46038e-10
1.46038e-10
1.46038e-10
1.46038e-10
1.46038e-10
1.46038e-10
1.46038e-10
1.46038e-10
1.46038e-10
1.46038e-10
1.46038e-10
1.46038e-10
1.46038e-10
1.46038e-10
1.46038e-10
1.46038e-10
1.46038e-10
1.46038e-10
1.46038e-10
1.46038e-10
1.46038e-10
1.46038e-10
1.46038e-10
1.46038e-10
1.46038e-10
1.46038e-10
1.46038e-10
1.46038e-10
1.46038e-10
1.46038e-10
1.46038e-10
1.46038e-10
1.46038e-10
1.46038e-10
1.46038e-10
1.46038e-10
1.46038e-10
1.46038e-10
1.46038e-10
1.46038e-10
1.46038e-10
1.46038e-10
1.46038e-10
1.46038e-10
1.46038e-10
1.46038e-10
1.46038e-10
1.46038e-10
1.46038e-10
1.46038e-10
1.46038e-10
1.46038e-10
1.46038e-10
1.46038e-10
1.46038e-10
1.46038e-10
1.46038e-10
1.46038e-10
1.46038e-10
1.46038e-10
1.46038e-10
1.46038e-10
1.46038e-10
1.46038e-10
1.46038e-10
1.46038e-10
1.46038e-10
1.46038e-10
1.46038e-10
1.46038e-10
1.46038e-10
1.46038e-10
1.46038e-10
1.46038e-10
1.46038e-10
1.46038e-10
1.46038e-10
1.46038e-10
1.46038e-10
1.46038e-10
1.46038e-10
1.46038e-10
1.46038e-10
1.46038e-10
1.46038e-10
1.46038e-10
1.46038e-10
1.46038e-10
1.46038e-10
1.46038e-10
1.46038e-10
1.46038e-10
1.46038e-10
1.46038e-10
1.46038e-10
1.46038e-10
1.46038e-10
1.46038e-10
1.46038e-10
1.46038e-10
1.46038e-10
1.46038e-10
1.46038e-10
1.46038e-10
1.46038e-10
1.46038e-10
1.46038e-10
1.46038e-10
1.46038e-10
1.46038e-10
1.46038e-10
1.46038e-10
1.46038e-10
1.46038e-10
1.46038e-10
1.46038e-10
1.46038e-10
1.46038e-10
1.46038e-10
1.46038e-10
1.46038e-10
1.46038e-10
1.46038e-10
1.46038e-10
1.46038e-10
1.46038e-10
1.46038e-10
1.46038e-10
1.46038e-10
1.46038e-10
1.46038e-10
1.46038e-10
1.46038e-10
1.46038e-10
1.46038e-10
1.46038e-10
1.46038e-10
1.46038e-10
1.46038e-10
1.46038e-10
1.46038e-10
1.46038e-10
1.46038e-10
1.46038e-10
1.46038e-10
1.46038e-10
1.46038e-10
1.46038e-10
1.46038e-10
1.46038e-10
1.46038e-10
1.46038e-10
1.46038e-10
1.46038e-10
1.46038e-10
1.46038e-10
1.46038e-10
1.46038e-10
1.46038e-10
1.46038e-10
1.46038e-10
1.46038e-10
1.46038e-10
1.46038e-10
1.46038e-10
1.46038e-10
1.46038e-10
1.46038e-10
1.46038e-10
1.46038e-10
1.46038e-10
1.46038e-10
1.46038e-10
1.46038e-10
1.46038e-10
1.46038e-10
1.46038e-10
1.46038e-10
1.46038e-10
1.46038e-10
1.46038e-10
1.46038e-10
1.46038e-10
1.46038e-10
1.46038e-10
1.46038e-10
1.46038e-10
1.46038e-10
1.46038e-10
1.46038e-10
1.46038e-10
1.46038e-10
1.46038e-10
1.46038e-10
1.46038e-10
1.46038e-10
1.46038e-10
1.46038e-10
1.46038e-10
1.46038e-10
1.46038e-10
1.46038e-10
1.46038e-10
1.46038e-10
1.46038e-10
1.46038e-10
1.46038e-10
1.46038e-10
1.46038e-10
1.46038e-10
1.46038e-10
1.46038e-10
1.46038e-10
1.46038e-10
1.46038e-10
1.46038e-10
1.46038e-10
1.46038e-10
1.46038e-10
1.46038e-10
1.46038e-10
1.46038e-10
1.46038e-10
1.46038e-10
1.46038e-10
1.46038e-10
1.46038e-10
1.46038e-10
1.46038e-10
1.46038e-10
1.46038e-10
1.46038e-10
1.46038e-10
1.46038e-10
1.46038e-10
1.46038e-10
1.46038e-10
1.46038e-10
1.46038e-10
1.46038e-10
1.46038e-10
1.46038e-10
1.46038e-10
1.46038e-10
1.46038e-10
1.46038e-10
1.46038e-10
1.46038e-10
1.46038e-10
1.46038e-10
1.46038e-10
1.46038e-10
1.46038e-10
1.46038e-10
1.46038e-10
1.46038e-10
1.46038e-10
1.46038e-10
1.46038e-10
1.46038e-10
1.46038e-10
1.46038e-10
1.46038e-10
1.46038e-10
1.46038e-10
1.46038e-10
1.46038e-10
1.46038e-10
1.46038e-10
1.46038e-10
1.46038e-10
1.46038e-10
1.46038e-10
1.46038e-10
1.46038e-10
1.46038e-10
1.46038e-10
1.46038e-10
1.46038e-10
1.46038e-10
1.46038e-10
1.46038e-10
1.46038e-10
1.46038e-10
1.46038e-10
1.46038e-10
1.46038e-10
1.46038e-10
1.46038e-10
1.46038e-10
1.46038e-10
1.46038e-10
1.46038e-10
1.46038e-10
1.46038e-10
1.46038e-10
1.46038e-10
1.46038e-10
1.46038e-10
1.46038e-10
1.46038e-10
1.46038e-10
1.46038e-10
1.46038e-10
1.46038e-10
1.46038e-10
1.46038e-10
1.46038e-10
1.46038e-10
1.46038e-10
1.46038e-10
1.46038e-10
1.46038e-10
1.46038e-10
1.46038e-10
1.46038e-10
1.46038e-10
1.46038e-10
1.46038e-10
1.46038e-10
1.46038e-10
1.46038e-10
1.46038e-10
1.46038e-10
1.46038e-10
1.46038e-10
1.46038e-10
1.46038e-10
1.46038e-10
1.46038e-10
1.46038e-10
1.46038e-10
1.46038e-10
1.46038e-10
1.46038e-10
1.46038e-10
1.46038e-10
1.46038e-10
1.46038e-10
1.46038e-10
1.46038e-10
1.46038e-10
1.46038e-10
1.46038e-10
1.46038e-10
1.46038e-10
1.46038e-10
1.46038e-10
1.46038e-10
1.46038e-10
1.46038e-10
1.46038e-10
1.46038e-10
1.46038e-10
1.46038e-10
1.46038e-10
1.46038e-10
1.46038e-10
1.46038e-10
1.46038e-10
1.46038e-10
1.46038e-10
1.46038e-10
1.46038e-10
1.46038e-10
1.46038e-10
1.46038e-10
1.46038e-10
1.46038e-10
1.46038e-10
1.46038e-10
1.46038e-10
1.46038e-10
1.46038e-10
1.46038e-10
1.46038e-10
1.46038e-10
1.46038e-10
1.46038e-10
1.46038e-10
1.46038e-10
1.46038e-10
1.46038e-10
1.46038e-10
1.46038e-10
1.46038e-10
1.46038e-10
1.46038e-10
1.46038e-10
1.46038e-10
1.46038e-10
1.46038e-10
1.46038e-10
1.46038e-10
1.46038e-10
1.46038e-10
1.46038e-10
1.46038e-10
1.46038e-10
1.46038e-10
1.46038e-10
1.46038e-10
1.46038e-10
1.46038e-10
1.46038e-10
1.46038e-10
1.46038e-10
1.46038e-10
1.46038e-10
1.46038e-10
1.46038e-10
1.46038e-10
1.46038e-10
1.46038e-10
1.46038e-10
1.46038e-10
1.46038e-10
1.46038e-10
1.46038e-10
1.46038e-10
1.46038e-10
1.46038e-10
1.46038e-10
1.46038e-10
1.46038e-10
1.46038e-10
1.46038e-10
1.46038e-10
1.46038e-10
1.46038e-10
1.46038e-10
1.46038e-10
1.46038e-10
1.46038e-10
1.46038e-10
1.46038e-10
1.46038e-10
1.46038e-10
1.46038e-10
1.46038e-10
1.46038e-10
1.46038e-10
1.46038e-10
1.46038e-10
1.46038e-10
1.46038e-10
1.46038e-10
1.46038e-10
1.46038e-10
1.46038e-10
1.46038e-10
1.46038e-10
1.46038e-10
1.46038e-10
1.46038e-10
1.46038e-10
1.46038e-10
1.46038e-10
1.46038e-10
1.46038e-10
1.46038e-10
1.46038e-10
1.46038e-10
1.46038e-10
1.46038e-10
1.46038e-10
1.46038e-10
1.46038e-10
1.46038e-10
1.46038e-10
1.46038e-10
1.46038e-10
1.46038e-10
1.46038e-10
1.46038e-10
1.46038e-10
1.46038e-10
1.46038e-10
1.46038e-10
1.46038e-10
1.46038e-10
1.46038e-10
1.46038e-10
1.46038e-10
1.46038e-10
1.46038e-10
1.46038e-10
1.46038e-10
1.46038e-10
1.46038e-10
1.46038e-10
1.46038e-10
1.46038e-10
1.46038e-10
1.46038e-10
1.46038e-10
1.46038e-10
1.46038e-10
1.46038e-10
1.46038e-10
1.46038e-10
1.46038e-10
1.46038e-10
1.46038e-10
1.46038e-10
1.46038e-10
1.46038e-10
1.46038e-10
1.46038e-10
1.46038e-10
1.46038e-10
1.46038e-10
1.46038e-10
1.46038e-10
1.46038e-10
1.46038e-10
1.46038e-10
1.46038e-10
1.46038e-10
1.46038e-10
1.46038e-10
1.46038e-10
1.46038e-10
1.46038e-10
1.46038e-10
1.46038e-10
1.46038e-10
1.46038e-10
1.46038e-10
1.46038e-10
1.46038e-10
1.46038e-10
1.46038e-10
1.46038e-10
1.46038e-10
1.46038e-10
1.46038e-10
1.46038e-10
1.46038e-10
1.46038e-10
1.46038e-10
1.46038e-10
1.46038e-10
1.46038e-10
1.46038e-10
1.46038e-10
1.46039e-10
1.46038e-10
1.46038e-10
1.46038e-10
1.46038e-10
1.46038e-10
1.46038e-10
1.46038e-10
1.46038e-10
1.46038e-10
1.46038e-10
1.46038e-10
1.46038e-10
1.46038e-10
1.46038e-10
1.46038e-10
1.46038e-10
1.46038e-10
1.46038e-10
1.46038e-10
1.46038e-10
1.46038e-10
1.46038e-10
1.46038e-10
1.46038e-10
1.46038e-10
1.46038e-10
1.46038e-10
1.46038e-10
1.46038e-10
1.46038e-10
1.46038e-10
1.46038e-10
1.46038e-10
1.46038e-10
1.46038e-10
1.46038e-10
1.46038e-10
1.46039e-10
1.4604e-10
1.46041e-10
1.46044e-10
1.46038e-10
1.46038e-10
1.46038e-10
1.46038e-10
1.46038e-10
1.46038e-10
1.46038e-10
1.46038e-10
1.46038e-10
1.46038e-10
1.46038e-10
1.46038e-10
1.46038e-10
1.46038e-10
1.46038e-10
1.46038e-10
1.46038e-10
1.46038e-10
1.46038e-10
1.46038e-10
1.46038e-10
1.46038e-10
1.46038e-10
1.46038e-10
1.46038e-10
1.46038e-10
1.46038e-10
1.46038e-10
1.46038e-10
1.46038e-10
1.46038e-10
1.46038e-10
1.46038e-10
1.46038e-10
1.46039e-10
1.46039e-10
1.4604e-10
1.46043e-10
1.46047e-10
1.46054e-10
1.46068e-10
1.46038e-10
1.46038e-10
1.46038e-10
1.46038e-10
1.46038e-10
1.46038e-10
1.46038e-10
1.46038e-10
1.46038e-10
1.46038e-10
1.46038e-10
1.46038e-10
1.46038e-10
1.46038e-10
1.46038e-10
1.46038e-10
1.46038e-10
1.46038e-10
1.46038e-10
1.46038e-10
1.46038e-10
1.46038e-10
1.46038e-10
1.46038e-10
1.46038e-10
1.46038e-10
1.46038e-10
1.46038e-10
1.46038e-10
1.46038e-10
1.46038e-10
1.46038e-10
1.46038e-10
1.46039e-10
1.4604e-10
1.46042e-10
1.46045e-10
1.46051e-10
1.46061e-10
1.46079e-10
1.46112e-10
1.46178e-10
1.46038e-10
1.46038e-10
1.46038e-10
1.46038e-10
1.46038e-10
1.46038e-10
1.46038e-10
1.46038e-10
1.46038e-10
1.46038e-10
1.46038e-10
1.46038e-10
1.46038e-10
1.46038e-10
1.46038e-10
1.46038e-10
1.46038e-10
1.46038e-10
1.46038e-10
1.46038e-10
1.46038e-10
1.46038e-10
1.46038e-10
1.46038e-10
1.46038e-10
1.46038e-10
1.46038e-10
1.46038e-10
1.46038e-10
1.46038e-10
1.46038e-10
1.46039e-10
1.4604e-10
1.46041e-10
1.46044e-10
1.46048e-10
1.46056e-10
1.46071e-10
1.46097e-10
1.46144e-10
1.46229e-10
1.46385e-10
1.467e-10
1.46038e-10
1.46038e-10
1.46038e-10
1.46038e-10
1.46038e-10
1.46038e-10
1.46038e-10
1.46038e-10
1.46038e-10
1.46038e-10
1.46038e-10
1.46038e-10
1.46038e-10
1.46038e-10
1.46038e-10
1.46038e-10
1.46038e-10
1.46038e-10
1.46038e-10
1.46038e-10
1.46038e-10
1.46038e-10
1.46038e-10
1.46038e-10
1.46038e-10
1.46038e-10
1.46038e-10
1.46038e-10
1.46039e-10
1.46039e-10
1.4604e-10
1.46043e-10
1.46046e-10
1.46053e-10
1.46065e-10
1.46086e-10
1.46123e-10
1.4619e-10
1.46312e-10
1.46533e-10
1.46938e-10
1.47692e-10
1.49212e-10
1.46038e-10
1.46038e-10
1.46038e-10
1.46038e-10
1.46038e-10
1.46038e-10
1.46038e-10
1.46038e-10
1.46038e-10
1.46038e-10
1.46038e-10
1.46038e-10
1.46038e-10
1.46038e-10
1.46038e-10
1.46038e-10
1.46038e-10
1.46038e-10
1.46038e-10
1.46038e-10
1.46038e-10
1.46038e-10
1.46038e-10
1.46038e-10
1.46038e-10
1.46038e-10
1.46038e-10
1.46039e-10
1.4604e-10
1.46042e-10
1.46045e-10
1.4605e-10
1.4606e-10
1.46076e-10
1.46106e-10
1.4616e-10
1.46256e-10
1.46431e-10
1.46748e-10
1.47327e-10
1.48389e-10
1.50352e-10
1.54036e-10
1.61405e-10
1.46038e-10
1.46038e-10
1.46038e-10
1.46038e-10
1.46038e-10
1.46038e-10
1.46038e-10
1.46038e-10
1.46038e-10
1.46038e-10
1.46038e-10
1.46038e-10
1.46038e-10
1.46038e-10
1.46038e-10
1.46038e-10
1.46038e-10
1.46038e-10
1.46038e-10
1.46038e-10
1.46038e-10
1.46038e-10
1.46038e-10
1.46038e-10
1.46038e-10
1.46039e-10
1.4604e-10
1.46041e-10
1.46043e-10
1.46048e-10
1.46055e-10
1.46069e-10
1.46093e-10
1.46135e-10
1.46212e-10
1.46349e-10
1.46598e-10
1.4705e-10
1.47877e-10
1.49396e-10
1.52196e-10
1.57378e-10
1.66989e-10
1.8498e-10
2.20124e-10
1.46038e-10
1.46038e-10
1.46038e-10
1.46038e-10
1.46038e-10
1.46038e-10
1.46038e-10
1.46038e-10
1.46038e-10
1.46038e-10
1.46038e-10
1.46038e-10
1.46038e-10
1.46038e-10
1.46038e-10
1.46038e-10
1.46038e-10
1.46038e-10
1.46038e-10
1.46038e-10
1.46038e-10
1.46038e-10
1.46038e-10
1.46039e-10
1.46039e-10
1.4604e-10
1.46042e-10
1.46046e-10
1.46052e-10
1.46063e-10
1.46082e-10
1.46116e-10
1.46176e-10
1.46284e-10
1.46479e-10
1.46831e-10
1.47473e-10
1.48648e-10
1.50809e-10
1.54795e-10
1.62164e-10
1.75792e-10
2.00933e-10
2.47061e-10
3.31302e-10
4.86402e-10
1.46038e-10
1.46038e-10
1.46038e-10
1.46038e-10
1.46038e-10
1.46038e-10
1.46038e-10
1.46038e-10
1.46038e-10
1.46038e-10
1.46038e-10
1.46038e-10
1.46038e-10
1.46038e-10
1.46038e-10
1.46038e-10
1.46038e-10
1.46038e-10
1.46038e-10
1.46038e-10
1.46038e-10
1.46038e-10
1.46038e-10
1.46039e-10
1.4604e-10
1.46042e-10
1.46044e-10
1.46049e-10
1.46058e-10
1.46073e-10
1.461e-10
1.46147e-10
1.46232e-10
1.46384e-10
1.46659e-10
1.47156e-10
1.48063e-10
1.49724e-10
1.52781e-10
1.58422e-10
1.68848e-10
1.88098e-10
2.23481e-10
2.87863e-10
4.02804e-10
6.01915e-10
9.35163e-10
1.47814e-09
1.46038e-10
1.46038e-10
1.46038e-10
1.46038e-10
1.46038e-10
1.46038e-10
1.46038e-10
1.46038e-10
1.46038e-10
1.46038e-10
1.46038e-10
1.46038e-10
1.46038e-10
1.46038e-10
1.46038e-10
1.46038e-10
1.46038e-10
1.46038e-10
1.46038e-10
1.46038e-10
1.46039e-10
1.4604e-10
1.46041e-10
1.46043e-10
1.46047e-10
1.46054e-10
1.46066e-10
1.46087e-10
1.46125e-10
1.46191e-10
1.4631e-10
1.46523e-10
1.46908e-10
1.47606e-10
1.4888e-10
1.51216e-10
1.55517e-10
1.63454e-10
1.78112e-10
2.05117e-10
2.54533e-10
3.43661e-10
5.00362e-10
7.65661e-10
1.1939e-09
1.84982e-09
2.81012e-09
4.18542e-09
1.46038e-10
1.46038e-10
1.46038e-10
1.46038e-10
1.46038e-10
1.46038e-10
1.46038e-10
1.46038e-10
1.46038e-10
1.46038e-10
1.46038e-10
1.46038e-10
1.46038e-10
1.46038e-10
1.46038e-10
1.46038e-10
1.46038e-10
1.46038e-10
1.46038e-10
1.46039e-10
1.46039e-10
1.4604e-10
1.46042e-10
1.46045e-10
1.46051e-10
1.4606e-10
1.46077e-10
1.46107e-10
1.46159e-10
1.46252e-10
1.46417e-10
1.46715e-10
1.47251e-10
1.48227e-10
1.50008e-10
1.53276e-10
1.59293e-10
1.70396e-10
1.90869e-10
2.2847e-10
2.9683e-10
4.18698e-10
6.29129e-10
9.77127e-10
1.52395e-09
2.3385e-09
3.49184e-09
5.05263e-09
7.1036e-09
9.78377e-09
1.46038e-10
1.46038e-10
1.46038e-10
1.46038e-10
1.46038e-10
1.46038e-10
1.46038e-10
1.46038e-10
1.46038e-10
1.46038e-10
1.46038e-10
1.46038e-10
1.46038e-10
1.46038e-10
1.46038e-10
1.46038e-10
1.46038e-10
1.46039e-10
1.4604e-10
1.46041e-10
1.46044e-10
1.46048e-10
1.46056e-10
1.46069e-10
1.46093e-10
1.46134e-10
1.46206e-10
1.46334e-10
1.46564e-10
1.46976e-10
1.47722e-10
1.49077e-10
1.51555e-10
1.56103e-10
1.64477e-10
1.79912e-10
2.08313e-10
2.60229e-10
3.53779e-10
5.18099e-10
7.96001e-10
1.24429e-09
1.93037e-09
2.92703e-09
4.30655e-09
6.13849e-09
8.49066e-09
1.13829e-08
1.48035e-08
1.89226e-08
1.46038e-10
1.46038e-10
1.46038e-10
1.46038e-10
1.46038e-10
1.46038e-10
1.46038e-10
1.46038e-10
1.46038e-10
1.46038e-10
1.46038e-10
1.46038e-10
1.46038e-10
1.46038e-10
1.46039e-10
1.46039e-10
1.46041e-10
1.46043e-10
1.46046e-10
1.46052e-10
1.46063e-10
1.46081e-10
1.46114e-10
1.4617e-10
1.4627e-10
1.46447e-10
1.46764e-10
1.47334e-10
1.48364e-10
1.50239e-10
1.53668e-10
1.59964e-10
1.7155e-10
1.92875e-10
2.31981e-10
3.02995e-10
4.29464e-10
6.47686e-10
1.00843e-09
1.57574e-09
2.42208e-09
3.62318e-09
5.25205e-09
7.38021e-09
1.00686e-08
1.33234e-08
1.71182e-08
2.14251e-08
2.62291e-08
3.18052e-08
1.46038e-10
1.46038e-10
1.46038e-10
1.46038e-10
1.46038e-10
1.46038e-10
1.46038e-10
1.46038e-10
1.46038e-10
1.46038e-10
1.46038e-10
1.46039e-10
1.46039e-10
1.4604e-10
1.46042e-10
1.46045e-10
1.4605e-10
1.46058e-10
1.46073e-10
1.46098e-10
1.46142e-10
1.4622e-10
1.46357e-10
1.466e-10
1.47035e-10
1.47819e-10
1.49237e-10
1.51818e-10
1.56541e-10
1.6521e-10
1.81148e-10
2.10414e-10
2.63823e-10
3.59939e-10
5.28621e-10
8.1384e-10
1.27415e-09
1.97998e-09
3.00777e-09
4.43536e-09
6.33603e-09
8.78282e-09
1.18271e-08
1.54618e-08
1.96524e-08
2.43683e-08
2.95953e-08
3.53438e-08
4.15852e-08
4.86679e-08
1.46038e-10
1.46038e-10
1.46038e-10
1.46038e-10
1.46038e-10
1.46038e-10
1.46038e-10
1.46038e-10
1.46038e-10
1.46039e-10
1.4604e-10
1.46041e-10
1.46043e-10
1.46047e-10
1.46054e-10
1.46066e-10
1.46085e-10
1.4612e-10
1.4618e-10
1.46286e-10
1.46474e-10
1.46806e-10
1.47402e-10
1.48474e-10
1.50417e-10
1.53955e-10
1.60427e-10
1.723e-10
1.94092e-10
2.33967e-10
3.06249e-10
4.34821e-10
6.56577e-10
1.02335e-09
1.60096e-09
2.46522e-09
3.69555e-09
5.37124e-09
7.56552e-09
1.0352e-08
1.37701e-08
1.77997e-08
2.23988e-08
2.75355e-08
3.31973e-08
3.93923e-08
4.60725e-08
5.3301e-08
6.11405e-08
7.00121e-08
1.46038e-10
1.46038e-10
1.46038e-10
1.46038e-10
1.46038e-10
1.46038e-10
1.46039e-10
1.46039e-10
1.4604e-10
1.46042e-10
1.46045e-10
1.46051e-10
1.4606e-10
1.46076e-10
1.46103e-10
1.4615e-10
1.46232e-10
1.46376e-10
1.46631e-10
1.47084e-10
1.47896e-10
1.49358e-10
1.52007e-10
1.56833e-10
1.65657e-10
1.81827e-10
2.11433e-10
2.65336e-10
3.62175e-10
5.3197e-10
8.19135e-10
1.2832e-09
1.99653e-09
3.0392e-09
4.49284e-09
6.43767e-09
8.94657e-09
1.20924e-08
1.59005e-08
2.03381e-08
2.53572e-08
3.09251e-08
3.70319e-08
4.36751e-08
5.08028e-08
5.8511e-08
6.68478e-08
7.58245e-08
8.54709e-08
9.62889e-08
1.46038e-10
1.46038e-10
1.46038e-10
1.46039e-10
1.46039e-10
1.4604e-10
1.46041e-10
1.46044e-10
1.46048e-10
1.46056e-10
1.46068e-10
1.46089e-10
1.46126e-10
1.4619e-10
1.46301e-10
1.46497e-10
1.46842e-10
1.47457e-10
1.48558e-10
1.50543e-10
1.5414e-10
1.60691e-10
1.7266e-10
1.94554e-10
2.34496e-10
3.0673e-10
4.35022e-10
6.56217e-10
1.02243e-09
1.60044e-09
2.46822e-09
3.70911e-09
5.40634e-09
7.64059e-09
1.04841e-08
1.40071e-08
1.82198e-08
2.3077e-08
2.8526e-08
3.45344e-08
4.10938e-08
4.81854e-08
5.57719e-08
6.39621e-08
7.27929e-08
8.22731e-08
9.24456e-08
1.03334e-07
1.14963e-07
1.27899e-07
1.46038e-10
1.46039e-10
1.4604e-10
1.46041e-10
1.46043e-10
1.46046e-10
1.46052e-10
1.46062e-10
1.46079e-10
1.46108e-10
1.46157e-10
1.46244e-10
1.46394e-10
1.46658e-10
1.47125e-10
1.47955e-10
1.49443e-10
1.52126e-10
1.56988e-10
1.65837e-10
1.81986e-10
2.11448e-10
2.64927e-10
3.6079e-10
5.28701e-10
8.12791e-10
1.27276e-09
1.98196e-09
3.02295e-09
4.48149e-09
6.44193e-09
8.98502e-09
1.21821e-08
1.60984e-08
2.07282e-08
2.6015e-08
3.19029e-08
3.83597e-08
4.53765e-08
5.29157e-08
6.09692e-08
6.96445e-08
7.89691e-08
8.89555e-08
9.96494e-08
1.1107e-07
1.23247e-07
1.36215e-07
1.49994e-07
1.65184e-07
1.4604e-10
1.46042e-10
1.46045e-10
1.46049e-10
1.46057e-10
1.46071e-10
1.46093e-10
1.46132e-10
1.46199e-10
1.46315e-10
1.46517e-10
1.46873e-10
1.47501e-10
1.48619e-10
1.50622e-10
1.54233e-10
1.60775e-10
1.72671e-10
1.94338e-10
2.33719e-10
3.04726e-10
4.30602e-10
6.47552e-10
1.00719e-09
1.57642e-09
2.43431e-09
3.66707e-09
5.36214e-09
7.60466e-09
1.0475e-08
1.40431e-08
1.8367e-08
2.34248e-08
2.91498e-08
3.54842e-08
4.23959e-08
4.98724e-08
5.78586e-08
6.63864e-08
7.55481e-08
8.53657e-08
9.58586e-08
1.07071e-07
1.1902e-07
1.31741e-07
1.45266e-07
1.59611e-07
1.74788e-07
1.90802e-07
2.08283e-07
1.46047e-10
1.46054e-10
1.46064e-10
1.46082e-10
1.46113e-10
1.46165e-10
1.46255e-10
1.4641e-10
1.46681e-10
1.47157e-10
1.48e-10
1.49499e-10
1.52185e-10
1.57026e-10
1.65789e-10
1.81701e-10
2.10601e-10
2.62863e-10
3.5628e-10
5.19687e-10
7.96275e-10
1.24508e-09
1.93956e-09
2.96362e-09
4.40624e-09
6.35603e-09
8.89858e-09
1.21136e-08
1.60687e-08
2.08126e-08
2.63078e-08
3.24782e-08
3.92653e-08
4.66368e-08
5.45731e-08
6.30071e-08
7.20142e-08
8.16618e-08
9.19698e-08
1.02969e-07
1.14694e-07
1.27167e-07
1.40426e-07
1.545e-07
1.69406e-07
1.85156e-07
2.01747e-07
2.19169e-07
2.37408e-07
2.57108e-07
1.46073e-10
1.46097e-10
1.46138e-10
1.46208e-10
1.46328e-10
1.46536e-10
1.46898e-10
1.47535e-10
1.4866e-10
1.50663e-10
1.54251e-10
1.60714e-10
1.72399e-10
1.93572e-10
2.31879e-10
3.0069e-10
4.22376e-10
6.3196e-10
9.79839e-10
1.53212e-09
2.36808e-09
3.57552e-09
5.24544e-09
7.46726e-09
1.03268e-08
1.39025e-08
1.8259e-08
2.34338e-08
2.93738e-08
3.59959e-08
4.32407e-08
5.10752e-08
5.94698e-08
6.83577e-08
7.78421e-08
8.79741e-08
9.87697e-08
1.1027e-07
1.22503e-07
1.35494e-07
1.49283e-07
1.63897e-07
1.79354e-07
1.95666e-07
2.12829e-07
2.30833e-07
2.49652e-07
2.69252e-07
2.89601e-07
3.11341e-07
1.46172e-10
1.46265e-10
1.46425e-10
1.46702e-10
1.47185e-10
1.48032e-10
1.49531e-10
1.52198e-10
1.56973e-10
1.65565e-10
1.81074e-10
2.09093e-10
2.59526e-10
3.49357e-10
5.06187e-10
7.71671e-10
1.20337e-09
1.87392e-09
2.86755e-09
4.27512e-09
6.18904e-09
8.69922e-09
1.18914e-08
1.58425e-08
2.06128e-08
2.62274e-08
3.26187e-08
3.96975e-08
4.74039e-08
5.57028e-08
6.45536e-08
7.3901e-08
8.38581e-08
9.44711e-08
1.05751e-07
1.17747e-07
1.30481e-07
1.43983e-07
1.58293e-07
1.73437e-07
1.89434e-07
2.06294e-07
2.24016e-07
2.42588e-07
2.61986e-07
2.82174e-07
3.03102e-07
3.24711e-07
3.46947e-07
3.70437e-07
1.46553e-10
1.46921e-10
1.47562e-10
1.48688e-10
1.50677e-10
1.54215e-10
1.60546e-10
1.7192e-10
1.92404e-10
2.29265e-10
2.95179e-10
4.11373e-10
6.1125e-10
9.43328e-10
1.47206e-09
2.27591e-09
3.44318e-09
5.06703e-09
7.24078e-09
1.00546e-08
1.35939e-08
1.79335e-08
2.3128e-08
2.91894e-08
3.60368e-08
4.35764e-08
5.17469e-08
6.05105e-08
6.98151e-08
7.96229e-08
9.00506e-08
1.01139e-07
1.129e-07
1.25385e-07
1.38612e-07
1.52617e-07
1.67437e-07
1.83099e-07
1.99622e-07
2.17017e-07
2.35283e-07
2.54408e-07
2.74368e-07
2.95128e-07
3.16639e-07
3.3884e-07
3.61654e-07
3.84996e-07
4.08792e-07
4.33639e-07
1.48058e-10
1.49548e-10
1.5218e-10
1.56858e-10
1.65218e-10
1.8021e-10
2.07127e-10
2.55317e-10
3.40782e-10
4.89602e-10
7.41411e-10
1.1516e-09
1.79105e-09
2.74322e-09
4.09971e-09
5.95529e-09
8.40381e-09
1.15356e-08
1.54351e-08
2.01748e-08
2.58021e-08
3.23152e-08
3.9622e-08
4.76245e-08
5.62603e-08
6.54876e-08
7.52436e-08
8.55123e-08
9.64076e-08
1.07967e-07
1.20204e-07
1.33169e-07
1.46882e-07
1.61378e-07
1.76697e-07
1.92864e-07
2.099e-07
2.27814e-07
2.46607e-07
2.66267e-07
2.86772e-07
3.08087e-07
3.30163e-07
3.52939e-07
3.76341e-07
4.00281e-07
4.24656e-07
4.49356e-07
4.74287e-07
5.00004e-07
1.54146e-10
1.6031e-10
1.71306e-10
1.90977e-10
2.26155e-10
2.88727e-10
3.98599e-10
5.87236e-10
9.00765e-10
1.40124e-09
2.16532e-09
3.28068e-09
4.84142e-09
6.94338e-09
9.68067e-09
1.31434e-08
1.74151e-08
2.25648e-08
2.86318e-08
3.56e-08
4.33679e-08
5.18344e-08
6.09348e-08
7.06231e-08
8.0828e-08
9.15566e-08
1.02916e-07
1.14941e-07
1.27647e-07
1.41086e-07
1.55273e-07
1.7025e-07
1.86055e-07
2.02713e-07
2.20246e-07
2.38664e-07
2.57966e-07
2.78144e-07
2.99174e-07
3.21023e-07
3.43644e-07
3.66977e-07
3.90948e-07
4.1547e-07
4.40441e-07
4.65748e-07
4.91265e-07
5.16857e-07
5.42417e-07
5.68443e-07
1.64804e-10
1.79211e-10
2.049e-10
2.50604e-10
3.31253e-10
4.71214e-10
7.07767e-10
1.09358e-09
1.69697e-09
2.59965e-09
3.89272e-09
5.67208e-09
8.03424e-09
1.10733e-08
1.48791e-08
1.95334e-08
2.51015e-08
3.16132e-08
3.90384e-08
4.7268e-08
5.6198e-08
6.57613e-08
7.59068e-08
8.65573e-08
9.77429e-08
1.09561e-07
1.22045e-07
1.35215e-07
1.49117e-07
1.6377e-07
1.79216e-07
1.95493e-07
2.12628e-07
2.30642e-07
2.49545e-07
2.69339e-07
2.90015e-07
3.1155e-07
3.33914e-07
3.57059e-07
3.80927e-07
4.05446e-07
4.30529e-07
4.56078e-07
4.81979e-07
5.08107e-07
5.34323e-07
5.60482e-07
5.86428e-07
6.12041e-07
6.37762e-07
2.22815e-10
2.81823e-10
3.8495e-10
5.61531e-10
8.54931e-10
1.32422e-09
2.04342e-09
3.09853e-09
4.58332e-09
6.59495e-09
9.23023e-09
1.2583e-08
1.67426e-08
2.17887e-08
2.77821e-08
3.47421e-08
4.26248e-08
5.13153e-08
6.07073e-08
7.07302e-08
8.13286e-08
9.24205e-08
1.04059e-07
1.16331e-07
1.29265e-07
1.4289e-07
1.57245e-07
1.72354e-07
1.88257e-07
2.04994e-07
2.22591e-07
2.41069e-07
2.6044e-07
2.80706e-07
3.01859e-07
3.23879e-07
3.46735e-07
3.70382e-07
3.94763e-07
4.19808e-07
4.45432e-07
4.71537e-07
4.98012e-07
5.24733e-07
5.51563e-07
5.78355e-07
6.04951e-07
6.31187e-07
6.56895e-07
6.81942e-07
7.06709e-07
3.21421e-10
4.52183e-10
6.72749e-10
1.03266e-09
1.59707e-09
2.44504e-09
3.66611e-09
5.35605e-09
7.6128e-09
1.05332e-08
1.42107e-08
1.87336e-08
2.41795e-08
3.06033e-08
3.80136e-08
4.63529e-08
5.55027e-08
6.53538e-08
7.58325e-08
8.68782e-08
9.84078e-08
1.10494e-07
1.23211e-07
1.36587e-07
1.50657e-07
1.65455e-07
1.81007e-07
1.97355e-07
2.14537e-07
2.32581e-07
2.51507e-07
2.71328e-07
2.92047e-07
3.13657e-07
3.3614e-07
3.59465e-07
3.83591e-07
4.08463e-07
4.3401e-07
4.60152e-07
4.86791e-07
5.13819e-07
5.41113e-07
5.68538e-07
5.95949e-07
6.23188e-07
6.5009e-07
6.76482e-07
7.02187e-07
7.27027e-07
7.50865e-07
7.7402e-07
8.08341e-10
1.24506e-09
1.91651e-09
2.90611e-09
4.3062e-09
6.214e-09
8.72786e-09
1.19443e-08
1.59564e-08
2.08512e-08
2.67032e-08
3.35612e-08
4.14226e-08
5.02165e-08
5.98226e-08
7.01291e-08
8.10583e-08
9.25459e-08
1.04509e-07
1.17035e-07
1.30189e-07
1.43998e-07
1.58503e-07
1.73732e-07
1.89714e-07
2.06493e-07
2.24106e-07
2.4258e-07
2.61937e-07
2.8219e-07
3.03342e-07
3.25389e-07
3.48313e-07
3.72086e-07
3.96668e-07
4.22005e-07
4.48031e-07
4.74665e-07
5.01815e-07
5.29373e-07
5.57219e-07
5.85219e-07
6.1323e-07
6.41096e-07
6.68653e-07
6.95727e-07
7.22141e-07
7.47712e-07
7.72254e-07
7.95586e-07
8.1757e-07
8.38465e-07
2.28684e-09
3.43067e-09
5.02229e-09
7.15987e-09
9.94188e-09
1.34645e-08
1.78199e-08
2.30937e-08
2.9357e-08
3.66516e-08
4.49635e-08
5.4209e-08
6.42671e-08
7.50242e-08
8.63986e-08
9.83217e-08
1.10713e-07
1.23671e-07
1.37254e-07
1.51486e-07
1.66414e-07
1.82061e-07
1.9846e-07
2.15656e-07
2.33682e-07
2.5257e-07
2.7234e-07
2.93006e-07
3.14573e-07
3.37035e-07
3.60379e-07
3.84577e-07
4.0959e-07
4.35369e-07
4.61849e-07
4.88952e-07
5.16588e-07
5.44652e-07
5.73026e-07
6.0158e-07
6.30171e-07
6.58646e-07
6.86842e-07
7.14587e-07
7.41703e-07
7.68007e-07
7.93311e-07
8.17427e-07
8.40172e-07
8.61364e-07
8.80867e-07
8.9889e-07
5.8176e-09
8.19604e-09
1.12562e-08
1.50939e-08
1.98004e-08
2.54591e-08
3.21376e-08
3.98699e-08
4.86304e-08
5.83237e-08
6.88288e-08
8.00308e-08
9.18438e-08
1.04196e-07
1.17011e-07
1.30391e-07
1.44393e-07
1.59039e-07
1.74376e-07
1.9043e-07
2.07233e-07
2.24828e-07
2.43253e-07
2.62536e-07
2.827e-07
3.03759e-07
3.25719e-07
3.48577e-07
3.72318e-07
3.96918e-07
4.2234e-07
4.48537e-07
4.75446e-07
5.02992e-07
5.31089e-07
5.59634e-07
5.88512e-07
6.17596e-07
6.46745e-07
6.75809e-07
7.04627e-07
7.33028e-07
7.60835e-07
7.87864e-07
8.13929e-07
8.3884e-07
8.62408e-07
8.84447e-07
9.04776e-07
9.23223e-07
9.39659e-07
9.54246e-07
1.26721e-08
1.68326e-08
2.18964e-08
2.79449e-08
3.5041e-08
4.32109e-08
5.24173e-08
6.25549e-08
7.34998e-08
8.51399e-08
9.73844e-08
1.10159e-07
1.23391e-07
1.37184e-07
1.51595e-07
1.66643e-07
1.82379e-07
1.98826e-07
2.16018e-07
2.33998e-07
2.52804e-07
2.72464e-07
2.93003e-07
3.14435e-07
3.36767e-07
3.59997e-07
3.84113e-07
4.09092e-07
4.34899e-07
4.61489e-07
4.88802e-07
5.16767e-07
5.45299e-07
5.74299e-07
6.03656e-07
6.33245e-07
6.62929e-07
6.92561e-07
7.21981e-07
7.5102e-07
7.79504e-07
8.07248e-07
8.34067e-07
8.5977e-07
8.84168e-07
9.07071e-07
9.28293e-07
9.47656e-07
9.6499e-07
9.80132e-07
9.92967e-07
1.0036e-06
2.41068e-08
3.05482e-08
3.8063e-08
4.66692e-08
5.63179e-08
6.68951e-08
7.8273e-08
9.0343e-08
1.03011e-07
1.16201e-07
1.29842e-07
1.44038e-07
1.58847e-07
1.74288e-07
1.9041e-07
2.07237e-07
2.24803e-07
2.43153e-07
2.62322e-07
2.82342e-07
3.03236e-07
3.2502e-07
3.47702e-07
3.71282e-07
3.95749e-07
4.21083e-07
4.47251e-07
4.74209e-07
5.01901e-07
5.30259e-07
5.592e-07
5.8863e-07
6.18439e-07
6.48509e-07
6.78703e-07
7.08879e-07
7.38879e-07
7.68537e-07
7.9768e-07
8.26127e-07
8.5369e-07
8.8018e-07
9.05407e-07
9.29178e-07
9.51307e-07
9.71609e-07
9.8991e-07
1.00604e-06
1.01985e-06
1.03119e-06
1.03994e-06
1.04617e-06
4.11995e-08
5.0239e-08
6.03254e-08
7.13368e-08
8.31411e-08
9.56319e-08
1.08716e-07
1.22313e-07
1.36354e-07
1.50945e-07
1.6614e-07
1.81963e-07
1.98457e-07
2.15652e-07
2.33578e-07
2.52281e-07
2.71797e-07
2.92157e-07
3.13387e-07
3.35502e-07
3.58513e-07
3.8242e-07
4.07215e-07
4.32879e-07
4.59382e-07
4.86682e-07
5.14728e-07
5.43452e-07
5.72776e-07
6.02609e-07
6.32845e-07
6.63368e-07
6.94048e-07
7.24743e-07
7.553e-07
7.85556e-07
8.15339e-07
8.44471e-07
8.72765e-07
9.00034e-07
9.26084e-07
9.50725e-07
9.73766e-07
9.95021e-07
1.01431e-06
1.03146e-06
1.04631e-06
1.05871e-06
1.06851e-06
1.07565e-06
1.0798e-06
1.08155e-06
7.58721e-08
8.8097e-08
1.00999e-07
1.14489e-07
1.28484e-07
1.42917e-07
1.57892e-07
1.73464e-07
1.89656e-07
2.06511e-07
2.24059e-07
2.4233e-07
2.61371e-07
2.81217e-07
3.019e-07
3.23445e-07
3.45872e-07
3.69189e-07
3.93401e-07
4.18499e-07
4.44469e-07
4.71281e-07
4.98898e-07
5.2727e-07
5.56333e-07
5.86013e-07
6.16222e-07
6.46858e-07
6.77808e-07
7.08947e-07
7.40135e-07
7.71224e-07
8.02054e-07
8.32457e-07
8.62254e-07
8.91264e-07
9.19298e-07
9.46164e-07
9.71671e-07
9.95625e-07
1.01784e-06
1.03813e-06
1.05632e-06
1.07225e-06
1.08575e-06
1.09668e-06
1.10491e-06
1.11028e-06
1.11276e-06
1.11262e-06
1.10948e-06
1.06438e-07
1.20324e-07
1.34708e-07
1.49523e-07
1.64871e-07
1.80807e-07
1.97357e-07
2.14559e-07
2.32448e-07
2.5105e-07
2.70412e-07
2.90571e-07
3.11559e-07
3.33402e-07
3.56119e-07
3.79722e-07
4.04215e-07
4.29594e-07
4.55844e-07
4.8294e-07
5.10847e-07
5.39518e-07
5.68893e-07
5.98901e-07
6.29457e-07
6.60465e-07
6.91815e-07
7.23384e-07
7.55039e-07
7.86634e-07
8.18014e-07
8.49012e-07