/*--------------------------------*- C++ -*----------------------------------*\
| =========                 |                                                 |
| \\      /  F ield         | OpenFOAM: The Open Source CFD Toolbox           |
|  \\    /   O peration     | Version:  v1706                                 |
|   \\  /    A nd           | Web:      www.OpenFOAM.com                      |
|    \\/     M anipulation  |                                                 |
\*---------------------------------------------------------------------------*/
FoamFile
{
    version     2.0;
    format      ascii;
    class       volScalarField;
    location    "4e-06";
    object      kappatr;
}
// * * * * * * * * * * * * * * * * * * * * * * * * * * * * * * * * * * * * * //

dimensions      [1 1 -3 -1 0 0 0];


internalField   nonuniform List<scalar> 
30038
(
0.014593
0.014593
0.014593
0.014593
0.014593
0.014593
0.014593
0.014593
0.014593
0.014593
0.014593
0.014593
0.014593
0.014593
0.014593
0.014593
0.014593
0.014593
0.014593
0.014593
0.014593
0.014593
0.014593
0.014593
0.014593
0.014593
0.014593
0.014593
0.014593
0.014593
0.014593
0.014593
0.014593
0.014593
0.014593
0.014593
0.014593
0.014593
0.014593
0.014593
0.014593
0.014593
0.014593
0.014593
0.014593
0.014593
0.014593
0.014593
0.014593
0.014593
0.014593
0.014593
0.014593
0.014593
0.014593
0.014593
0.014593
0.014593
0.014593
0.014593
0.014593
0.014593
0.014593
0.014593
0.014593
0.014593
0.014593
0.014593
0.014593
0.014593
0.014593
0.014593
0.014593
0.014593
0.014593
0.014593
0.014593
0.014593
0.014593
0.014593
0.014593
0.014593
0.014593
0.014593
0.014593
0.014593
0.014593
0.014593
0.014593
0.014593
0.014593
0.014593
0.014593
0.014593
0.014593
0.014593
0.014593
0.014593
0.014593
0.014593
0.014593
0.014593
0.014593
0.014593
0.014593
0.014593
0.014593
0.014593
0.014593
0.014593
0.014593
0.014593
0.014593
0.014593
0.014593
0.014593
0.014593
0.014593
0.014593
0.014593
0.014593
0.014593
0.014593
0.014593
0.014593
0.014593
0.014593
0.014593
0.014593
0.014593
0.014593
0.014593
0.014593
0.014593
0.014593
0.014593
0.014593
0.014593
0.014593
0.014593
0.014593
0.014593
0.014593
0.014593
0.014593
0.014593
0.014593
0.014593
0.014593
0.014593
0.014593
0.014593
0.014593
0.014593
0.014593
0.014593
0.014593
0.014593
0.014593
0.014593
0.014593
0.014593
0.014593
0.014593
0.014593
0.014593
0.014593
0.014593
0.014593
0.014593
0.014593
0.014593
0.014593
0.014593
0.014593
0.014593
0.014593
0.014593
0.014593
0.014593
0.014593
0.014593
0.014593
0.014593
0.014593
0.014593
0.014593
0.014593
0.014593
0.014593
0.014593
0.014593
0.014593
0.014593
0.014593
0.014593
0.014593
0.014593
0.014593
0.014593
0.014593
0.014593
0.014593
0.014593
0.014593
0.014593
0.014593
0.014593
0.014593
0.014593
0.014593
0.014593
0.014593
0.014593
0.014593
0.014593
0.014593
0.014593
0.014593
0.014593
0.014593
0.014593
0.014593
0.014593
0.014593
0.014593
0.014593
0.014593
0.014593
0.014593
0.014593
0.014593
0.014593
0.014593
0.014593
0.014593
0.014593
0.014593
0.014593
0.014593
0.014593
0.014593
0.014593
0.014593
0.014593
0.014593
0.014593
0.014593
0.014593
0.014593
0.014593
0.014593
0.014593
0.014593
0.014593
0.014593
0.014593
0.014593
0.014593
0.014593
0.014593
0.014593
0.014593
0.014593
0.014593
0.014593
0.014593
0.014593
0.014593
0.014593
0.014593
0.014593
0.014593
0.014593
0.014593
0.014593
0.014593
0.014593
0.014593
0.014593
0.014593
0.014593
0.014593
0.014593
0.014593
0.014593
0.014593
0.014593
0.014593
0.014593
0.014593
0.014593
0.014593
0.014593
0.014593
0.014593
0.014593
0.014593
0.014593
0.014593
0.014593
0.014593
0.014593
0.014593
0.014593
0.014593
0.014593
0.014593
0.014593
0.014593
0.014593
0.014593
0.014593
0.014593
0.014593
0.014593
0.014593
0.014593
0.014593
0.014593
0.014593
0.014593
0.014593
0.014593
0.014593
0.014593
0.014593
0.014593
0.014593
0.014593
0.014593
0.014593
0.014593
0.014593
0.014593
0.014593
0.014593
0.014593
0.014593
0.014593
0.014593
0.014593
0.014593
0.014593
0.014593
0.014593
0.014593
0.014593
0.014593
0.014593
0.014593
0.014593
0.014593
0.014593
0.014593
0.014593
0.014593
0.014593
0.014593
0.014593
0.014593
0.014593
0.014593
0.014593
0.014593
0.014593
0.014593
0.014593
0.014593
0.014593
0.014593
0.014593
0.014593
0.014593
0.014593
0.014593
0.014593
0.014593
0.014593
0.014593
0.014593
0.014593
0.014593
0.014593
0.014593
0.014593
0.014593
0.014593
0.014593
0.014593
0.014593
0.014593
0.014593
0.014593
0.014593
0.014593
0.014593
0.014593
0.014593
0.014593
0.014593
0.014593
0.014593
0.014593
0.014593
0.014593
0.014593
0.014593
0.014593
0.014593
0.014593
0.014593
0.014593
0.014593
0.014593
0.014593
0.014593
0.014593
0.014593
0.014593
0.014593
0.014593
0.014593
0.014593
0.014593
0.014593
0.014593
0.014593
0.014593
0.014593
0.014593
0.014593
0.014593
0.014593
0.014593
0.014593
0.014593
0.014593
0.014593
0.014593
0.014593
0.014593
0.014593
0.014593
0.014593
0.014593
0.014593
0.014593
0.014593
0.014593
0.014593
0.014593
0.014593
0.014593
0.014593
0.014593
0.014593
0.014593
0.014593
0.014593
0.014593
0.014593
0.014593
0.014593
0.014593
0.014593
0.014593
0.014593
0.014593
0.014593
0.014593
0.014593
0.014593
0.014593
0.014593
0.014593
0.014593
0.014593
0.014593
0.014593
0.014593
0.014593
0.014593
0.014593
0.014593
0.014593
0.014593
0.014593
0.014593
0.014593
0.014593
0.014593
0.014593
0.014593
0.014593
0.014593
0.014593
0.014593
0.014593
0.014593
0.014593
0.014593
0.014593
0.014593
0.014593
0.014593
0.014593
0.014593
0.014593
0.014593
0.014593
0.014593
0.014593
0.014593
0.014593
0.014593
0.014593
0.014593
0.014593
0.014593
0.014593
0.014593
0.014593
0.014593
0.014593
0.014593
0.014593
0.014593
0.014593
0.014593
0.014593
0.014593
0.014593
0.014593
0.014593
0.014593
0.014593
0.014593
0.014593
0.014593
0.014593
0.014593
0.014593
0.014593
0.014593
0.014593
0.014593
0.014593
0.014593
0.014593
0.014593
0.014593
0.014593
0.014593
0.014593
0.014593
0.014593
0.014593
0.014593
0.014593
0.014593
0.014593
0.014593
0.014593
0.014593
0.014593
0.014593
0.014593
0.014593
0.014593
0.014593
0.014593
0.014593
0.014593
0.014593
0.014593
0.014593
0.014593
0.014593
0.014593
0.014593
0.014593
0.014593
0.014593
0.014593
0.014593
0.014593
0.014593
0.014593
0.014593
0.014593
0.014593
0.014593
0.014593
0.014593
0.014593
0.014593
0.014593
0.014593
0.014593
0.014593
0.014593
0.014593
0.014593
0.014593
0.014593
0.014593
0.014593
0.014593
0.014593
0.014593
0.014593
0.014593
0.014593
0.014593
0.014593
0.014593
0.014593
0.014593
0.014593
0.014593
0.014593
0.014593
0.014593
0.014593
0.014593
0.014593
0.014593
0.014593
0.014593
0.014593
0.014593
0.014593
0.014593
0.014593
0.014593
0.014593
0.014593
0.014593
0.014593
0.014593
0.014593
0.014593
0.014593
0.014593
0.014593
0.014593
0.014593
0.014593
0.014593
0.014593
0.014593
0.014593
0.014593
0.014593
0.014593
0.014593
0.014593
0.014593
0.014593
0.014593
0.014593
0.014593
0.014593
0.014593
0.014593
0.014593
0.014593
0.014593
0.014593
0.014593
0.014593
0.014593
0.014593
0.014593
0.014593
0.014593
0.014593
0.014593
0.014593
0.014593
0.014593
0.014593
0.014593
0.014593
0.014593
0.014593
0.014593
0.014593
0.014593
0.014593
0.014593
0.014593
0.014593
0.014593
0.014593
0.014593
0.014593
0.014593
0.0145931
0.0145931
0.014593
0.014593
0.014593
0.014593
0.014593
0.014593
0.014593
0.014593
0.014593
0.014593
0.014593
0.014593
0.014593
0.014593
0.014593
0.014593
0.014593
0.014593
0.014593
0.014593
0.014593
0.014593
0.014593
0.014593
0.014593
0.014593
0.014593
0.014593
0.014593
0.014593
0.014593
0.014593
0.014593
0.014593
0.014593
0.014593
0.0145931
0.0145931
0.0145932
0.0145933
0.0145936
0.014593
0.014593
0.014593
0.014593
0.014593
0.014593
0.014593
0.014593
0.014593
0.014593
0.014593
0.014593
0.014593
0.014593
0.014593
0.014593
0.014593
0.014593
0.014593
0.014593
0.014593
0.014593
0.014593
0.014593
0.014593
0.014593
0.014593
0.014593
0.014593
0.014593
0.014593
0.014593
0.014593
0.0145931
0.0145931
0.0145932
0.0145933
0.0145935
0.0145938
0.0145945
0.0145957
0.014593
0.014593
0.014593
0.014593
0.014593
0.014593
0.014593
0.014593
0.014593
0.014593
0.014593
0.014593
0.014593
0.014593
0.014593
0.014593
0.014593
0.014593
0.014593
0.014593
0.014593
0.014593
0.014593
0.014593
0.014593
0.014593
0.014593
0.014593
0.014593
0.014593
0.014593
0.014593
0.0145931
0.0145931
0.0145932
0.0145934
0.0145937
0.0145942
0.0145951
0.0145967
0.0145996
0.0146051
0.014593
0.014593
0.014593
0.014593
0.014593
0.014593
0.014593
0.014593
0.014593
0.014593
0.014593
0.014593
0.014593
0.014593
0.014593
0.014593
0.014593
0.014593
0.014593
0.014593
0.014593
0.014593
0.014593
0.014593
0.014593
0.014593
0.014593
0.014593
0.014593
0.014593
0.0145931
0.0145931
0.0145932
0.0145933
0.0145936
0.014594
0.0145947
0.014596
0.0145983
0.0146023
0.0146093
0.0146219
0.014646
0.014593
0.014593
0.014593
0.014593
0.014593
0.014593
0.014593
0.014593
0.014593
0.014593
0.014593
0.014593
0.014593
0.014593
0.014593
0.014593
0.014593
0.014593
0.014593
0.014593
0.014593
0.014593
0.014593
0.014593
0.014593
0.014593
0.014593
0.0145931
0.0145931
0.0145932
0.0145933
0.0145935
0.0145938
0.0145944
0.0145954
0.0145973
0.0146005
0.0146061
0.0146159
0.0146332
0.0146637
0.014718
0.0148195
0.014593
0.014593
0.014593
0.014593
0.014593
0.014593
0.014593
0.014593
0.014593
0.014593
0.014593
0.014593
0.014593
0.014593
0.014593
0.014593
0.014593
0.014593
0.014593
0.014593
0.014593
0.014593
0.014593
0.014593
0.014593
0.014593
0.0145931
0.0145931
0.0145932
0.0145934
0.0145937
0.0145941
0.014595
0.0145965
0.014599
0.0146035
0.0146113
0.014625
0.014649
0.014691
0.0147644
0.0148924
0.0151161
0.0155162
0.014593
0.014593
0.014593
0.014593
0.014593
0.014593
0.014593
0.014593
0.014593
0.014593
0.014593
0.014593
0.014593
0.014593
0.014593
0.014593
0.014593
0.014593
0.014593
0.014593
0.014593
0.014593
0.014593
0.014593
0.0145931
0.0145931
0.0145932
0.0145933
0.0145935
0.0145939
0.0145946
0.0145958
0.0145978
0.0146014
0.0146076
0.0146185
0.0146374
0.0146705
0.0147281
0.0148281
0.0150009
0.0152963
0.0157925
0.0166091
0.0179242
0.014593
0.014593
0.014593
0.014593
0.014593
0.014593
0.014593
0.014593
0.014593
0.014593
0.014593
0.014593
0.014593
0.014593
0.014593
0.014593
0.014593
0.014593
0.014593
0.014593
0.014593
0.014593
0.0145931
0.0145931
0.0145932
0.0145933
0.0145934
0.0145938
0.0145943
0.0145953
0.0145969
0.0145997
0.0146047
0.0146133
0.0146282
0.0146541
0.0146992
0.0147775
0.0149126
0.015144
0.0155346
0.0161783
0.0172022
0.018753
0.0209734
0.0239645
0.014593
0.014593
0.014593
0.014593
0.014593
0.014593
0.014593
0.014593
0.014593
0.014593
0.014593
0.014593
0.014593
0.014593
0.014593
0.014593
0.014593
0.014593
0.014593
0.014593
0.014593
0.014593
0.0145931
0.0145931
0.0145932
0.0145934
0.0145936
0.0145941
0.0145948
0.0145961
0.0145984
0.0146023
0.0146091
0.0146208
0.0146412
0.0146764
0.0147374
0.0148428
0.0150234
0.0153296
0.015839
0.0166618
0.0179346
0.0197955
0.0223401
0.0255817
0.0294546
0.03381
0.014593
0.014593
0.014593
0.014593
0.014593
0.014593
0.014593
0.014593
0.014593
0.014593
0.014593
0.014593
0.014593
0.014593
0.014593
0.014593
0.014593
0.014593
0.014593
0.0145931
0.0145931
0.0145932
0.0145933
0.0145935
0.0145939
0.0145945
0.0145955
0.0145973
0.0146004
0.0146058
0.014615
0.0146309
0.0146584
0.0147059
0.0147878
0.0149282
0.0151669
0.0155668
0.0162209
0.0172531
0.0188029
0.02099
0.0238688
0.0273998
0.031451
0.0358231
0.040306
0.0447259
0.014593
0.014593
0.014593
0.014593
0.014593
0.014593
0.014593
0.014593
0.014593
0.014593
0.014593
0.014593
0.014593
0.014593
0.014593
0.014593
0.014593
0.014593
0.0145931
0.0145931
0.0145931
0.0145932
0.0145934
0.0145937
0.0145942
0.014595
0.0145965
0.0145989
0.0146031
0.0146104
0.0146228
0.0146443
0.0146812
0.0147447
0.0148535
0.0150387
0.0153505
0.0158656
0.0166917
0.0179615
0.0198079
0.0223217
0.025512
0.0292943
0.033503
0.0379231
0.0423329
0.046542
0.0504214
0.0537788
0.014593
0.014593
0.014593
0.014593
0.014593
0.014593
0.014593
0.014593
0.014593
0.014593
0.014593
0.014593
0.014593
0.014593
0.014593
0.014593
0.0145931
0.0145931
0.0145932
0.0145933
0.0145936
0.014594
0.0145946
0.0145958
0.0145977
0.0146011
0.0146068
0.0146165
0.0146332
0.0146619
0.0147111
0.0147952
0.0149384
0.0151803
0.0155826
0.0162362
0.0172612
0.0187923
0.0209453
0.023774
0.0272422
0.0312279
0.0355436
0.0399729
0.0443071
0.0483788
0.0520445
0.055054
0.0572255
0.0586627
0.014593
0.014593
0.014593
0.014593
0.014593
0.014593
0.014593
0.014593
0.014593
0.014593
0.014593
0.014593
0.014593
0.0145931
0.0145931
0.0145932
0.0145933
0.0145935
0.0145938
0.0145943
0.0145952
0.0145968
0.0145994
0.0146039
0.0146115
0.0146246
0.0146469
0.0146849
0.0147499
0.0148604
0.0150472
0.0153594
0.0158717
0.0166882
0.0179371
0.0197465
0.0222056
0.0253268
0.0290329
0.0331735
0.0375488
0.0419495
0.0461832
0.0501051
0.0535568
0.056297
0.0582075
0.0594098
0.0601264
0.0605616
0.014593
0.014593
0.014593
0.014593
0.014593
0.014593
0.014593
0.014593
0.014593
0.014593
0.0145931
0.0145931
0.0145931
0.0145932
0.0145934
0.0145936
0.0145941
0.0145948
0.014596
0.0145981
0.0146016
0.0146076
0.0146178
0.0146351
0.0146646
0.0147147
0.0147998
0.0149437
0.0151849
0.0155834
0.0162267
0.0172303
0.0187238
0.0208201
0.0235745
0.0269579
0.0308589
0.0351079
0.0395016
0.0438429
0.0479566
0.0517144
0.054943
0.0574232
0.0590987
0.0601313
0.0607384
0.0610972
0.0613084
0.0614327
0.014593
0.014593
0.014593
0.014593
0.014593
0.014593
0.014593
0.014593
0.0145931
0.0145931
0.0145932
0.0145933
0.0145935
0.0145939
0.0145945
0.0145954
0.0145971
0.0145999
0.0146046
0.0146125
0.014626
0.0146488
0.0146875
0.0147531
0.0148637
0.0150493
0.0153575
0.0158598
0.016656
0.0178688
0.0196221
0.0220047
0.0250345
0.0286444
0.0326972
0.037012
0.0413894
0.0456471
0.0496262
0.0532084
0.0562099
0.0584426
0.0599088
0.0607976
0.0613148
0.0616243
0.0617938
0.0618968
0.0619963
0.0621012
0.014593
0.014593
0.014593
0.014593
0.014593
0.0145931
0.0145931
0.0145932
0.0145933
0.0145934
0.0145937
0.0145942
0.014595
0.0145963
0.0145985
0.0146022
0.0146084
0.0146189
0.0146366
0.0146665
0.014717
0.014802
0.0149446
0.0151819
0.0155713
0.0161964
0.017167
0.0186076
0.0206285
0.0232881
0.0265665
0.0303646
0.0345277
0.0388709
0.0432036
0.0473591
0.0511927
0.0545909
0.0573659
0.0593675
0.0606501
0.0614166
0.06186
0.0621275
0.0622656
0.0623591
0.0624581
0.0625432
0.0626223
0.0627096
0.014593
0.014593
0.0145931
0.0145931
0.0145931
0.0145932
0.0145934
0.0145936
0.014594
0.0145946
0.0145956
0.0145974
0.0146003
0.0146052
0.0146134
0.0146271
0.0146502
0.0146891
0.0147545
0.0148639
0.0150462
0.0153466
0.0158331
0.0166005
0.0177653
0.0194473
0.0217358
0.0246553
0.0281507
0.0320985
0.0363338
0.0406733
0.0449385
0.0489779
0.0526581
0.0558668
0.0584204
0.0602098
0.0613328
0.0619955
0.0623786
0.0626089
0.0627236
0.0628091
0.0629044
0.0629813
0.0630577
0.063135
0.0632179
0.0633204
0.0145931
0.0145931
0.0145932
0.0145933
0.0145935
0.0145938
0.0145943
0.0145951
0.0145965
0.0145988
0.0146026
0.0146091
0.0146198
0.0146377
0.0146677
0.014718
0.014802
0.0149418
0.0151726
0.015549
0.0161496
0.0170784
0.0184543
0.0203852
0.0229336
0.0260896
0.0297681
0.0338285
0.0381019
0.042411
0.0465912
0.050504
0.0540254
0.0570424
0.0593832
0.0609806
0.0619656
0.0625403
0.0628741
0.06307
0.0631674
0.0632477
0.0633369
0.0634091
0.0634832
0.0635577
0.0636382
0.063733
0.0638446
0.0639798
0.0145932
0.0145934
0.0145936
0.014594
0.0145947
0.0145958
0.0145976
0.0146007
0.0146057
0.0146141
0.014628
0.0146513
0.01469
0.0147545
0.0148617
0.0150388
0.0153286
0.0157951
0.0165271
0.0176353
0.0192347
0.0214152
0.0242091
0.0275739
0.031401
0.0355396
0.0398216
0.0440787
0.0481603
0.0519391
0.0552982
0.0581243
0.0602639
0.0616896
0.0625557
0.0630561
0.063349
0.063513
0.0635987
0.0636763
0.0637584
0.0638272
0.0638988
0.0639702
0.0640495
0.0641427
0.0642516
0.0643777
0.0645226
0.0646918
0.0145939
0.0145944
0.0145953
0.0145967
0.0145991
0.0146031
0.0146097
0.0146205
0.0146386
0.0146685
0.0147181
0.0148004
0.0149362
0.0151588
0.0155191
0.0160908
0.0169716
0.0182744
0.0201046
0.0225289
0.0255481
0.0290916
0.0330338
0.0372195
0.0414852
0.0456732
0.0496461
0.0532858
0.0564812
0.0591201
0.0610718
0.0623452
0.0631091
0.063547
0.0638052
0.0639404
0.0640189
0.0640952
0.0641693
0.0642362
0.0643042
0.0643729
0.0644508
0.0645425
0.0646493
0.0647729
0.0649136
0.0650722
0.0652497
0.0654516
0.014596
0.0145979
0.0146011
0.0146062
0.0146147
0.0146288
0.0146519
0.0146903
0.0147535
0.0148577
0.0150285
0.0153058
0.0157493
0.0164421
0.0174878
0.0189968
0.0210596
0.0237156
0.026936
0.0306272
0.0346531
0.0388586
0.0430872
0.0471928
0.0510496
0.0545473
0.0575791
0.060037
0.0618156
0.062955
0.0636306
0.0640161
0.0642442
0.0643569
0.0644288
0.0645047
0.0645705
0.0646351
0.0646996
0.064766
0.0648424
0.0649322
0.0650369
0.0651578
0.0652953
0.0654498
0.0656218
0.0658116
0.0660204
0.0662531
0.0146036
0.0146102
0.0146212
0.0146392
0.0146689
0.0147176
0.0147977
0.0149288
0.0151419
0.0154844
0.0160248
0.0168541
0.0180788
0.0198016
0.0220927
0.0249636
0.0283584
0.0321671
0.0362481
0.0404498
0.0446244
0.0486373
0.0523729
0.0557271
0.0585974
0.0608824
0.0625031
0.063525
0.0641247
0.064466
0.0646675
0.0647634
0.0648284
0.064902
0.0649616
0.0650239
0.0650853
0.0651497
0.0652245
0.0653122
0.0654145
0.0655325
0.0656665
0.0658171
0.0659845
0.066169
0.0663709
0.0665904
0.0668285
0.0670893
0.0146294
0.0146525
0.0146902
0.0147519
0.0148526
0.0150164
0.0152803
0.0156994
0.0163508
0.0173313
0.0187462
0.0206854
0.0231954
0.0262602
0.0298021
0.0336995
0.0378102
0.0419882
0.0460953
0.0500078
0.0536187
0.0568295
0.0595416
0.0616633
0.0631411
0.0640603
0.0645947
0.0648988
0.0650764
0.0651585
0.0652182
0.0652873
0.0653436
0.0654032
0.065462
0.0655244
0.0655973
0.0656828
0.0657825
0.0658973
0.0660277
0.0661741
0.0663369
0.0665162
0.0667123
0.0669253
0.0671553
0.0674021
0.0676666
0.0679518
0.0147168
0.0147945
0.0149204
0.0151236
0.0154476
0.0159557
0.0167322
0.0178771
0.0194897
0.0216427
0.0243576
0.0275933
0.0312548
0.0352145
0.0393326
0.0434705
0.0474995
0.051306
0.0547904
0.0578589
0.0604176
0.0623864
0.0637358
0.0645653
0.0650434
0.065316
0.065472
0.0655433
0.0655988
0.0656635
0.0657168
0.0657738
0.0658299
0.0658903
0.0659612
0.0660442
0.0661411
0.0662526
0.0663792
0.0665213
0.0666792
0.0668532
0.0670435
0.0672502
0.0674733
0.0677126
0.0679678
0.0682387
0.0685255
0.0688306
0.0150037
0.0152538
0.0156483
0.0162581
0.0171732
0.0184932
0.0203069
0.0226667
0.0255689
0.0289508
0.0327058
0.0367041
0.0408107
0.0448949
0.0488376
0.0525343
0.0558916
0.0588201
0.0612314
0.0630579
0.0642923
0.0650436
0.0654733
0.0657189
0.0658557
0.0659184
0.0659707
0.0660309
0.0660815
0.066136
0.0661893
0.0662476
0.0663162
0.0663967
0.0664907
0.0665987
0.0667214
0.066859
0.0670119
0.0671805
0.0673648
0.0675651
0.0677813
0.0680133
0.0682608
0.0685232
0.0688001
0.0690907
0.069395
0.0697146
0.0154108
0.015887
0.0166113
0.0176773
0.01918
0.021194
0.0237491
0.0268183
0.0303219
0.0341459
0.0381619
0.0422408
0.0462606
0.050111
0.0536955
0.0569262
0.0597179
0.0619885
0.0636836
0.0648154
0.0654983
0.0658863
0.0661087
0.0662284
0.0662844
0.0663341
0.0663895
0.0664381
0.0664897
0.0665402
0.0665964
0.0666627
0.0667406
0.0668315
0.066936
0.0670545
0.0671876
0.0673354
0.0674984
0.0676767
0.0678705
0.0680798
0.0683044
0.0685442
0.0687985
0.0690669
0.0693485
0.0696425
0.0699479
0.0702643
0.0705923
0.0170196
0.0182466
0.0199362
0.0221452
0.0248809
0.0280954
0.0316967
0.0355675
0.0395829
0.0436209
0.0475677
0.0513214
0.0547925
0.057898
0.060557
0.0626942
0.0642687
0.0653089
0.065932
0.0662841
0.0664863
0.0665909
0.0666417
0.0666893
0.0667397
0.0667867
0.066835
0.066883
0.0669371
0.067001
0.0670761
0.0671638
0.0672646
0.067379
0.0675074
0.0676501
0.0678074
0.0679796
0.0681669
0.0683692
0.0685864
0.0688184
0.0690647
0.0693247
0.0695977
0.0698828
0.0701789
0.0704849
0.0707994
0.071122
0.0714522
0.0188824
0.0207592
0.0231542
0.0260528
0.0293905
0.0330667
0.0369644
0.0409635
0.0449496
0.0488169
0.0524711
0.0558286
0.058811
0.0613418
0.0633535
0.0648174
0.0657763
0.0663471
0.0666681
0.0668525
0.0669441
0.0669906
0.0670364
0.0670821
0.0671271
0.0671723
0.0672179
0.0672698
0.0673311
0.0674034
0.0674879
0.0675849
0.0676951
0.0678187
0.0679562
0.0681079
0.068274
0.0684546
0.0686499
0.0688597
0.0690839
0.0693221
0.0695738
0.0698382
0.0701145
0.0704018
0.0706988
0.0710042
0.0713166
0.0716345
0.071957
0.0722832
0.0242135
0.0272559
0.0306946
0.0344248
0.0383316
0.0423013
0.0462267
0.0500095
0.0535623
0.0568069
0.059669
0.0620768
0.0639708
0.065334
0.0662203
0.0667453
0.0670393
0.0672081
0.0672888
0.0673315
0.0673754
0.0674167
0.0674596
0.0675019
0.0675451
0.0675947
0.0676535
0.0677229
0.067804
0.0678972
0.0680031
0.068122
0.0682543
0.0684003
0.0685602
0.0687342
0.0689225
0.0691249
0.0693413
0.0695713
0.0698146
0.0700705
0.0703381
0.0706166
0.0709048
0.0712014
0.0715051
0.0718142
0.0721273
0.0724426
0.0727592
0.0730751
0.0320002
0.0357651
0.0396657
0.0435947
0.0474523
0.0511471
0.0545978
0.0577307
0.0604758
0.0627662
0.0645502
0.0658217
0.0666433
0.0671283
0.0673989
0.0675538
0.0676252
0.0676646
0.0677063
0.0677438
0.0677843
0.0678239
0.0678648
0.0679121
0.0679683
0.0680348
0.0681125
0.0682019
0.0683034
0.0684175
0.0685446
0.0686848
0.0688386
0.069006
0.0691872
0.0693822
0.0695909
0.0698129
0.0700478
0.0702951
0.0705541
0.0708238
0.0711032
0.0713911
0.0716862
0.071987
0.0722919
0.0725992
0.0729073
0.0732142
0.0735188
0.0738189
0.0409641
0.0448431
0.0486272
0.0522314
0.0555799
0.0586032
0.0612351
0.0634137
0.0650954
0.0662837
0.0670476
0.0674973
0.0677474
0.0678904
0.0679543
0.0679902
0.0680297
0.0680636
0.0681016
0.0681387
0.0681773
0.0682223
0.0682759
0.0683393
0.0684135
0.068499
0.0685963
0.0687056
0.0688274
0.068962
0.0691096
0.0692704
0.0694447
0.0696323
0.0698332
0.0700472
0.0702738
0.0705126
0.0707629
0.0710238
0.0712945
0.0715738
0.0718603
0.0721528
0.0724497
0.0727494
0.0730501
0.0733501
0.0736475
0.0739405
0.0742279
0.0745066
0.0497527
0.0532647
0.0565115
0.0594275
0.0619502
0.064023
0.0656099
0.0667228
0.0674349
0.0678534
0.0680858
0.0682182
0.0682761
0.0683084
0.0683451
0.0683763
0.0684117
0.0684465
0.0684829
0.0685255
0.0685763
0.0686367
0.0687075
0.0687891
0.068882
0.0689865
0.0691031
0.069232
0.0693735
0.0695279
0.0696951
0.0698754
0.0700687
0.0702746
0.070493
0.0707233
0.070965
0.0712173
0.0714792
0.0717498
0.0720279
0.0723121
0.072601
0.0728931
0.0731866
0.07348
0.0737712
0.0740585
0.0743402
0.0746142
0.0748792
0.0751319
0.0573953
0.0602066
0.0626244
0.0645972
0.0660964
0.0671412
0.0678068
0.0681977
0.0684145
0.0685376
0.0685904
0.0686196
0.0686531
0.0686822
0.0687149
0.0687476
0.0687817
0.0688219
0.06887
0.0689273
0.0689945
0.0690722
0.0691608
0.0692606
0.069372
0.0694953
0.0696307
0.0697786
0.069939
0.0701121
0.0702977
0.0704957
0.0707059
0.0709278
0.0711609
0.0714045
0.0716578
0.0719198
0.0721894
0.0724653
0.0727463
0.0730308
0.0733172
0.0736038
0.073889
0.074171
0.0744478
0.0747176
0.0749787
0.075229
0.0754672
0.0756897
0.0632608
0.0651394
0.0665577
0.0675406
0.0681647
0.0685309
0.0687342
0.0688492
0.0688975
0.0689238
0.0689543
0.0689813
0.0690114
0.0690421
0.069074
0.0691118
0.0691571
0.0692113
0.069275
0.0693488
0.0694331
0.0695281
0.0696344
0.0697521
0.0698815
0.070023
0.0701766
0.0703425
0.0705206
0.0707108
0.0709129
0.0711264
0.0713511
0.0715861
0.0718307
0.0720842
0.0723453
0.072613
0.072886
0.0731628
0.0734421
0.0737221
0.0740012
0.0742777
0.0745498
0.0748157
0.0750735
0.0753213
0.0755575
0.07578
0.0759876
0.0761762
0.0679228
0.0685098
0.0688539
0.0690451
0.0691529
0.0691977
0.0692214
0.069249
0.0692741
0.0693016
0.0693303
0.0693599
0.0693953
0.0694379
0.0694889
0.0695492
0.0696191
0.0696991
0.0697894
0.0698906
0.0700028
0.0701263
0.0702614
0.0704084
0.0705671
0.0707378
0.0709202
0.0711143
0.0713196
0.0715358
0.0717623
0.0719984
0.0722433
0.072496
0.0727555
0.0730205
0.0732897
0.0735618
0.0738351
0.0741081
0.0743791
0.0746465
0.0749083
0.0751629
0.0754084
0.0756431
0.075865
0.0760725
0.0762636
0.0764373
0.0765892
0.0691676
0.0693479
0.0694495
0.0694911
0.0695125
0.0695372
0.0695604
0.0695854
0.0696123
0.0696397
0.0696726
0.0697125
0.0697605
0.0698173
0.0698834
0.0699591
0.0700448
0.0701409
0.0702476
0.0703653
0.0704942
0.0706345
0.0707863
0.0709496
0.0711244
0.0713106
0.0715078
0.0717157
0.0719337
0.0721613
0.0723977
0.0726421
0.0728933
0.0731504
0.0734119
0.0736768
0.0739433
0.0742102
0.0744756
0.0747381
0.0749959
0.0752472
0.0754903
0.0757234
0.0759447
0.0761525
0.076345
0.0765207
0.0766776
0.0768147
0.0769275
0.0697393
0.069778
0.0697972
0.0698192
0.0698407
0.0698631
0.0698882
0.0699135
0.0699441
0.0699812
0.0700261
0.0700795
0.0701418
0.0702134
0.0702945
0.0703856
0.070487
0.070599
0.0707217
0.0708555
0.0710004
0.0711564
0.0713237
0.071502
0.0716912
0.0718909
0.0721006
0.0723198
0.0725478
0.0727838
0.0730268
0.0732759
0.0735299
0.0737874
0.0740472
0.0743078
0.0745676
0.0748251
0.0750787
0.0753266
0.0755671
0.0757986
0.0760192
0.0762272
0.076421
0.0765989
0.0767591
0.0769004
0.0770207
0.0771192
0.0771907
0.0700954
0.0701147
0.070135
0.0701584
0.0701815
0.0702097
0.0702442
0.0702861
0.0703362
0.0703947
0.0704621
0.0705388
0.0706251
0.0707212
0.0708275
0.0709442
0.0710715
0.0712096
0.0713586
0.0715184
0.0716891
0.0718703
0.0720618
0.0722633
0.0724742
0.0726938
0.0729216
0.0731565
0.0733976
0.0736439
0.0738942
0.0741471
0.0744013
0.0746554
0.0749079
0.0751571
0.0754014
0.0756393
0.0758689
0.0760886
0.0762968
0.0764917
0.0766716
0.0768351
0.0769804
0.0771061
0.0772108
0.0772926
0.0773502
0.0773812
0.0704011
0.0704229
0.070444
0.0704697
0.0705016
0.0705406
0.0705873
0.0706422
0.0707056
0.0707779
0.0708594
0.0709503
0.0710511
0.0711619
0.0712829
0.0714144
0.0715564
0.0717089
0.071872
0.0720454
0.0722289
0.0724222
0.0726249
0.0728363
0.0730558
0.0732826
0.0735158
0.0737544
0.0739974
0.0742434
0.0744912
0.0747395
0.0749868
0.0752315
0.0754721
0.0757071
0.0759347
0.0761534
0.0763614
0.0765572
0.0767391
0.0769055
0.0770548
0.0771856
0.0772964
0.0773857
0.0774517
0.077494
0.0775125
0.0775023
0.0707009
0.0707243
0.0707537
0.0707898
0.0708333
0.0708846
0.0709441
0.0710121
0.0710889
0.0711748
0.0712701
0.0713751
0.07149
0.0716149
0.0717501
0.0718955
0.0720511
0.0722168
0.0723925
0.0725777
0.0727722
0.0729754
0.0731868
0.0734055
0.0736308
0.0738618
0.0740974
0.0743365
0.0745779
0.0748202
0.0750621
0.0753022
0.075539
0.0757709
0.0759963
0.0762137
0.0764214
0.0766178
0.0768014
0.0769705
0.0771236
0.0772593
0.077376
0.0774723
0.0775466
0.0775975
0.0776266
0.0776291
0.077607
0.0775527
0.0710006
0.0710339
0.0710742
0.071122
0.0711777
0.0712414
0.0713137
0.0713947
0.0714847
0.0715841
0.071693
0.0718116
0.07194
0.0720784
0.0722267
0.0723849
0.0725527
0.0727301
0.0729165
0.0731116
0.0733149
0.0735256
0.0737431
0.0739664
0.0741946
0.0744267
0.0746616
0.0748979
0.0751343
0.0753696
0.0756023
0.0758309
0.0760539
0.0762698
0.0764769
0.0766738
0.0768587
0.0770303
0.0771869
0.0773271
0.0774495
0.0775526
0.0776348
0.0776947
0.0777328
0.077747
0.0777366
0.0776988
0.0776324
0.0775368
0.0713102
0.0713547
0.0714066
0.0714663
0.0715341
0.0716103
0.0716952
0.0717891
0.0718921
0.0720045
0.0721264
0.0722579
0.0723991
0.0725498
0.0727101
0.0728796
0.0730581
0.0732452
0.0734405
0.0736432
0.0738529
0.0740686
0.0742894
0.0745145
0.0747427
0.0749728
0.0752038
0.0754341
0.0756626
0.0758877
0.076108
0.0763221
0.0765284
0.0767253
0.0769114
0.0770851
0.0772449
0.0773894
0.0775171
0.0776266
0.0777166
0.0777852
0.0778319
0.0778575
0.0778577
0.0778337
0.0777819
0.0777021
0.077598
0.0774616
0.071631
0.0716867
0.0717503
0.0718219
0.0719018
0.0719902
0.0720875
0.0721939
0.0723094
0.0724342
0.0725684
0.0727119
0.0728647
0.0730266
0.0731973
0.0733765
0.0735638
0.0737587
0.0739605
0.0741686
0.0743821
0.0746
0.0748215
0.0750455
0.0752707
0.075496
0.07572
0.0759414
0.0761588
0.0763709
0.076576
0.0767728
0.0769596
0.0771352
0.0772979
0.0774463
0.077579
0.0776946
0.0777917
0.0778688
0.0779245
0.0779599
0.0779718
0.0779601
0.0779224
0.0778572
0.077767
0.0776505
0.0775044
0.0773252
0.0719623
0.0720294
0.0721045
0.0721878
0.0722796
0.07238
0.0724893
0.0726076
0.072735
0.0728714
0.0730169
0.0731712
0.0733343
0.0735057
0.0736852
0.0738723
0.0740664
0.0742668
0.0744729
0.0746838
0.0748985
0.0751161
0.0753355
0.0755555
0.0757749
0.0759924
0.0762067
0.0764164
0.0766201
0.0768164
0.0770037
0.0771807
0.0773459
0.0774979
0.0776352
0.0777566
0.0778605
0.0779457
0.0780105
0.0780548
0.0780786
0.078078
0.078054
0.0780035
0.0779266
0.0778261
0.0776979
0.0775402
0.0773524
0.0771315
0.0723818
0.0724683
0.072563
0.0726663
0.0727783
0.072899
0.0730285
0.0731668
0.0733138
0.0734693
0.0736331
0.0738049
0.0739842
0.0741706
0.0743635
0.0745622
0.074766
0.0749739
0.0751851
0.0753985
0.0756131
0.0758277
0.0760411
0.076252
0.0764591
0.0766611
0.0768565
0.0770439
0.077222
0.0773893
0.0775445
0.077686
0.0778127
0.077923
0.0780158
0.0780894
0.0781428
0.0781769
0.0781882
0.078177
0.0781409
0.0780786
0.077992
0.0778807
0.0777412
0.0775729
0.0773748
0.0771469
0.0768848
0.0727431
0.0728405
0.0729463
0.0730606
0.0731834
0.0733148
0.0734546
0.0736027
0.073759
0.0739232
0.0740949
0.0742737
0.074459
0.0746503
0.0748469
0.075048
0.0752527
0.0754601
0.0756691
0.0758787
0.0760878
0.076295
0.0764993
0.0766992
0.0768934
0.0770806
0.0772594
0.0774284
0.0775863
0.0777317
0.0778632
0.0779795
0.0780794
0.0781613
0.0782239
0.0782673
0.0782909
0.0782909
0.0782688
0.0782216
0.0781486
0.078053
0.0779312
0.0777815
0.0776032
0.0773959
0.0771585
0.0768927
0.0765912
0.0731119
0.07322
0.0733362
0.0734608
0.0735936
0.0737345
0.0738835
0.0740402
0.0742044
0.0743756
0.0745535
0.0747375
0.0749269
0.0751211
0.0753193
0.0755205
0.0757238
0.0759283
0.0761328
0.0763361
0.0765372
0.0767347
0.0769274
0.077114
0.0772931
0.0774635
0.0776237
0.0777724
0.0779083
0.0780301
0.0781366
0.0782263
0.0782978
0.0783505
0.0783846
0.078397
0.0783877
0.0783548
0.0782971
0.0782154
0.0781106
0.0779788
0.0778196
0.0776323
0.077416
0.0771719
0.0768967
0.0765932
0.0762542
0.0736051
0.0737311
0.073865
0.0740067
0.0741561
0.0743129
0.0744768
0.0746473
0.074824
0.0750063
0.0751935
0.0753851
0.07558
0.0757775
0.0759766
0.0761764
0.0763756
0.0765732
0.0767681
0.0769589
0.0771445
0.0773236
0.0774948
0.0776568
0.0778084
0.0779483
0.0780751