/*--------------------------------*- C++ -*----------------------------------*\
| =========                 |                                                 |
| \\      /  F ield         | OpenFOAM: The Open Source CFD Toolbox           |
|  \\    /   O peration     | Version:  v1706                                 |
|   \\  /    A nd           | Web:      www.OpenFOAM.com                      |
|    \\/     M anipulation  |                                                 |
\*---------------------------------------------------------------------------*/
FoamFile
{
    version     2.0;
    format      ascii;
    class       volScalarField;
    location    "4e-06";
    object      Mach;
}
// * * * * * * * * * * * * * * * * * * * * * * * * * * * * * * * * * * * * * //

dimensions      [0 0 0 0 0 0 0];


internalField   nonuniform List<scalar> 
30038
(
11.2859
11.2859
11.2859
11.2859
11.2859
11.2859
11.2859
11.2859
11.2859
11.2859
11.2859
11.2859
11.2859
11.2859
11.2859
11.2859
11.2859
11.2859
11.2859
11.2859
11.2859
11.2859
11.2859
11.2859
11.2859
11.2859
11.2859
11.2859
11.2859
11.2859
11.2859
11.2859
11.2859
11.2859
11.2859
11.2859
11.2859
11.2859
11.2859
11.2859
11.2859
11.2859
11.2859
11.2859
11.2859
11.2859
11.2859
11.2859
11.2859
11.2859
11.2859
11.2859
11.2859
11.2859
11.2859
11.2859
11.2859
11.2859
11.2859
11.2859
11.2859
11.2859
11.2859
11.2859
11.2859
11.2859
11.2859
11.2859
11.2859
11.2859
11.2859
11.2859
11.2859
11.2859
11.2859
11.2859
11.2859
11.2859
11.2859
11.2859
11.2859
11.2859
11.2859
11.2859
11.2859
11.2859
11.2859
11.2859
11.2859
11.2859
11.2859
11.2859
11.2859
11.2859
11.2859
11.2859
11.2859
11.2859
11.2859
11.2859
11.2859
11.2859
11.2859
11.2859
11.2859
11.2859
11.2859
11.2859
11.2859
11.2859
11.2859
11.2859
11.2859
11.2859
11.2859
11.2859
11.2859
11.2859
11.2859
11.2859
11.2859
11.2859
11.2859
11.2859
11.2859
11.2859
11.2859
11.2859
11.2859
11.2859
11.2859
11.2859
11.2859
11.2859
11.2859
11.2859
11.2859
11.2859
11.2859
11.2859
11.2859
11.2859
11.2859
11.2859
11.2859
11.2859
11.2859
11.2859
11.2859
11.2859
11.2859
11.2859
11.2859
11.2859
11.2859
11.2859
11.2859
11.2859
11.2859
11.2859
11.2859
11.2859
11.2859
11.2859
11.2859
11.2859
11.2859
11.2859
11.2859
11.2859
11.2859
11.2859
11.2859
11.2859
11.2859
11.2859
11.2859
11.2859
11.2859
11.2859
11.2859
11.2859
11.2859
11.2859
11.2859
11.2859
11.2859
11.2859
11.2859
11.2859
11.2859
11.2859
11.2859
11.2859
11.2859
11.2859
11.2859
11.2859
11.2859
11.2859
11.2859
11.2859
11.2859
11.2859
11.2859
11.2859
11.2859
11.2859
11.2859
11.2859
11.2859
11.2859
11.2859
11.2859
11.2859
11.2859
11.2859
11.2859
11.2859
11.2859
11.2859
11.2859
11.2859
11.2859
11.2859
11.2859
11.2859
11.2859
11.2859
11.2859
11.2859
11.2859
11.2859
11.2859
11.2859
11.2859
11.2859
11.2859
11.2859
11.2859
11.2859
11.2859
11.2859
11.2859
11.2859
11.2859
11.2859
11.2859
11.2859
11.2859
11.2859
11.2859
11.2859
11.2859
11.2859
11.2859
11.2859
11.2859
11.2859
11.2859
11.2859
11.2859
11.2859
11.2859
11.2859
11.2859
11.2859
11.2859
11.2859
11.2859
11.2859
11.2859
11.2859
11.2859
11.2859
11.2859
11.2859
11.2859
11.2859
11.2859
11.2859
11.2859
11.2859
11.2859
11.2859
11.2859
11.2859
11.2859
11.2859
11.2859
11.2859
11.2859
11.2859
11.2859
11.2859
11.2859
11.2859
11.2859
11.2859
11.2859
11.2859
11.2859
11.2859
11.2859
11.2859
11.2859
11.2859
11.2859
11.2859
11.2859
11.2859
11.2859
11.2859
11.2859
11.2859
11.2859
11.2859
11.2859
11.2859
11.2859
11.2859
11.2859
11.2859
11.2859
11.2859
11.2859
11.2859
11.2859
11.2859
11.2859
11.2859
11.2859
11.2859
11.2859
11.2859
11.2859
11.2859
11.2859
11.2859
11.2859
11.2859
11.2859
11.2859
11.2859
11.2859
11.2859
11.2859
11.2859
11.2859
11.2859
11.2859
11.2859
11.2859
11.2859
11.2859
11.2859
11.2859
11.2859
11.2859
11.2859
11.2859
11.2859
11.2859
11.2859
11.2859
11.2859
11.2859
11.2859
11.2859
11.2859
11.2859
11.2859
11.2859
11.2859
11.2859
11.2859
11.2859
11.2859
11.2859
11.2859
11.2859
11.2859
11.2859
11.2859
11.2859
11.2859
11.2859
11.2859
11.2859
11.2859
11.2859
11.2859
11.2859
11.2859
11.2859
11.2859
11.2859
11.2859
11.2859
11.2859
11.2859
11.2859
11.2859
11.2859
11.2859
11.2859
11.2859
11.2859
11.2859
11.2859
11.2859
11.2859
11.2859
11.2859
11.2859
11.2859
11.2859
11.2859
11.2859
11.2859
11.2859
11.2859
11.2859
11.2859
11.2859
11.2859
11.2859
11.2859
11.2859
11.2859
11.2859
11.2859
11.2859
11.2859
11.2859
11.2859
11.2859
11.2859
11.2859
11.2859
11.2859
11.2859
11.2859
11.2859
11.2859
11.2859
11.2859
11.2859
11.2859
11.2859
11.2859
11.2859
11.2859
11.2859
11.2859
11.2859
11.2859
11.2859
11.2859
11.2859
11.2859
11.2859
11.2859
11.2859
11.2859
11.2859
11.2859
11.2859
11.2859
11.2859
11.2859
11.2859
11.2859
11.2859
11.2859
11.2859
11.2859
11.2859
11.2859
11.2859
11.2859
11.2859
11.2859
11.2859
11.2859
11.2859
11.2859
11.2859
11.2859
11.2859
11.2859
11.2859
11.2859
11.2859
11.2859
11.2859
11.2859
11.2859
11.2859
11.2859
11.2859
11.2859
11.2859
11.2859
11.2859
11.2859
11.2859
11.2859
11.2859
11.2859
11.2859
11.2859
11.2859
11.2859
11.2859
11.2859
11.2859
11.2859
11.2859
11.2859
11.2859
11.2859
11.2859
11.2859
11.2859
11.2859
11.2859
11.2859
11.2859
11.2859
11.2859
11.2859
11.2859
11.2859
11.2859
11.2859
11.2859
11.2859
11.2859
11.2859
11.2859
11.2859
11.2859
11.2859
11.2859
11.2859
11.2859
11.2859
11.2859
11.2859
11.2859
11.2859
11.2859
11.2859
11.2859
11.2859
11.2859
11.2859
11.2859
11.2859
11.2859
11.2859
11.2859
11.2859
11.2859
11.2859
11.2859
11.2859
11.2859
11.2859
11.2859
11.2859
11.2859
11.2859
11.2859
11.2859
11.2859
11.2859
11.2859
11.2859
11.2859
11.2859
11.2859
11.2859
11.2859
11.2859
11.2859
11.2859
11.2859
11.2859
11.2859
11.2859
11.2859
11.2859
11.2859
11.2859
11.2859
11.2859
11.2859
11.2859
11.2859
11.2859
11.2859
11.2859
11.2859
11.2859
11.2859
11.2859
11.2859
11.2859
11.2859
11.2859
11.2859
11.2859
11.2859
11.2859
11.2859
11.2859
11.2859
11.2859
11.2859
11.2859
11.2859
11.2859
11.2859
11.2859
11.2859
11.2859
11.2859
11.2859
11.2859
11.2859
11.2859
11.2859
11.2859
11.2859
11.2859
11.2859
11.2859
11.2859
11.2859
11.2859
11.2859
11.2859
11.2859
11.2859
11.2859
11.2859
11.2859
11.2859
11.2859
11.2859
11.2859
11.2859
11.2859
11.2859
11.2859
11.2859
11.2859
11.2858
11.2858
11.2859
11.2859
11.2859
11.2859
11.2859
11.2859
11.2859
11.2859
11.2859
11.2859
11.2859
11.2859
11.2859
11.2859
11.2859
11.2859
11.2859
11.2859
11.2859
11.2859
11.2859
11.2859
11.2859
11.2859
11.2859
11.2859
11.2859
11.2859
11.2859
11.2859
11.2859
11.2859
11.2859
11.2859
11.2859
11.2859
11.2858
11.2858
11.2858
11.2858
11.2859
11.2859
11.2859
11.2859
11.2859
11.2859
11.2859
11.2859
11.2859
11.2859
11.2859
11.2859
11.2859
11.2859
11.2859
11.2859
11.2859
11.2859
11.2859
11.2859
11.2859
11.2859
11.2859
11.2859
11.2859
11.2859
11.2859
11.2859
11.2859
11.2859
11.2859
11.2859
11.2859
11.2859
11.2858
11.2858
11.2858
11.2858
11.2858
11.2857
11.2855
11.2859
11.2859
11.2859
11.2859
11.2859
11.2859
11.2859
11.2859
11.2859
11.2859
11.2859
11.2859
11.2859
11.2859
11.2859
11.2859
11.2859
11.2859
11.2859
11.2859
11.2859
11.2859
11.2859
11.2859
11.2859
11.2859
11.2859
11.2859
11.2859
11.2859
11.2859
11.2858
11.2858
11.2858
11.2858
11.2858
11.2857
11.2856
11.2854
11.285
11.2843
11.2859
11.2859
11.2859
11.2859
11.2859
11.2859
11.2859
11.2859
11.2859
11.2859
11.2859
11.2859
11.2859
11.2859
11.2859
11.2859
11.2859
11.2859
11.2859
11.2859
11.2859
11.2859
11.2859
11.2859
11.2859
11.2859
11.2859
11.2859
11.2859
11.2859
11.2858
11.2858
11.2858
11.2858
11.2857
11.2856
11.2855
11.2852
11.2847
11.2838
11.2822
11.2791
11.2859
11.2859
11.2859
11.2859
11.2859
11.2859
11.2859
11.2859
11.2859
11.2859
11.2859
11.2859
11.2859
11.2859
11.2859
11.2859
11.2859
11.2859
11.2859
11.2859
11.2859
11.2859
11.2859
11.2859
11.2859
11.2859
11.2859
11.2859
11.2858
11.2858
11.2858
11.2858
11.2858
11.2857
11.2855
11.2853
11.2849
11.2842
11.2829
11.2807
11.2767
11.2696
11.2562
11.2859
11.2859
11.2859
11.2859
11.2859
11.2859
11.2859
11.2859
11.2859
11.2859
11.2859
11.2859
11.2859
11.2859
11.2859
11.2859
11.2859
11.2859
11.2859
11.2859
11.2859
11.2859
11.2859
11.2859
11.2859
11.2858
11.2858
11.2858
11.2858
11.2858
11.2857
11.2856
11.2854
11.2851
11.2845
11.2835
11.2817
11.2785
11.273
11.2633
11.2464
11.2162
11.1606
11.2859
11.2859
11.2859
11.2859
11.2859
11.2859
11.2859
11.2859
11.2859
11.2859
11.2859
11.2859
11.2859
11.2859
11.2859
11.2859
11.2859
11.2859
11.2859
11.2859
11.2859
11.2859
11.2859
11.2859
11.2858
11.2858
11.2858
11.2858
11.2857
11.2856
11.2855
11.2852
11.2847
11.2839
11.2825
11.28
11.2756
11.2679
11.2545
11.2312
11.1907
11.121
11.0013
10.7949
11.2859
11.2859
11.2859
11.2859
11.2859
11.2859
11.2859
11.2859
11.2859
11.2859
11.2859
11.2859
11.2859
11.2859
11.2859
11.2859
11.2859
11.2859
11.2859
11.2859
11.2859
11.2859
11.2858
11.2858
11.2858
11.2858
11.2858
11.2857
11.2856
11.2853
11.285
11.2843
11.2831
11.2811
11.2776
11.2716
11.261
11.2426
11.2107
11.1558
11.0626
10.9072
10.6574
10.2726
9.71436
11.2859
11.2859
11.2859
11.2859
11.2859
11.2859
11.2859
11.2859
11.2859
11.2859
11.2859
11.2859
11.2859
11.2859
11.2859
11.2859
11.2859
11.2859
11.2859
11.2859
11.2858
11.2858
11.2858
11.2858
11.2858
11.2857
11.2856
11.2854
11.2851
11.2846
11.2837
11.2821
11.2793
11.2745
11.2661
11.2517
11.2266
11.1835
11.11
10.9867
10.7855
10.4716
10.0123
9.39566
8.64168
7.8082
11.2859
11.2859
11.2859
11.2859
11.2859
11.2859
11.2859
11.2859
11.2859
11.2859
11.2859
11.2859
11.2859
11.2859
11.2859
11.2859
11.2859
11.2859
11.2859
11.2859
11.2858
11.2858
11.2858
11.2858
11.2857
11.2857
11.2855
11.2853
11.2848
11.2841
11.2828
11.2806
11.2768
11.2702
11.2589
11.2393
11.2055
11.1478
11.0506
10.89
10.6344
10.2489
9.71005
9.02471
8.23883
7.42359
6.63825
5.92524
11.2859
11.2859
11.2859
11.2859
11.2859
11.2859
11.2859
11.2859
11.2859
11.2859
11.2859
11.2859
11.2859
11.2859
11.2859
11.2859
11.2859
11.2858
11.2858
11.2858
11.2858
11.2858
11.2857
11.2856
11.2854
11.285
11.2844
11.2834
11.2817
11.2787
11.2735
11.2646
11.2493
11.2229
11.1778
11.1016
10.9746
10.7692
10.4514
9.99041
9.37657
8.63672
7.83196
7.03283
6.29294
5.64083
5.07824
4.60256
11.2859
11.2859
11.2859
11.2859
11.2859
11.2859
11.2859
11.2859
11.2859
11.2859
11.2859
11.2859
11.2859
11.2859
11.2859
11.2859
11.2858
11.2858
11.2858
11.2858
11.2858
11.2857
11.2856
11.2855
11.2852
11.2847
11.2839
11.2825
11.2802
11.2761
11.2691
11.2571
11.2366
11.2015
11.142
11.0423
10.8792
10.6213
10.2353
9.6991
9.02024
8.24377
7.43806
6.66667
5.97032
5.3651
4.85192
4.42474
4.06825
3.77954
11.2859
11.2859
11.2859
11.2859
11.2859
11.2859
11.2859
11.2859
11.2859
11.2859
11.2859
11.2859
11.2859
11.2859
11.2858
11.2858
11.2858
11.2858
11.2857
11.2857
11.2855
11.2853
11.2849
11.2843
11.2832
11.2813
11.2781
11.2727
11.2633
11.2473
11.22
11.1738
11.096
10.9676
10.7612
10.4441
9.98681
9.38023
8.65034
7.85557
7.06406
6.32848
5.67687
5.11643
4.6444
4.25143
3.92668
3.67443
3.49572
3.37711
11.2859
11.2859
11.2859
11.2859
11.2859
11.2859
11.2859
11.2859
11.2859
11.2859
11.2859
11.2858
11.2858
11.2858
11.2858
11.2858
11.2857
11.2856
11.2854
11.2851
11.2846
11.2837
11.2823
11.2797
11.2754
11.2681
11.2557
11.2345
11.1986
11.1382
11.0378
10.8746
10.6183
10.2367
9.70862
9.04091
8.27623
7.47988
6.71386
6.01853
5.41113
4.89263
4.45766
4.09529
3.79851
3.57247
3.41609
3.31703
3.25793
3.22275
11.2859
11.2859
11.2859
11.2859
11.2859
11.2859
11.2859
11.2859
11.2858
11.2858
11.2858
11.2858
11.2858
11.2857
11.2856
11.2855
11.2853
11.2848
11.2842
11.283
11.281
11.2776
11.2719
11.2622
11.2458
11.218
11.1712
11.0932
10.9651
10.7608
10.4485
9.99981
9.40542
8.68923
7.90631
7.12225
6.38925
5.73585
5.17082
4.69098
4.28933
3.95461
3.68357
3.48134
3.34445
3.2593
3.20888
3.18159
3.16552
3.14965
11.2859
11.2859
11.2859
11.2859
11.2859
11.2858
11.2858
11.2858
11.2858
11.2858
11.2858
11.2857
11.2856
11.2854
11.285
11.2845
11.2836
11.282
11.2794
11.2749
11.2674
11.2546
11.2331
11.1969
11.1364
11.0367
10.8755
10.6241
10.2511
9.73579
9.08341
8.33332
7.54739
6.78614
6.09048
5.47877
4.9535
4.50895
4.13716
3.82766
3.58037
3.39962
3.27974
3.2062
3.16333
3.14114
3.12595
3.11263
3.10522
3.101
11.2859
11.2859
11.2859
11.2858
11.2858
11.2858
11.2858
11.2858
11.2857
11.2856
11.2855
11.2852
11.2848
11.284
11.2828
11.2807
11.2772
11.2713
11.2614
11.2448
11.2168
11.17
11.0927
10.9667
10.7668
10.4627
10.0267
9.44873
8.74961
7.98056
7.20445
6.47324
5.81678
5.24525
4.7568
4.34423
3.99926
3.71293
3.48752
3.32602
3.22085
3.15709
3.12083
3.10237
3.0878
3.0764
3.07027
3.0674
3.06552
3.06219
11.2858
11.2858
11.2858
11.2858
11.2858
11.2857
11.2857
11.2855
11.2853
11.285
11.2844
11.2834
11.2818
11.279
11.2744
11.2667
11.2538
11.2322
11.1961
11.1363
11.0383
10.8811
10.6371
10.2762
9.77743
9.14399
8.41115
7.63707
6.88073
6.18393
5.56674
5.03314
4.57847
4.1948
3.87401
3.60908
3.40372
3.25937
3.16688
3.1114
3.0809
3.06502
3.05113
3.04148
3.03659
3.03433
3.03247
3.02967
3.02609
3.02167
11.2858
11.2858
11.2858
11.2857
11.2856
11.2854
11.2851
11.2847
11.2839
11.2826
11.2804
11.2768
11.2708
11.2608
11.2441
11.2162
11.17
11.0942
10.9715
10.7781
10.4848
10.0648
9.50666
8.82768
8.07461
7.30745
6.57795
5.91765
5.3386
4.84033
4.41646
4.05887
3.76002
3.51489
3.32785
3.19869
3.11705
3.0687
3.04313
3.02892
3.01593
3.00778
3.00398
3.00213
3.00023
2.99745
2.99411
2.99026
2.98543
2.97907
11.2857
11.2856
11.2855
11.2853
11.2849
11.2843
11.2832
11.2815
11.2787
11.274
11.2662
11.2532
11.2317
11.1961
11.1375
11.0422
10.8904
10.6557
10.3094
9.83037
9.21899
8.50605
7.74553
6.99482
6.29666
5.6733
5.13051
4.66483
4.26894
3.93492
3.65608
3.42931
3.25891
3.14312
3.07077
3.0286
3.00714
2.99401
2.98207
2.97522
2.97226
2.97077
2.96883
2.96606
2.96291
2.95915
2.95449
2.9488
2.94197
2.93339
11.2854
11.2851
11.2846
11.2838
11.2824
11.2802
11.2765
11.2704
11.2603
11.2437
11.2161
11.1709
11.0972
10.9788
10.7932
10.5127
10.1112
9.57569
8.91967
8.18492
7.42819
6.70096
6.03659
5.44942
4.94061
4.5048
4.13429
3.82163
3.56116
3.35134
3.19599
3.09191
3.02755
2.99079
2.97263
2.96025
2.94943
2.9437
2.9414
2.94022
2.93819
2.93549
2.93251
2.92885
2.92434
2.91884
2.91225
2.90446
2.89541
2.88451
11.2842
11.2831
11.2813
11.2784
11.2737
11.2658
11.2529
11.2316
11.1966
11.1397
11.0477
10.9022
10.6782
10.3484
9.89127
9.30456
8.61411
7.86932
7.12558
6.42657
5.79684
5.24439
4.76714
4.35861
4.01112
3.71786
3.47432
3.28012
3.1383
3.04445
2.98699
2.95497
2.93938
2.92756
2.91791
2.91316
2.91141
2.91033
2.90832
2.90572
2.90289
2.89935
2.895
2.88968
2.88331
2.8758
2.86709
2.85709
2.84576
2.8325
11.2799
11.2762
11.27
11.26
11.2434
11.2164
11.1724
11.1012
10.9877
10.8107
10.5442
10.1628
9.65206
9.02144
8.30749
7.56322
6.83953
6.17158
5.5762
5.05656
4.60843
4.22477
3.89819
3.62264
3.39473
3.21488
3.08516
3.00024
2.94877
2.92089
2.90724
2.89592
2.88742
2.8836
2.88219
2.88112
2.87919
2.87673
2.87404
2.87063
2.86643
2.86131
2.85516
2.84792
2.83952
2.8299
2.81901
2.80676
2.79312
2.7775
11.2654
11.2526
11.2316
11.1975
11.1424
11.0542
10.9154
10.7029
10.3905
9.95679
9.39668
8.73107
8.00439
7.26958
6.57093
5.93534
5.37325
4.88432
4.46294
4.10195
3.79441
3.5351
3.32165
3.15492
3.03599
2.95884
2.9126
2.88831
2.8761
2.86533
2.85788
2.85486
2.8537
2.85263
2.8508
2.8485
2.84592
2.84265
2.83862
2.8337
2.82779
2.82082
2.81274
2.80349
2.793
2.78122
2.76811
2.7536
2.73769
2.71978
11.2169
11.1741
11.1057
10.9973
10.8294
10.5775
10.2169
9.73225
9.12892
8.43809
7.70863
6.99034
6.31995
5.71688
5.18655
4.72614
4.3293
3.98898
3.69883
3.45444
3.25439
3.09964
2.99031
2.91993
2.87826
2.85704
2.8459
2.83573
2.82922
2.82686
2.82589
2.82486
2.82312
2.82097
2.8185
2.81539
2.81154
2.80682
2.80115
2.79447
2.78671
2.77782
2.76774
2.75642
2.74381
2.72986
2.71457
2.69785
2.67975
2.65968
11.061
10.9292
10.7283
10.4337
10.024
9.49174
8.8529
8.14671
7.42313
6.7266
6.08623
5.51505
5.01466
4.58062
4.20626
3.88483
3.6106
3.37999
3.19233
3.04849
2.94768
2.88321
2.84555
2.82691
2.81661
2.80706
2.80138
2.79953
2.79875
2.79777
2.79611
2.79411
2.79177
2.78881
2.78514
2.78064
2.77522
2.76883
2.7614
2.75288
2.74321
2.73234
2.72022
2.70682
2.69211
2.67605
2.65864
2.63984
2.6197
2.59765
10.8482
10.6108
10.2713
9.81319
9.23842
8.57277
7.86058
7.14994
6.47879
5.86906
5.3286
4.85623
4.4465
4.09274
3.78858
3.52898
3.31112
3.1349
3.00097
2.90773
2.84844
2.8143
2.79784
2.78819
2.77928
2.77434
2.77285
2.77227
2.77133
2.76975
2.76791
2.76569
2.7629
2.75942
2.75513
2.74997
2.74386
2.73677
2.72862
2.71936
2.70895
2.69733
2.68447
2.67034
2.6549
2.63816
2.62008
2.6007
2.57996
2.55797
2.53417
10.0903
9.58645
8.97586
8.29241
7.58258
6.89039
6.24683
5.66753
5.15628
4.70998
4.32265
3.98776
3.69945
3.45332
3.24726
3.08161
2.95667
2.87015
2.81542
2.78436
2.76971
2.7606
2.75231
2.74802
2.7468
2.74641
2.74551
2.74404
2.74234
2.74026
2.73763
2.73433
2.73026
2.72536
2.71955
2.71279
2.70501
2.69617
2.68621
2.67509
2.66277
2.64922
2.6344
2.61831
2.60093
2.58227
2.56233
2.54114
2.51868
2.49507
2.46977
9.34641
8.70769
8.01523
7.31486
6.64512
6.03024
5.4806
4.99689
4.57477
4.20803
3.89046
3.61672
3.38304
3.18793
3.03201
2.91523
2.83469
2.78395
2.75559
2.74244
2.73382
2.72612
2.72237
2.72137
2.72114
2.7203
2.71894
2.71738
2.71544
2.71297
2.70986
2.70602
2.70137
2.69586
2.68943
2.68202
2.67359
2.66409
2.65347
2.64169
2.62871
2.61451
2.59907
2.58238
2.56444
2.54525
2.52483
2.50321
2.48043
2.45648
2.4315
2.40496
7.74406
7.05888
6.41427
5.82834
5.30719
4.84929
4.44953
4.10175
3.80011
3.53979
3.31763
3.13268
2.98571
2.87632
2.8011
2.75389
2.72788
2.71598
2.7078
2.70064
2.69737
2.69656
2.69644
2.69568
2.69443
2.69302
2.69121
2.68891
2.68599
2.68237
2.67797
2.67276
2.66666
2.65963
2.65161
2.64256
2.63243
2.62118
2.60878
2.59519
2.5804
2.5644
2.54717
2.52872
2.50908
2.48825
2.46628
2.44319
2.41905
2.39385
2.36775
2.34024
6.19759
5.64025
5.14621
4.71241
4.33333
4.003
3.71603
3.46811
3.25662
3.08111
2.94237
2.83967
2.76922
2.7251
2.70113
2.69028
2.68251
2.67585
2.67297
2.67232
2.67228
2.67164
2.6705
2.66922
2.66756
2.66542
2.6627
2.65929
2.65516
2.65023
2.64446
2.63779
2.63018
2.62158
2.61194
2.60122
2.58939
2.57641
2.56226
2.54693
2.53042
2.51271
2.49383
2.47379
2.45262
2.43036
2.40705
2.38272
2.35747
2.33127
2.3043
2.27608
4.9966
4.58525
4.2253
3.91107
3.63763
3.40118
3.19962
3.03285
2.90167
2.80504
2.73885
2.69747
2.67527
2.6653
2.6579
2.6517
2.64915
2.64864
2.64867
2.64814
2.64713
2.64598
2.64446
2.64249
2.63995
2.63677
2.63289
2.62825
2.6228
2.6165
2.60929
2.60113
2.59198
2.58178
2.57051
2.55813
2.54462
2.52996
2.51414
2.49717
2.47905
2.45979
2.43942
2.41797
2.39549
2.372
2.34757
2.32225
2.29612
2.26916
2.24158
2.21289
4.12465
3.82532
3.5644
3.3386
3.14626
2.9876
2.86335
2.7722
2.70986
2.6709
2.65022
2.64099
2.63396
2.62816
2.62589
2.62549
2.62559
2.62519
2.62429
2.62327
2.62189
2.62008
2.61773
2.61477
2.61114
2.60679
2.60167
2.59572
2.58891
2.58119
2.5725
2.56282
2.5521
2.54031
2.52743
2.51344
2.49832
2.48207
2.4647
2.44622
2.42664
2.40601
2.38434
2.36168
2.33808
2.3136
2.28829
2.2622
2.23542
2.20795
2.17999
2.15105
3.49586
3.27996
3.09623
2.94508
2.82718
2.74098
2.68213
2.64533
2.62594
2.61734
2.61066
2.6052
2.60316
2.60287
2.60303
2.60274
2.60197
2.60107
2.59983
2.59818
2.59603
2.59328
2.5899
2.58583
2.58103
2.57543
2.56901
2.56171
2.5535
2.54432
2.53414
2.52294
2.51068
2.49734
2.4829
2.46737
2.45075
2.43303
2.41425
2.39441
2.37356
2.35173
2.32896
2.3053
2.28081
2.25555
2.22958
2.20295
2.17575
2.14798
2.11984
2.09087
3.04922
2.90505
2.79297
2.71124
2.65552
2.62067
2.60236
2.5943
2.58796
2.58281
2.58094
2.58074
2.58095
2.58079
2.58014
2.57936
2.57826
2.57678
2.5748
2.57228
2.56914
2.56535
2.56085
2.55561
2.54957
2.54269
2.53493
2.52625
2.51661
2.50598
2.49432
2.48163
2.46787
2.45305
2.43716
2.4202
2.40219
2.38316
2.36311
2.3421
2.32015
2.29732
2.27366
2.24922
2.22405
2.19823
2.17181
2.14485
2.11744
2.08956
2.06144
2.03261
2.68285
2.62993
2.59684
2.57946
2.57185
2.56585
2.56096
2.55921
2.55911
2.55936
2.55933
2.5588
2.55813
2.55717
2.55584
2.55405
2.55173
2.54884
2.54532
2.54113
2.53622
2.53056
2.5241
2.51679
2.50859
2.49947
2.4894
2.47834
2.46628
2.45319
2.43906
2.42389
2.40769
2.39045
2.3722
2.35296
2.33276
2.31164
2.28963
2.26679
2.24316
2.2188
2.19378
2.16814
2.14195
2.11529
2.08819
2.06074
2.03295
2.00502
1.97652
2.57377
2.55719
2.54996
2.54428
2.53963
2.53796
2.53794
2.53823
2.53833
2.53791
2.53736
2.53653
2.53536
2.53375
2.53164
2.52898
2.52572
2.52183
2.51726
2.51196
2.5059
2.49903
2.49131
2.48271
2.47318
2.46271
2.45127
2.43883
2.42539
2.41093
2.39546
2.37899
2.36152
2.34307
2.32368
2.30337
2.28218
2.26015
2.23734
2.21379
2.18956
2.16471
2.1393
2.11338
2.08702
2.06028
2.03322
2.00592
1.97838
1.95083
1.92282
2.52859
2.52323
2.5188
2.51717
2.51726
2.51755
2.51779
2.51748
2.51704
2.51634
2.51532
2.51388
2.51197
2.50954
2.50654
2.50294
2.49869
2.49375
2.48808
2.48164
2.47439
2.46628
2.4573
2.4474
2.43656
2.42477
2.412
2.39824
2.3835
2.36778
2.35108
2.33342
2.31482
2.29532
2.27494
2.25373
2.23173
2.20898
2.18555
2.16148
2.13684
2.11168
2.08605
2.06003
2.03367
2.00703
1.98017
1.95319
1.92608
1.89903
1.87164
2.49685
2.49697
2.49732
2.49769
2.49749
2.49715
2.49658
2.4957
2.49443
2.49272
2.49051
2.48776
2.48444
2.48051
2.47592
2.47063
2.4646
2.4578
2.45019
2.44173
2.43239
2.42215
2.41098
2.39887
2.3858
2.37177
2.35679
2.34084
2.32396
2.30615
2.28745
2.26788
2.24748
2.22628
2.20434
2.1817
2.15842
2.13454
2.11014
2.08525
2.05995
2.03428
2.00832
1.98212
1.95575
1.92927
1.90274
1.87616
1.84974
1.82318
2.47752
2.47802
2.47792
2.47768
2.47724
2.4765
2.47539
2.47386
2.47187
2.46937
2.46632
2.46269
2.45843
2.45352
2.44789
2.44153
2.43439
2.42644
2.41765
2.40799
2.39743
2.38597
2.37358
2.36025
2.34599
2.33079
2.31468
2.29765
2.27974
2.26096
2.24136
2.22097
2.19983
2.17798
2.15548
2.13238
2.10873
2.08458
2.06
2.03503
2.00975
1.9842
1.95845
1.93257
1.90661
1.88062
1.85465
1.82877
1.80328
1.77757
2.45876
2.45861
2.45829
2.45769
2.45674
2.4554
2.45361
2.45135
2.44856
2.44522
2.44129
2.43673
2.4315
2.42556
2.41888
2.41143
2.40317
2.39407
2.38412
2.37328
2.36155
2.34891
2.33536
2.3209
2.30554
2.28928
2.27215
2.25417
2.23536
2.21577
2.19542
2.17437
2.15265
2.13031
2.10742
2.08401
2.06015
2.03589
2.01128
1.98639
1.96127
1.93599
1.91061
1.88517
1.85973
1.83432
1.80919
1.78418
1.75945
1.73458
2.43975
2.43927
2.43847
2.4373
2.43572
2.43368
2.43115
2.42809
2.42447
2.42026
2.4154
2.40988
2.40364
2.39667
2.38892
2.38038
2.371
2.36078
2.34969
2.33773
2.32488
2.31114
2.29652
2.28102
2.26466
2.24746
2.22944
2.21064
2.19108
2.17081
2.14987
2.12831
2.10617
2.08351
2.06037
2.03681
2.01289
1.98865
1.96417
1.93949
1.9147
1.88981
1.8649
1.83999
1.81526
1.79074
1.76635
1.74209
1.71821
1.6943
2.42058
2.41957
2.41818
2.41636
2.41407
2.41128
2.40797
2.40408
2.39959
2.39446
2.38866
2.38215
2.3749
2.36689
2.35808
2.34845
2.33799
2.32669
2.31452
2.30149
2.28759
2.27284
2.25724
2.24082
2.22358
2.20556
2.18679
2.1673
2.14714
2.12634
2.10496
2.08304
2.06062
2.03777
2.01453
1.99096
1.96712
1.94305
1.91884
1.89452
1.87014
1.84574
1.82142
1.79733
1.77337
1.74956
1.72597
1.70259
1.67967
1.65682
2.40098
2.39937
2.39731
2.39479
2.39176
2.38819
2.38405
2.3793
2.37391
2.36785
2.36108
2.35358
2.34532
2.33628
2.32643
2.31576
2.30426
2.29193
2.27875
2.26473
2.24988
2.23421
2.21774
2.2005
2.18251
2.1638
2.14441
2.12438
2.10375
2.08257
2.06088
2.03874
2.01619
1.99329
1.97008
1.94664
1.92301
1.89926
1.87541
1.85153
1.82765
1.80397
1.78045
1.75704
1.73383
1.71083
1.68814
1.66574
1.64388
1.62217
2.38086
2.37859
2.37583
2.37257
2.36877
2.36438
2.3594
2.35377
2.34746
2.34046
2.33273
2.32425
2.31499
2.30495
2.2941
2.28243
2.26995
2.25665
2.24254
2.22762
2.21192
2.19544
2.17822
2.16028
2.14166
2.12239
2.10252
2.08208
2.06112
2.03969
2.01783
1.9956
1.97304
1.95021
1.92718
1.90399
1.88069
1.85733
1.83394
1.81066
1.78756
1.76456
1.74172
1.71909
1.69671
1.67463
1.65293
1.6316
1.61085
1.59031
2.35722
2.35373
2.3497
2.3451
2.33988
2.33402
2.3275
2.32028
2.31234
2.30366
2.29422
2.284
2.273
2.2612
2.2486
2.23521
2.22103
2.20607
2.19036
2.1739
2.15673
2.13887
2.12036
2.10123
2.08153
2.0613
2.04058
2.01942
1.99786
1.97596
1.95376
1.93132
1.90871
1.88596
1.86312
1.84023
1.81735
1.79466
1.77209
1.74963
1.72736
1.7053
1.68352
1.66207
1.64099
1.62036
1.60012
1.58057
1.5612
2.33524
2.331
2.32619
2.32076
2.3147
2.30797
2.30056
2.29243
2.28357
2.27397
2.2636
2.25247
2.24056
2.22787
2.21442
2.2002
2.18522
2.16952
2.15311
2.13601
2.11825
2.09988
2.08092
2.06141
2.0414
2.02094
2.00006
1.97881
1.95724
1.93541
1.91337
1.89118
1.86887
1.84649
1.82406
1.80176
1.7796
1.75753
1.73561
1.71389
1.69242
1.67123
1.65039
1.62995
1.60992
1.59039
1.57128
1.55302
1.53489
2.31267
2.30766
2.30204
2.29579
2.28888
2.28129
2.27299
2.26398
2.25424
2.24375
2.23251
2.22051
2.20776
2.19427
2.18003
2.16507
2.1494
2.13305
2.11605
2.09842
2.08019
2.06142
2.04212
2.02236
2.00216
1.98157
1.96064
1.93942
1.91797
1.89633
1.87456
1.85268
1.83075
1.80883
1.78707
1.7654
1.74384
1.72247
1.70129
1.68039
1.65978
1.63954
1.6197
1.60032
1.58135
1.56305
1.54511
1.5281
1.51126
2.28372
2.2773
2.27022
2.26248
2.25404
2.2449
2.23503
2.22444
2.21312
2.20106
2.18827
2.17476
2.16053
2.1456
2.12999
2.11373
2.09684
2.07935
2.0613
2.04272
2.02365
2.00413
1.98421
1.96392
1.94333
1.92246
1.90139
1.88016
1.8588
1.83736
1.81586
1.79449
1.77322
1.75204
1.731
1.71014
1.68951
1.66916
1.64913
1.62947
1.61023
1.59142
1.57314
1.55534
1.53821
1.5215
1.50576
1.49025
2.25923
2.25201
2.24413
2.23556
2.22631
2.21635
2.20568
2.1943
2.1822
2.16939
2.15588
2.14168
2.12681
2.11128
2.09512
2.07836
2.06103
2.04316
2.02479
2.00596
1.98671
1.96707
1.9471
1.92683
1.90633
1.88565
1.86481
1.84387
1.82285
1.80185
1.78098
1.76017
1.73947
1.71894
1.6986
1.6785
1.65869
1.63923
1.62014
1.60147
1.58324
1.56554
1.5484
1.53175
1.51585
1.50037
1.48594
1.47175
2.22624
2.21757
2.20822
2.19819
2.18746
2.17604
2.16392
2.15111
2.13763
2.12348
2.10867
2.09324
2.07721
2.06059
2.04344
2.02577
2.00762
1.98904
1.97006
1.95071
1.93106
1.91114
1.891
1.8707
1.85026
1.82973
1.80913
1.78865
1.76823
1.74788
1.72767
1.70763
1.6878
1.66822
1.64895
1.63002
1.61149
1.59337
1.57572
1.5586
1.54199
1.52601
1.51054
1.49589
1.48166
1.46855
1.45569
2.20006
2.19064
2.18055
2.16978
2.15834
2.14622
2.13343
2.11999
2.1059
2.09119
2.07587
2.05997
2.04353
2.02655
2.0091
1.99118
1.97286
1.95415
1.93511
1.91578
1.8962
1.87644
1.85651
1.83647
1.81634
1.79621
1.77619
1.7562
1.73632
1.71658
1.69703
1.6777
1.65863
1.63987
1.62148
1.60348
1.58589
1.56881
1.55222
1.5362
1.52071
1.50591
1.49163
1.47825
1.46527
1.45349
1.44195
2.16342
2.15263
2.14119
2.12909
2.11634
2.10295
2.08895
2.07434
2.05915
2.04341
2.02713
2.01036
1.99312
1.97545
1.95739
1.93897
1.92023
1.90123
1.882
1.8626
1.84306
1.8234
1.80367
1.78402
1.76442
1.74488
1.72545
1.70618
1.6871
1.66825
1.64968
1.63143
1.61355
1.59606
1.579
1.56245
1.5464
1.53088
1.51598
1.50163
1.48804
1.47494
1.46285
1.4511
1.44066
1.43042
2.13601
2.12458
2.11251
2.09982
2.08651
2.0726
2.05811
2.04307
2.02748
2.0114
1.99483
1.97782
1.9604
1.94261
1.92448
1.90605
1.88738
1.86851
1.84947
1.8303
1.81101
1.79173
1.77252
1.75333
1.73422
1.71523
1.69642
1.67781
1.65943
1.64134
1.62358
1.60619
1.5892
1.57266
1.55661
1.54106
1.52608
1.51164
1.49789
1.48466
1.47231
1.46037
1.44958
1.43904
1.42994
1.42098
2.1085
2.09649
2.08386
2.07065
2.05685
2.04249
2.0276
2.01219
1.9963
1.97995
1.96318
1.94601
1.92849
1.91066
1.89255
1.87421
1.85568
1.837
1.81819
1.79929
1.78046
1.76165
1.74287
1.72419
1.70564
1.68728
1.66911
1.6512
1.63358
1.61629
1.59938
1.58287
1.56682
1.55125
1.5362
1.52168
1.50778
1.49443
1.48184
1.46973
1.45862
1.44783
1.43835
1.42898
1.42121
1.4135
2.081
2.06846
2.05535
2.04167
2.02746
2.01273
1.99751
1.98182
1.96569
1.94916
1.93226
1.91501
1.89748
1.87968
1.86168
1.8435
1.82517
1.80672
1.78824
1.76981
1.75138
1.73301
1.71475
1.69664
1.6787
1.66098
1.64351
1.62635
1.60952
1.59307
1.57702
1.56145
1.54635
1.53175
1.51773
1.50425
1.49144
1.47917
1.46775
1.45674
1.44688
1.43721
1.42902
1.42081
1.41434
1.40784
2.0536
2.0406
2.02706
2.013
1.99844
1.98341
1.96793
1.95204
1.93575
1.91911
1.90215
1.88492
1.86744
1.84977
1.83192
1.81394
1.79585
1.7778
1.75974
1.7417
1.72374
1.70589
1.68819
1.67068
1.65338
1.63635
1.61962
1.60324
1.58723
1.57163
1.55651
1.54185
1.52771
1.51411
1.50112
1.48867
1.47697
1.46577
1.45552
1.4456
1.43697
1.4284
1.42148
1.41441
1.4092
1.40388
2.02639
2.01299
1.9991
1.98472
1.96989
1.95463
1.93896
1.92293
1.90656
1.88989
1.87295
1.85579
1.83844
1.82094
1.80329
1.7856
1.76792
1.75023
1.73258
1.71501
1.69756
1.68027
1.66316
1.64628
1.62967
1.61337
1.59742
1.58183
1.56667
1.55197
1.53774
1.52402
1.51086
1.49826
1.4863
1.47489
1.46429
1.45414
1.44505
1.43621
1.42878
1.42131
1.4156
1.40965
1.40564
1.40146
1.99946
1.98573
1.97154
1.95692
1.94188
1.92645
1.91067
1.89457
1.87818
1.86155
1.84471
1.82768
1.81051
1.7932
1.7759
1.75858
1.74125
1.72398
1.70679
1.68974
1.67284
1.65613
1.63966
1.62346
1.60756
1.59202
1.57684
1.5621
1.54781
1.53399
1.52068
1.50791
1.49573
1.48411
1.47319
1.46281
1.4533
1.4442
1.43625
1.42847
1.4222
1.41582
1.41126
1.40641
1.40353
1.40045
1.9589
1.94448
1.92967
1.91448
1.89896
1.88313
1.86703
1.8507
1.83416
1.81746
1.8006
1.78366
1.76672
1.74975
1.73278
1.71588
1.69907
1.68239
1.66588
1.64956
1.63348
1.61767
1.60217
1.58702
1.57224
1.5579
1.54399
1.53056
1.51764
1.50526
1.49344
1.48224
1.47161
1.46171
1.45236
1.44391
1.43585
1.429
1.42228
1.41711
1.41179
1.40834
1.40455
1.40274
1.40072
1.93256
1.91797
1.90303
1.88777
1.87221
1.8564
1.84037
1.82414
1.80775
1.79121
1.77464
1.75804
1.7414
1.7248
1.70825
1.69181
1.67551
1.65936
1.64342
1.62772
1.61229
1.59717
1.5824
1.568
1.55403
1.5405
1.52744
1.51489
1.50287
1.49142
1.48054
1.47031
1.46067
1.45178
1.44343
1.43602
1.42899
1.42319
1.41751
1.4134
1.40912
1.4067
1.40395
1.40314
1.40211
1.90678
1.89208
1.87708
1.8618
1.84627
1.83053
1.81461
1.79852
1.78232
1.7661
1.74982
1.73353
1.71727
1.70108
1.68499
1.66905
1.65327
1.63769
1.62235
1.60729
1.59254
1.57812
1.5641
1.55049
1.53731
1.52461
1.5124
1.50073
1.48961
1.47908
1.46915
1.45988
1.4512
1.44331
1.43594
1.42954
1.42352
1.41873
1.41407
1.41095
1.40769
1.40623
1.40447
1.40459
1.4045
1.86687
1.85186
1.83662
1.82117
1.80555
1.78976
1.77391
1.758
1.74205
1.72609
1.71018
1.69433
1.67859
1.663
1.64756
1.63234
1.61735
1.60264
1.58824
1.57418
1.56051
1.54724
1.5344
1.52204