/*--------------------------------*- C++ -*----------------------------------*\
| =========                 |                                                 |
| \\      /  F ield         | OpenFOAM: The Open Source CFD Toolbox           |
|  \\    /   O peration     | Version:  v1706                                 |
|   \\  /    A nd           | Web:      www.OpenFOAM.com                      |
|    \\/     M anipulation  |                                                 |
\*---------------------------------------------------------------------------*/
FoamFile
{
    version     2.0;
    format      ascii;
    class       volScalarField;
    location    "4e-06";
    object      mu;
}
// * * * * * * * * * * * * * * * * * * * * * * * * * * * * * * * * * * * * * //

dimensions      [1 -1 -1 0 0 0 0];


internalField   nonuniform List<scalar> 
30038
(
1.0351e-05
1.0351e-05
1.0351e-05
1.0351e-05
1.0351e-05
1.0351e-05
1.0351e-05
1.0351e-05
1.0351e-05
1.0351e-05
1.0351e-05
1.0351e-05
1.0351e-05
1.0351e-05
1.0351e-05
1.0351e-05
1.0351e-05
1.0351e-05
1.0351e-05
1.0351e-05
1.0351e-05
1.0351e-05
1.0351e-05
1.0351e-05
1.0351e-05
1.0351e-05
1.0351e-05
1.0351e-05
1.0351e-05
1.0351e-05
1.0351e-05
1.0351e-05
1.0351e-05
1.0351e-05
1.0351e-05
1.0351e-05
1.0351e-05
1.0351e-05
1.0351e-05
1.0351e-05
1.0351e-05
1.0351e-05
1.0351e-05
1.0351e-05
1.0351e-05
1.0351e-05
1.0351e-05
1.0351e-05
1.0351e-05
1.0351e-05
1.0351e-05
1.0351e-05
1.0351e-05
1.0351e-05
1.0351e-05
1.0351e-05
1.0351e-05
1.0351e-05
1.0351e-05
1.0351e-05
1.0351e-05
1.0351e-05
1.0351e-05
1.0351e-05
1.0351e-05
1.0351e-05
1.0351e-05
1.0351e-05
1.0351e-05
1.0351e-05
1.0351e-05
1.0351e-05
1.0351e-05
1.0351e-05
1.0351e-05
1.0351e-05
1.0351e-05
1.0351e-05
1.0351e-05
1.0351e-05
1.0351e-05
1.0351e-05
1.0351e-05
1.0351e-05
1.0351e-05
1.0351e-05
1.0351e-05
1.0351e-05
1.0351e-05
1.0351e-05
1.0351e-05
1.0351e-05
1.0351e-05
1.0351e-05
1.0351e-05
1.0351e-05
1.0351e-05
1.0351e-05
1.0351e-05
1.0351e-05
1.0351e-05
1.0351e-05
1.0351e-05
1.0351e-05
1.0351e-05
1.0351e-05
1.0351e-05
1.0351e-05
1.0351e-05
1.0351e-05
1.0351e-05
1.0351e-05
1.0351e-05
1.0351e-05
1.0351e-05
1.0351e-05
1.0351e-05
1.0351e-05
1.0351e-05
1.0351e-05
1.0351e-05
1.0351e-05
1.0351e-05
1.0351e-05
1.0351e-05
1.0351e-05
1.0351e-05
1.0351e-05
1.0351e-05
1.0351e-05
1.0351e-05
1.0351e-05
1.0351e-05
1.0351e-05
1.0351e-05
1.0351e-05
1.0351e-05
1.0351e-05
1.0351e-05
1.0351e-05
1.0351e-05
1.0351e-05
1.0351e-05
1.0351e-05
1.0351e-05
1.0351e-05
1.0351e-05
1.0351e-05
1.0351e-05
1.0351e-05
1.0351e-05
1.0351e-05
1.0351e-05
1.0351e-05
1.0351e-05
1.0351e-05
1.0351e-05
1.0351e-05
1.0351e-05
1.0351e-05
1.0351e-05
1.0351e-05
1.0351e-05
1.0351e-05
1.0351e-05
1.0351e-05
1.0351e-05
1.0351e-05
1.0351e-05
1.0351e-05
1.0351e-05
1.0351e-05
1.0351e-05
1.0351e-05
1.0351e-05
1.0351e-05
1.0351e-05
1.0351e-05
1.0351e-05
1.0351e-05
1.0351e-05
1.0351e-05
1.0351e-05
1.0351e-05
1.0351e-05
1.0351e-05
1.0351e-05
1.0351e-05
1.0351e-05
1.0351e-05
1.0351e-05
1.0351e-05
1.0351e-05
1.0351e-05
1.0351e-05
1.0351e-05
1.0351e-05
1.0351e-05
1.0351e-05
1.0351e-05
1.0351e-05
1.0351e-05
1.0351e-05
1.0351e-05
1.0351e-05
1.0351e-05
1.0351e-05
1.0351e-05
1.0351e-05
1.0351e-05
1.0351e-05
1.0351e-05
1.0351e-05
1.0351e-05
1.0351e-05
1.0351e-05
1.0351e-05
1.0351e-05
1.0351e-05
1.0351e-05
1.0351e-05
1.0351e-05
1.0351e-05
1.0351e-05
1.0351e-05
1.0351e-05
1.0351e-05
1.0351e-05
1.0351e-05
1.0351e-05
1.0351e-05
1.0351e-05
1.0351e-05
1.0351e-05
1.0351e-05
1.0351e-05
1.0351e-05
1.0351e-05
1.0351e-05
1.0351e-05
1.0351e-05
1.0351e-05
1.0351e-05
1.0351e-05
1.0351e-05
1.0351e-05
1.0351e-05
1.0351e-05
1.0351e-05
1.0351e-05
1.0351e-05
1.0351e-05
1.0351e-05
1.0351e-05
1.0351e-05
1.0351e-05
1.0351e-05
1.0351e-05
1.0351e-05
1.0351e-05
1.0351e-05
1.0351e-05
1.0351e-05
1.0351e-05
1.0351e-05
1.0351e-05
1.0351e-05
1.0351e-05
1.0351e-05
1.0351e-05
1.0351e-05
1.0351e-05
1.0351e-05
1.0351e-05
1.0351e-05
1.0351e-05
1.0351e-05
1.0351e-05
1.0351e-05
1.0351e-05
1.0351e-05
1.0351e-05
1.0351e-05
1.0351e-05
1.0351e-05
1.0351e-05
1.0351e-05
1.0351e-05
1.0351e-05
1.0351e-05
1.0351e-05
1.0351e-05
1.0351e-05
1.0351e-05
1.0351e-05
1.0351e-05
1.0351e-05
1.0351e-05
1.0351e-05
1.0351e-05
1.0351e-05
1.0351e-05
1.0351e-05
1.0351e-05
1.0351e-05
1.0351e-05
1.0351e-05
1.0351e-05
1.0351e-05
1.0351e-05
1.0351e-05
1.0351e-05
1.0351e-05
1.0351e-05
1.0351e-05
1.0351e-05
1.0351e-05
1.0351e-05
1.0351e-05
1.0351e-05
1.0351e-05
1.0351e-05
1.0351e-05
1.0351e-05
1.0351e-05
1.0351e-05
1.0351e-05
1.0351e-05
1.0351e-05
1.0351e-05
1.0351e-05
1.0351e-05
1.0351e-05
1.0351e-05
1.0351e-05
1.0351e-05
1.0351e-05
1.0351e-05
1.0351e-05
1.0351e-05
1.0351e-05
1.0351e-05
1.0351e-05
1.0351e-05
1.0351e-05
1.0351e-05
1.0351e-05
1.0351e-05
1.0351e-05
1.0351e-05
1.0351e-05
1.0351e-05
1.0351e-05
1.0351e-05
1.0351e-05
1.0351e-05
1.0351e-05
1.0351e-05
1.0351e-05
1.0351e-05
1.0351e-05
1.0351e-05
1.0351e-05
1.0351e-05
1.0351e-05
1.0351e-05
1.0351e-05
1.0351e-05
1.0351e-05
1.0351e-05
1.0351e-05
1.0351e-05
1.0351e-05
1.0351e-05
1.0351e-05
1.0351e-05
1.0351e-05
1.0351e-05
1.0351e-05
1.0351e-05
1.0351e-05
1.0351e-05
1.0351e-05
1.0351e-05
1.0351e-05
1.0351e-05
1.0351e-05
1.0351e-05
1.0351e-05
1.0351e-05
1.0351e-05
1.0351e-05
1.0351e-05
1.0351e-05
1.0351e-05
1.0351e-05
1.0351e-05
1.0351e-05
1.0351e-05
1.0351e-05
1.0351e-05
1.0351e-05
1.0351e-05
1.0351e-05
1.0351e-05
1.0351e-05
1.0351e-05
1.0351e-05
1.0351e-05
1.0351e-05
1.0351e-05
1.0351e-05
1.0351e-05
1.0351e-05
1.0351e-05
1.0351e-05
1.0351e-05
1.0351e-05
1.0351e-05
1.0351e-05
1.0351e-05
1.0351e-05
1.0351e-05
1.0351e-05
1.0351e-05
1.0351e-05
1.0351e-05
1.0351e-05
1.0351e-05
1.0351e-05
1.0351e-05
1.0351e-05
1.0351e-05
1.0351e-05
1.0351e-05
1.0351e-05
1.0351e-05
1.0351e-05
1.0351e-05
1.0351e-05
1.0351e-05
1.0351e-05
1.0351e-05
1.0351e-05
1.0351e-05
1.0351e-05
1.0351e-05
1.0351e-05
1.0351e-05
1.0351e-05
1.0351e-05
1.0351e-05
1.0351e-05
1.0351e-05
1.0351e-05
1.0351e-05
1.0351e-05
1.0351e-05
1.0351e-05
1.0351e-05
1.0351e-05
1.0351e-05
1.0351e-05
1.0351e-05
1.0351e-05
1.0351e-05
1.0351e-05
1.0351e-05
1.0351e-05
1.0351e-05
1.0351e-05
1.0351e-05
1.0351e-05
1.0351e-05
1.0351e-05
1.0351e-05
1.0351e-05
1.0351e-05
1.0351e-05
1.0351e-05
1.0351e-05
1.0351e-05
1.0351e-05
1.0351e-05
1.0351e-05
1.0351e-05
1.0351e-05
1.0351e-05
1.0351e-05
1.0351e-05
1.0351e-05
1.0351e-05
1.0351e-05
1.0351e-05
1.0351e-05
1.0351e-05
1.0351e-05
1.0351e-05
1.0351e-05
1.0351e-05
1.0351e-05
1.0351e-05
1.0351e-05
1.0351e-05
1.0351e-05
1.0351e-05
1.0351e-05
1.0351e-05
1.0351e-05
1.0351e-05
1.0351e-05
1.0351e-05
1.0351e-05
1.0351e-05
1.0351e-05
1.0351e-05
1.0351e-05
1.0351e-05
1.0351e-05
1.0351e-05
1.0351e-05
1.0351e-05
1.0351e-05
1.0351e-05
1.0351e-05
1.0351e-05
1.0351e-05
1.0351e-05
1.0351e-05
1.0351e-05
1.0351e-05
1.0351e-05
1.0351e-05
1.0351e-05
1.0351e-05
1.0351e-05
1.0351e-05
1.0351e-05
1.0351e-05
1.0351e-05
1.0351e-05
1.0351e-05
1.0351e-05
1.0351e-05
1.0351e-05
1.0351e-05
1.0351e-05
1.0351e-05
1.0351e-05
1.0351e-05
1.0351e-05
1.0351e-05
1.0351e-05
1.0351e-05
1.0351e-05
1.0351e-05
1.0351e-05
1.0351e-05
1.0351e-05
1.0351e-05
1.0351e-05
1.0351e-05
1.0351e-05
1.0351e-05
1.0351e-05
1.0351e-05
1.0351e-05
1.0351e-05
1.0351e-05
1.0351e-05
1.0351e-05
1.0351e-05
1.0351e-05
1.0351e-05
1.0351e-05
1.0351e-05
1.0351e-05
1.0351e-05
1.0351e-05
1.0351e-05
1.0351e-05
1.0351e-05
1.0351e-05
1.0351e-05
1.0351e-05
1.0351e-05
1.0351e-05
1.0351e-05
1.0351e-05
1.0351e-05
1.0351e-05
1.0351e-05
1.0351e-05
1.0351e-05
1.0351e-05
1.0351e-05
1.0351e-05
1.0351e-05
1.0351e-05
1.0351e-05
1.0351e-05
1.0351e-05
1.0351e-05
1.0351e-05
1.0351e-05
1.0351e-05
1.0351e-05
1.0351e-05
1.0351e-05
1.0351e-05
1.0351e-05
1.0351e-05
1.0351e-05
1.0351e-05
1.0351e-05
1.0351e-05
1.0351e-05
1.0351e-05
1.0351e-05
1.0351e-05
1.0351e-05
1.0351e-05
1.0351e-05
1.0351e-05
1.0351e-05
1.0351e-05
1.0351e-05
1.0351e-05
1.0351e-05
1.0351e-05
1.0351e-05
1.0351e-05
1.0351e-05
1.0351e-05
1.0351e-05
1.0351e-05
1.0351e-05
1.0351e-05
1.0351e-05
1.0351e-05
1.0351e-05
1.0351e-05
1.0351e-05
1.0351e-05
1.0351e-05
1.0351e-05
1.0351e-05
1.0351e-05
1.0351e-05
1.0351e-05
1.0351e-05
1.0351e-05
1.0351e-05
1.0351e-05
1.0351e-05
1.0351e-05
1.0351e-05
1.0351e-05
1.0351e-05
1.0351e-05
1.0351e-05
1.0351e-05
1.0351e-05
1.0351e-05
1.0351e-05
1.0351e-05
1.0351e-05
1.0351e-05
1.0351e-05
1.0351e-05
1.0351e-05
1.0351e-05
1.0351e-05
1.0351e-05
1.0351e-05
1.0351e-05
1.0351e-05
1.0351e-05
1.0351e-05
1.0351e-05
1.0351e-05
1.0351e-05
1.0351e-05
1.0351e-05
1.0351e-05
1.0351e-05
1.0351e-05
1.0351e-05
1.0351e-05
1.0351e-05
1.0351e-05
1.0351e-05
1.0351e-05
1.0351e-05
1.0351e-05
1.0351e-05
1.0351e-05
1.0351e-05
1.0351e-05
1.03511e-05
1.03511e-05
1.0351e-05
1.0351e-05
1.0351e-05
1.0351e-05
1.0351e-05
1.0351e-05
1.0351e-05
1.0351e-05
1.0351e-05
1.0351e-05
1.0351e-05
1.0351e-05
1.0351e-05
1.0351e-05
1.0351e-05
1.0351e-05
1.0351e-05
1.0351e-05
1.0351e-05
1.0351e-05
1.0351e-05
1.0351e-05
1.0351e-05
1.0351e-05
1.0351e-05
1.0351e-05
1.0351e-05
1.0351e-05
1.0351e-05
1.0351e-05
1.0351e-05
1.0351e-05
1.0351e-05
1.0351e-05
1.0351e-05
1.0351e-05
1.0351e-05
1.03511e-05
1.03511e-05
1.03512e-05
1.03514e-05
1.0351e-05
1.0351e-05
1.0351e-05
1.0351e-05
1.0351e-05
1.0351e-05
1.0351e-05
1.0351e-05
1.0351e-05
1.0351e-05
1.0351e-05
1.0351e-05
1.0351e-05
1.0351e-05
1.0351e-05
1.0351e-05
1.0351e-05
1.0351e-05
1.0351e-05
1.0351e-05
1.0351e-05
1.0351e-05
1.0351e-05
1.0351e-05
1.0351e-05
1.0351e-05
1.0351e-05
1.0351e-05
1.0351e-05
1.0351e-05
1.0351e-05
1.0351e-05
1.0351e-05
1.0351e-05
1.03511e-05
1.03511e-05
1.03512e-05
1.03513e-05
1.03516e-05
1.0352e-05
1.03529e-05
1.0351e-05
1.0351e-05
1.0351e-05
1.0351e-05
1.0351e-05
1.0351e-05
1.0351e-05
1.0351e-05
1.0351e-05
1.0351e-05
1.0351e-05
1.0351e-05
1.0351e-05
1.0351e-05
1.0351e-05
1.0351e-05
1.0351e-05
1.0351e-05
1.0351e-05
1.0351e-05
1.0351e-05
1.0351e-05
1.0351e-05
1.0351e-05
1.0351e-05
1.0351e-05
1.0351e-05
1.0351e-05
1.0351e-05
1.0351e-05
1.0351e-05
1.0351e-05
1.03511e-05
1.03511e-05
1.03512e-05
1.03513e-05
1.03515e-05
1.03518e-05
1.03525e-05
1.03536e-05
1.03557e-05
1.03596e-05
1.0351e-05
1.0351e-05
1.0351e-05
1.0351e-05
1.0351e-05
1.0351e-05
1.0351e-05
1.0351e-05
1.0351e-05
1.0351e-05
1.0351e-05
1.0351e-05
1.0351e-05
1.0351e-05
1.0351e-05
1.0351e-05
1.0351e-05
1.0351e-05
1.0351e-05
1.0351e-05
1.0351e-05
1.0351e-05
1.0351e-05
1.0351e-05
1.0351e-05
1.0351e-05
1.0351e-05
1.0351e-05
1.0351e-05
1.0351e-05
1.0351e-05
1.03511e-05
1.03511e-05
1.03512e-05
1.03514e-05
1.03517e-05
1.03522e-05
1.03531e-05
1.03547e-05
1.03576e-05
1.03626e-05
1.03715e-05
1.03886e-05
1.0351e-05
1.0351e-05
1.0351e-05
1.0351e-05
1.0351e-05
1.0351e-05
1.0351e-05
1.0351e-05
1.0351e-05
1.0351e-05
1.0351e-05
1.0351e-05
1.0351e-05
1.0351e-05
1.0351e-05
1.0351e-05
1.0351e-05
1.0351e-05
1.0351e-05
1.0351e-05
1.0351e-05
1.0351e-05
1.0351e-05
1.0351e-05
1.0351e-05
1.0351e-05
1.0351e-05
1.0351e-05
1.03511e-05
1.03511e-05
1.03512e-05
1.03513e-05
1.03516e-05
1.0352e-05
1.03527e-05
1.0354e-05
1.03563e-05
1.03603e-05
1.03673e-05
1.03795e-05
1.04011e-05
1.04397e-05
1.05117e-05
1.0351e-05
1.0351e-05
1.0351e-05
1.0351e-05
1.0351e-05
1.0351e-05
1.0351e-05
1.0351e-05
1.0351e-05
1.0351e-05
1.0351e-05
1.0351e-05
1.0351e-05
1.0351e-05
1.0351e-05
1.0351e-05
1.0351e-05
1.0351e-05
1.0351e-05
1.0351e-05
1.0351e-05
1.0351e-05
1.0351e-05
1.0351e-05
1.0351e-05
1.0351e-05
1.03511e-05
1.03511e-05
1.03512e-05
1.03513e-05
1.03515e-05
1.03518e-05
1.03524e-05
1.03534e-05
1.03553e-05
1.03584e-05
1.0364e-05
1.03737e-05
1.03907e-05
1.04205e-05
1.04726e-05
1.05634e-05
1.07221e-05
1.10059e-05
1.0351e-05
1.0351e-05
1.0351e-05
1.0351e-05
1.0351e-05
1.0351e-05
1.0351e-05
1.0351e-05
1.0351e-05
1.0351e-05
1.0351e-05
1.0351e-05
1.0351e-05
1.0351e-05
1.0351e-05
1.0351e-05
1.0351e-05
1.0351e-05
1.0351e-05
1.0351e-05
1.0351e-05
1.0351e-05
1.0351e-05
1.0351e-05
1.0351e-05
1.03511e-05
1.03511e-05
1.03512e-05
1.03514e-05
1.03517e-05
1.03521e-05
1.0353e-05
1.03544e-05
1.0357e-05
1.03614e-05
1.03691e-05
1.03825e-05
1.04059e-05
1.04468e-05
1.05178e-05
1.06403e-05
1.08498e-05
1.12018e-05
1.1781e-05
1.27138e-05
1.0351e-05
1.0351e-05
1.0351e-05
1.0351e-05
1.0351e-05
1.0351e-05
1.0351e-05
1.0351e-05
1.0351e-05
1.0351e-05
1.0351e-05
1.0351e-05
1.0351e-05
1.0351e-05
1.0351e-05
1.0351e-05
1.0351e-05
1.0351e-05
1.0351e-05
1.0351e-05
1.0351e-05
1.0351e-05
1.0351e-05
1.03511e-05
1.03511e-05
1.03512e-05
1.03513e-05
1.03515e-05
1.03519e-05
1.03526e-05
1.03538e-05
1.03558e-05
1.03593e-05
1.03654e-05
1.03759e-05
1.03943e-05
1.04263e-05
1.04818e-05
1.05777e-05
1.07419e-05
1.10189e-05
1.14755e-05
1.22017e-05
1.33017e-05
1.48767e-05
1.69983e-05
1.0351e-05
1.0351e-05
1.0351e-05
1.0351e-05
1.0351e-05
1.0351e-05
1.0351e-05
1.0351e-05
1.0351e-05
1.0351e-05
1.0351e-05
1.0351e-05
1.0351e-05
1.0351e-05
1.0351e-05
1.0351e-05
1.0351e-05
1.0351e-05
1.0351e-05
1.0351e-05
1.0351e-05
1.0351e-05
1.03511e-05
1.03511e-05
1.03512e-05
1.03513e-05
1.03514e-05
1.03518e-05
1.03523e-05
1.03532e-05
1.03548e-05
1.03576e-05
1.03624e-05
1.03707e-05
1.03852e-05
1.04102e-05
1.04535e-05
1.05282e-05
1.06563e-05
1.08735e-05
1.12348e-05
1.18184e-05
1.27212e-05
1.40412e-05
1.58461e-05
1.81454e-05
2.08925e-05
2.39819e-05
1.0351e-05
1.0351e-05
1.0351e-05
1.0351e-05
1.0351e-05
1.0351e-05
1.0351e-05
1.0351e-05
1.0351e-05
1.0351e-05
1.0351e-05
1.0351e-05
1.0351e-05
1.0351e-05
1.0351e-05
1.0351e-05
1.0351e-05
1.0351e-05
1.0351e-05
1.0351e-05
1.03511e-05
1.03511e-05
1.03512e-05
1.03514e-05
1.03516e-05
1.0352e-05
1.03528e-05
1.03541e-05
1.03563e-05
1.03601e-05
1.03666e-05
1.03779e-05
1.03974e-05
1.04311e-05
1.04892e-05
1.05887e-05
1.07581e-05
1.10417e-05
1.15057e-05
1.22378e-05
1.33371e-05
1.48885e-05
1.69304e-05
1.9435e-05
2.23086e-05
2.54098e-05
2.85896e-05
3.17246e-05
1.0351e-05
1.0351e-05
1.0351e-05
1.0351e-05
1.0351e-05
1.0351e-05
1.0351e-05
1.0351e-05
1.0351e-05
1.0351e-05
1.0351e-05
1.0351e-05
1.0351e-05
1.0351e-05
1.0351e-05
1.0351e-05
1.0351e-05
1.0351e-05
1.0351e-05
1.03511e-05
1.03511e-05
1.03512e-05
1.03513e-05
1.03515e-05
1.03518e-05
1.03524e-05
1.03535e-05
1.03552e-05
1.03582e-05
1.03633e-05
1.03722e-05
1.03874e-05
1.04136e-05
1.04586e-05
1.05358e-05
1.06672e-05
1.08883e-05
1.12537e-05
1.18396e-05
1.27403e-05
1.405e-05
1.5833e-05
1.8096e-05
2.07788e-05
2.37641e-05
2.68994e-05
3.00272e-05
3.30129e-05
3.57645e-05
3.8146e-05
1.0351e-05
1.0351e-05
1.0351e-05
1.0351e-05
1.0351e-05
1.0351e-05
1.0351e-05
1.0351e-05
1.0351e-05
1.0351e-05
1.0351e-05
1.0351e-05
1.0351e-05
1.0351e-05
1.0351e-05
1.0351e-05
1.03511e-05
1.03511e-05
1.03511e-05
1.03512e-05
1.03514e-05
1.03517e-05
1.03522e-05
1.0353e-05
1.03544e-05
1.03567e-05
1.03608e-05
1.03677e-05
1.03795e-05
1.03999e-05
1.04348e-05
1.04944e-05
1.0596e-05
1.07676e-05
1.10529e-05
1.15165e-05
1.22436e-05
1.33296e-05
1.48568e-05
1.68632e-05
1.93232e-05
2.21503e-05
2.52115e-05
2.83533e-05
3.14276e-05
3.43157e-05
3.69158e-05
3.90505e-05
4.05908e-05
4.16102e-05
1.0351e-05
1.0351e-05
1.0351e-05
1.0351e-05
1.0351e-05
1.0351e-05
1.0351e-05
1.0351e-05
1.0351e-05
1.0351e-05
1.0351e-05
1.0351e-05
1.0351e-05
1.0351e-05
1.03511e-05
1.03511e-05
1.03512e-05
1.03513e-05
1.03516e-05
1.03519e-05
1.03526e-05
1.03537e-05
1.03555e-05
1.03587e-05
1.03641e-05
1.03734e-05
1.03892e-05
1.04162e-05
1.04623e-05
1.05407e-05
1.06731e-05
1.08946e-05
1.1258e-05
1.18372e-05
1.2723e-05
1.40064e-05
1.57507e-05
1.79646e-05
2.05934e-05
2.35304e-05
2.66339e-05
2.97553e-05
3.27583e-05
3.55402e-05
3.79885e-05
3.99322e-05
4.12873e-05
4.21401e-05
4.26484e-05
4.29571e-05
1.0351e-05
1.0351e-05
1.0351e-05
1.0351e-05
1.0351e-05
1.0351e-05
1.0351e-05
1.0351e-05
1.0351e-05
1.0351e-05
1.0351e-05
1.03511e-05
1.03511e-05
1.03512e-05
1.03513e-05
1.03515e-05
1.03518e-05
1.03523e-05
1.03531e-05
1.03546e-05
1.03571e-05
1.03614e-05
1.03686e-05
1.03809e-05
1.04018e-05
1.04373e-05
1.04977e-05
1.05998e-05
1.07708e-05
1.10535e-05
1.15098e-05
1.22217e-05
1.32811e-05
1.4768e-05
1.67217e-05
1.91216e-05
2.18886e-05
2.49025e-05
2.8019e-05
3.10983e-05
3.40162e-05
3.66817e-05
3.89717e-05
4.0731e-05
4.19195e-05
4.26519e-05
4.30825e-05
4.3337e-05
4.34868e-05
4.3575e-05
1.0351e-05
1.0351e-05
1.0351e-05
1.0351e-05
1.0351e-05
1.0351e-05
1.0351e-05
1.0351e-05
1.03511e-05
1.03511e-05
1.03511e-05
1.03512e-05
1.03514e-05
1.03516e-05
1.0352e-05
1.03527e-05
1.03539e-05
1.03559e-05
1.03592e-05
1.03648e-05
1.03744e-05
1.03906e-05
1.0418e-05
1.04645e-05
1.0543e-05
1.06747e-05
1.08933e-05
1.12495e-05
1.18143e-05
1.26746e-05
1.39182e-05
1.56082e-05
1.77573e-05
2.03179e-05
2.31925e-05
2.62531e-05
2.9358e-05
3.23781e-05
3.52005e-05
3.77414e-05
3.98704e-05
4.14541e-05
4.24941e-05
4.31245e-05
4.34914e-05
4.37109e-05
4.38311e-05
4.39042e-05
4.39748e-05
4.40492e-05
1.0351e-05
1.0351e-05
1.0351e-05
1.0351e-05
1.0351e-05
1.0351e-05
1.03511e-05
1.03511e-05
1.03512e-05
1.03513e-05
1.03515e-05
1.03518e-05
1.03524e-05
1.03533e-05
1.03549e-05
1.03575e-05
1.03619e-05
1.03694e-05
1.03819e-05
1.04031e-05
1.04389e-05
1.04992e-05
1.06004e-05
1.07687e-05
1.10449e-05
1.14883e-05
1.21768e-05
1.31986e-05
1.4632e-05
1.65185e-05
1.88439e-05
2.1538e-05
2.44909e-05
2.75716e-05
3.06448e-05
3.35924e-05
3.63116e-05
3.8722e-05
4.06903e-05
4.21101e-05
4.30199e-05
4.35636e-05
4.38781e-05
4.40678e-05
4.41657e-05
4.42321e-05
4.43023e-05
4.43627e-05
4.44188e-05
4.44807e-05
1.0351e-05
1.0351e-05
1.0351e-05
1.03511e-05
1.03511e-05
1.03512e-05
1.03512e-05
1.03514e-05
1.03517e-05
1.03521e-05
1.03529e-05
1.03541e-05
1.03562e-05
1.03596e-05
1.03654e-05
1.03752e-05
1.03916e-05
1.04192e-05
1.04655e-05
1.05432e-05
1.06724e-05
1.08855e-05
1.12306e-05
1.17749e-05
1.26012e-05
1.37942e-05
1.54175e-05
1.74883e-05
1.99676e-05
2.27679e-05
2.5772e-05
2.88501e-05
3.18754e-05
3.47406e-05
3.73511e-05
3.96271e-05
4.14383e-05
4.27076e-05
4.35041e-05
4.39742e-05
4.42459e-05
4.44092e-05
4.44906e-05
4.45513e-05
4.46189e-05
4.46734e-05
4.47276e-05
4.47825e-05
4.48412e-05
4.49139e-05
1.0351e-05
1.03511e-05
1.03511e-05
1.03512e-05
1.03513e-05
1.03516e-05
1.03519e-05
1.03525e-05
1.03535e-05
1.03551e-05
1.03578e-05
1.03624e-05
1.037e-05
1.03827e-05
1.0404e-05
1.04397e-05
1.04992e-05
1.05984e-05
1.07622e-05
1.10291e-05
1.14551e-05
1.21139e-05
1.30898e-05
1.44595e-05
1.62671e-05
1.85057e-05
2.11149e-05
2.3995e-05
2.70261e-05
3.00826e-05
3.30477e-05
3.58231e-05
3.83209e-05
4.04609e-05
4.21212e-05
4.32543e-05
4.3953e-05
4.43606e-05
4.45974e-05
4.47364e-05
4.48054e-05
4.48624e-05
4.49257e-05
4.49769e-05
4.50294e-05
4.50822e-05
4.51394e-05
4.52066e-05
4.52858e-05
4.53817e-05
1.03512e-05
1.03513e-05
1.03515e-05
1.03517e-05
1.03522e-05
1.0353e-05
1.03543e-05
1.03564e-05
1.036e-05
1.0366e-05
1.03758e-05
1.03923e-05
1.04198e-05
1.04656e-05
1.05416e-05
1.06672e-05
1.08728e-05
1.12036e-05
1.17229e-05
1.25089e-05
1.36434e-05
1.51901e-05
1.71718e-05
1.95585e-05
2.22731e-05
2.52087e-05
2.8246e-05
3.12656e-05
3.41607e-05
3.6841e-05
3.92237e-05
4.12283e-05
4.27459e-05
4.37572e-05
4.43716e-05
4.47265e-05
4.49343e-05
4.50506e-05
4.51114e-05
4.51664e-05
4.52246e-05
4.52734e-05
4.53242e-05
4.53749e-05
4.54311e-05
4.54973e-05
4.55744e-05
4.56639e-05
4.57667e-05
4.58867e-05
1.03516e-05
1.0352e-05
1.03526e-05
1.03536e-05
1.03554e-05
1.03582e-05
1.03628e-05
1.03705e-05
1.03833e-05
1.04045e-05
1.04398e-05
1.04981e-05
1.05944e-05
1.07523e-05
1.10079e-05
1.14134e-05
1.20382e-05
1.29622e-05
1.42605e-05
1.598e-05
1.81216e-05
2.0635e-05
2.34313e-05
2.64002e-05
2.9426e-05
3.23966e-05
3.52146e-05
3.77963e-05
4.00628e-05
4.19346e-05
4.3319e-05
4.42223e-05
4.4764e-05
4.50747e-05
4.52579e-05
4.53537e-05
4.54094e-05
4.54636e-05
4.55161e-05
4.55635e-05
4.56118e-05
4.56605e-05
4.57158e-05
4.57808e-05
4.58566e-05
4.59442e-05
4.6044e-05
4.61565e-05
4.62824e-05
4.64256e-05
1.03531e-05
1.03545e-05
1.03567e-05
1.03604e-05
1.03664e-05
1.03764e-05
1.03928e-05
1.042e-05
1.04648e-05
1.05388e-05
1.06599e-05
1.08566e-05
1.11712e-05
1.16626e-05
1.24043e-05
1.34747e-05
1.49378e-05
1.68218e-05
1.9106e-05
2.17242e-05
2.45799e-05
2.75629e-05
3.05623e-05
3.34745e-05
3.62102e-05
3.86911e-05
4.08416e-05
4.2585e-05
4.38466e-05
4.46548e-05
4.5134e-05
4.54074e-05
4.55692e-05
4.56491e-05
4.57001e-05
4.5754e-05
4.58007e-05
4.58465e-05
4.58922e-05
4.59393e-05
4.59935e-05
4.60572e-05
4.61315e-05
4.62172e-05
4.63147e-05
4.64244e-05
4.65463e-05
4.6681e-05
4.68291e-05
4.69941e-05
1.03585e-05
1.03632e-05
1.0371e-05
1.03838e-05
1.04048e-05
1.04394e-05
1.04962e-05
1.05892e-05
1.07404e-05
1.09833e-05
1.13666e-05
1.19548e-05
1.28235e-05
1.40455e-05
1.56706e-05
1.7707e-05
2.0115e-05
2.28165e-05
2.57112e-05
2.86916e-05
3.16527e-05
3.44991e-05
3.71488e-05
3.95279e-05
4.15639e-05
4.31847e-05
4.43342e-05
4.50591e-05
4.54844e-05
4.57266e-05
4.58695e-05
4.59375e-05
4.59836e-05
4.60358e-05
4.60781e-05
4.61222e-05
4.61658e-05
4.62115e-05
4.62645e-05
4.63268e-05
4.63993e-05
4.6483e-05
4.65781e-05
4.66849e-05
4.68036e-05
4.69345e-05
4.70777e-05
4.72334e-05
4.74023e-05
4.75873e-05
1.03768e-05
1.03932e-05
1.04199e-05
1.04637e-05
1.05352e-05
1.06513e-05
1.08385e-05
1.11358e-05
1.15978e-05
1.22933e-05
1.32969e-05
1.46724e-05
1.64528e-05
1.86267e-05
2.1139e-05
2.39035e-05
2.68192e-05
2.97828e-05
3.2696e-05
3.54711e-05
3.80324e-05
4.03098e-05
4.22336e-05
4.37385e-05
4.47868e-05
4.54388e-05
4.58178e-05
4.60335e-05
4.61595e-05
4.62178e-05
4.62601e-05
4.63091e-05
4.63491e-05
4.63913e-05
4.6433e-05
4.64773e-05
4.6529e-05
4.65896e-05
4.66603e-05
4.67418e-05
4.68343e-05
4.69382e-05
4.70536e-05
4.71808e-05
4.73199e-05
4.7471e-05
4.76341e-05
4.78092e-05
4.79967e-05
4.81991e-05
1.04388e-05
1.04939e-05
1.05833e-05
1.07273e-05
1.09572e-05
1.13176e-05
1.18684e-05
1.26804e-05
1.38243e-05
1.53515e-05
1.72772e-05
1.95722e-05
2.21694e-05
2.49781e-05
2.78991e-05
3.08342e-05
3.3692e-05
3.6392e-05
3.88635e-05
4.104e-05
4.2855e-05
4.42514e-05
4.52086e-05
4.5797e-05
4.61361e-05
4.63295e-05
4.64401e-05
4.64907e-05
4.65301e-05
4.65759e-05
4.66138e-05
4.66542e-05
4.6694e-05
4.67368e-05
4.67871e-05
4.6846e-05
4.69147e-05
4.69938e-05
4.70836e-05
4.71844e-05
4.72964e-05
4.74198e-05
4.75548e-05
4.77014e-05
4.78596e-05
4.80294e-05
4.82104e-05
4.84025e-05
4.8606e-05
4.88224e-05
1.06423e-05
1.08197e-05
1.10995e-05
1.15321e-05
1.21812e-05
1.31174e-05
1.4404e-05
1.60778e-05
1.81363e-05
2.05352e-05
2.31986e-05
2.60347e-05
2.89475e-05
3.18445e-05
3.46411e-05
3.72632e-05
3.96446e-05
4.17219e-05
4.34322e-05
4.47278e-05
4.56033e-05
4.61362e-05
4.6441e-05
4.66152e-05
4.67123e-05
4.67567e-05
4.67938e-05
4.68365e-05
4.68725e-05
4.69111e-05
4.69489e-05
4.69902e-05
4.70389e-05
4.7096e-05
4.71627e-05
4.72393e-05
4.73263e-05
4.74239e-05
4.75324e-05
4.7652e-05
4.77827e-05
4.79248e-05
4.80781e-05
4.82427e-05
4.84182e-05
4.86044e-05
4.88008e-05
4.90069e-05
4.92228e-05
4.94494e-05
1.09311e-05
1.12688e-05
1.17826e-05
1.25387e-05
1.36046e-05
1.50331e-05
1.68456e-05
1.90225e-05
2.15077e-05
2.42201e-05
2.70687e-05
2.99619e-05
3.28132e-05
3.55444e-05
3.80869e-05
4.03784e-05
4.23587e-05
4.39692e-05
4.51716e-05
4.59744e-05
4.64587e-05
4.6734e-05
4.68917e-05
4.69767e-05
4.70163e-05
4.70516e-05
4.70909e-05
4.71254e-05
4.7162e-05
4.71978e-05
4.72377e-05
4.72847e-05
4.73399e-05
4.74044e-05
4.74785e-05
4.75626e-05
4.7657e-05
4.77619e-05
4.78775e-05
4.8004e-05
4.81414e-05
4.82899e-05
4.84492e-05
4.86192e-05
4.87997e-05
4.899e-05
4.91898e-05
4.93983e-05
4.96149e-05
4.98393e-05
5.0072e-05
1.20722e-05
1.29426e-05
1.4141e-05
1.57079e-05
1.76483e-05
1.99284e-05
2.24829e-05
2.52285e-05
2.80766e-05
3.09408e-05
3.37403e-05
3.64029e-05
3.8865e-05
4.10678e-05
4.29538e-05
4.44698e-05
4.55866e-05
4.63244e-05
4.67664e-05
4.70162e-05
4.71595e-05
4.72338e-05
4.72698e-05
4.73035e-05
4.73393e-05
4.73726e-05
4.74069e-05
4.7441e-05
4.74793e-05
4.75246e-05
4.75779e-05
4.76401e-05
4.77116e-05
4.77927e-05
4.78838e-05
4.7985e-05
4.80967e-05
4.82188e-05
4.83516e-05
4.84951e-05
4.86492e-05
4.88137e-05
4.89884e-05
4.91729e-05
4.93665e-05
4.95687e-05
4.97788e-05
4.99958e-05
5.02189e-05
5.04477e-05
5.06819e-05
1.33935e-05
1.47248e-05
1.64236e-05
1.84796e-05
2.0847e-05
2.34547e-05
2.62193e-05
2.90559e-05
3.18833e-05
3.46265e-05
3.72184e-05
3.95999e-05
4.17154e-05
4.35105e-05
4.49374e-05
4.59758e-05
4.66559e-05
4.70608e-05
4.72885e-05
4.74193e-05
4.74843e-05
4.75173e-05
4.75497e-05
4.75821e-05
4.76141e-05
4.76462e-05
4.76785e-05
4.77153e-05
4.77588e-05
4.78101e-05
4.787e-05
4.79388e-05
4.8017e-05
4.81047e-05
4.82022e-05
4.83098e-05
4.84276e-05
4.85557e-05
4.86942e-05
4.88431e-05
4.90021e-05
4.9171e-05
4.93495e-05
4.95371e-05
4.97331e-05
4.99369e-05
5.01475e-05
5.03642e-05
5.05857e-05
5.08112e-05
5.104e-05
5.12714e-05
1.71749e-05
1.93329e-05
2.17721e-05
2.4418e-05
2.71891e-05
3.00049e-05
3.27892e-05
3.54724e-05
3.79924e-05
4.02938e-05
4.2324e-05
4.40319e-05
4.53753e-05
4.63422e-05
4.69709e-05
4.73433e-05
4.75518e-05
4.76716e-05
4.77288e-05
4.77591e-05
4.77902e-05
4.78195e-05
4.785e-05
4.78799e-05
4.79106e-05
4.79458e-05
4.79875e-05
4.80367e-05
4.80942e-05
4.81604e-05
4.82355e-05
4.83198e-05
4.84136e-05
4.85172e-05
4.86306e-05
4.8754e-05
4.88876e-05
4.90311e-05
4.91846e-05
4.93478e-05
4.95204e-05
4.97019e-05
4.98917e-05
5.00892e-05
5.02937e-05
5.05041e-05
5.07194e-05
5.09387e-05
5.11608e-05
5.13844e-05
5.1609e-05
5.18331e-05
2.26981e-05
2.53687e-05
2.81354e-05
3.09223e-05
3.36585e-05
3.62793e-05
3.87269e-05
4.09491e-05
4.28963e-05
4.45208e-05
4.57863e-05
4.66882e-05
4.72709e-05
4.76149e-05
4.78069e-05
4.79168e-05
4.79674e-05
4.79954e-05
4.80249e-05
4.80515e-05
4.80803e-05
4.81083e-05
4.81374e-05
4.81709e-05
4.82108e-05
4.82579e-05
4.8313e-05
4.83764e-05
4.84485e-05
4.85294e-05
4.86195e-05
4.8719e-05
4.88281e-05
4.89468e-05
4.90754e-05
4.92137e-05
4.93617e-05
4.95191e-05
4.96858e-05
4.98612e-05
5.00449e-05
5.02362e-05
5.04344e-05
5.06386e-05
5.08479e-05
5.10613e-05
5.12776e-05
5.14955e-05
5.1714e-05
5.19317e-05
5.21478e-05
5.23607e-05
2.90563e-05
3.18078e-05
3.44919e-05
3.70484e-05
3.94235e-05
4.1568e-05
4.34348e-05
4.49801e-05
4.6173e-05
4.70159e-05
4.75577e-05
4.78767e-05
4.80541e-05
4.81555e-05
4.82009e-05
4.82263e-05
4.82543e-05
4.82784e-05
4.83053e-05
4.83316e-05
4.8359e-05
4.8391e-05
4.84289e-05
4.84739e-05
4.85266e-05
4.85872e-05
4.86562e-05
4.87338e-05
4.88201e-05
4.89156e-05
4.90203e-05
4.91344e-05
4.9258e-05
4.93911e-05
4.95336e-05
4.96853e-05
4.98461e-05
5.00155e-05
5.0193e-05
5.03781e-05
5.05701e-05
5.07682e-05
5.09714e-05
5.11789e-05
5.13895e-05
5.16021e-05
5.18154e-05
5.20281e-05
5.22391e-05
5.24469e-05
5.26507e-05
5.28485e-05
3.52902e-05
3.77813e-05
4.00843e-05
4.21527e-05
4.3942e-05
4.54123e-05
4.65379e-05
4.73273e-05
4.78324e-05
4.81293e-05
4.82941e-05
4.8388e-05
4.84291e-05
4.8452e-05
4.8478e-05
4.85002e-05
4.85253e-05
4.855e-05
4.85758e-05
4.8606e-05
4.86421e-05
4.86849e-05
4.87351e-05
4.87929e-05
4.88588e-05
4.8933e-05
4.90157e-05
4.91071e-05
4.92075e-05
4.9317e-05
4.94356e-05
4.95635e-05
4.97006e-05
4.98467e-05
5.00016e-05
5.01649e-05
5.03364e-05
5.05153e-05
5.07011e-05
5.08931e-05
5.10903e-05
5.12919e-05
5.14968e-05
5.1704e-05
5.19122e-05
5.21203e-05
5.23268e-05
5.25307e-05
5.27304e-05
5.29248e-05
5.31127e-05
5.3292e-05
4.07112e-05
4.27053e-05
4.44203e-05
4.58196e-05
4.6883e-05
4.76241e-05
4.80962e-05
4.83735e-05
4.85273e-05
4.86146e-05
4.8652e-05
4.86727e-05
4.86965e-05
4.87171e-05
4.87403e-05
4.87635e-05
4.87877e-05
4.88163e-05
4.88504e-05
4.8891e-05
4.89387e-05
4.89938e-05
4.90566e-05
4.91274e-05
4.92064e-05
4.92939e-05
4.939e-05
4.94948e-05
4.96086e-05
4.97314e-05
4.9863e-05
5.00035e-05
5.01526e-05
5.031e-05
5.04753e-05
5.06481e-05
5.08278e-05
5.10136e-05
5.12048e-05
5.14006e-05
5.15999e-05
5.18016e-05
5.20048e-05
5.22081e-05
5.24104e-05
5.26104e-05
5.28067e-05
5.29981e-05
5.31833e-05
5.33608e-05
5.35298e-05
5.36876e-05
4.48717e-05
4.62042e-05
4.72102e-05
4.79074e-05
4.83501e-05
4.86098e-05
4.8754e-05
4.88356e-05
4.88699e-05
4.88885e-05
4.89102e-05
4.89293e-05
4.89507e-05
4.89724e-05
4.8995e-05
4.90218e-05
4.9054e-05
4.90924e-05
4.91376e-05
4.919e-05
4.92497e-05
4.93172e-05
4.93925e-05
4.9476e-05
4.95679e-05
4.96682e-05
4.97772e-05
4.98948e-05
5.00211e-05
5.0156e-05
5.02994e-05
5.04509e-05
5.06102e-05
5.07769e-05
5.09504e-05
5.11302e-05
5.13154e-05
5.15053e-05
5.16989e-05
5.18953e-05
5.20934e-05
5.2292e-05
5.249e-05
5.26861e-05
5.28791e-05
5.30677e-05
5.32506e-05
5.34264e-05
5.35939e-05
5.37517e-05
5.38989e-05
5.40327e-05
4.81785e-05
4.85949e-05
4.8839e-05
4.89745e-05
4.9051e-05
4.90828e-05
4.90996e-05
4.91192e-05
4.9137e-05
4.91565e-05
4.91768e-05
4.91979e-05
4.92229e-05
4.92531e-05
4.92894e-05
4.93321e-05
4.93817e-05
4.94384e-05
4.95025e-05
4.95743e-05
4.96538e-05
4.97415e-05
4.98373e-05
4.99415e-05
5.00542e-05
5.01752e-05
5.03046e-05
5.04423e-05
5.05879e-05
5.07413e-05
5.09019e-05
5.10694e-05
5.12431e-05
5.14224e-05
5.16064e-05
5.17944e-05
5.19853e-05
5.21783e-05
5.23722e-05
5.25658e-05
5.27581e-05
5.29477e-05
5.31334e-05
5.3314e-05
5.34881e-05
5.36546e-05
5.3812e-05
5.39592e-05
5.40948e-05
5.42179e-05
5.43257e-05
4.90614e-05
4.91893e-05
4.92614e-05
4.92909e-05
4.93061e-05
4.93236e-05
4.93401e-05
4.93578e-05
4.93769e-05
4.93963e-05
4.94197e-05
4.94479e-05
4.9482e-05
4.95223e-05
4.95692e-05
4.96229e-05
4.96837e-05
4.97518e-05
4.98275e-05
4.9911e-05
5.00024e-05
5.01019e-05
5.02096e-05
5.03255e-05
5.04495e-05
5.05815e-05
5.07214e-05
5.08688e-05
5.10235e-05
5.11849e-05
5.13526e-05
5.15259e-05
5.17041e-05
5.18865e-05
5.2072e-05
5.22598e-05
5.24489e-05
5.26382e-05
5.28265e-05
5.30127e-05
5.31955e-05
5.33738e-05
5.35462e-05
5.37115e-05
5.38685e-05
5.40159e-05
5.41525e-05
5.42771e-05
5.43884e-05
5.44857e-05
5.45656e-05
4.9467e-05
4.94944e-05
4.9508e-05
4.95236e-05
4.95389e-05
4.95548e-05
4.95726e-05
4.95905e-05
4.96122e-05
4.96386e-05
4.96704e-05
4.97083e-05
4.97525e-05
4.98032e-05
4.98608e-05
4.99254e-05
4.99973e-05
5.00767e-05
5.01638e-05
5.02587e-05
5.03614e-05
5.04722e-05
5.05908e-05
5.07173e-05
5.08515e-05
5.09931e-05
5.11418e-05
5.12973e-05
5.14591e-05
5.16264e-05
5.17989e-05
5.19755e-05
5.21557e-05
5.23383e-05
5.25226e-05
5.27074e-05
5.28917e-05
5.30744e-05
5.32542e-05
5.34301e-05
5.36007e-05
5.37649e-05
5.39213e-05
5.40689e-05
5.42064e-05
5.43325e-05
5.44462e-05
5.45464e-05
5.46318e-05
5.47016e-05
5.47523e-05
4.97195e-05
4.97332e-05
4.97476e-05
4.97642e-05
4.97806e-05
4.98006e-05
4.98251e-05
4.98548e-05
4.98903e-05
4.99318e-05
4.99797e-05
5.00341e-05
5.00952e-05
5.01634e-05
5.02388e-05
5.03216e-05
5.04119e-05