/*--------------------------------*- C++ -*----------------------------------*\
| =========                 |                                                 |
| \\      /  F ield         | OpenFOAM: The Open Source CFD Toolbox           |
|  \\    /   O peration     | Version:  v1706                                 |
|   \\  /    A nd           | Web:      www.OpenFOAM.com                      |
|    \\/     M anipulation  |                                                 |
\*---------------------------------------------------------------------------*/
FoamFile
{
    version     2.0;
    format      ascii;
    class       volScalarField;
    location    "4e-06";
    object      p;
}
// * * * * * * * * * * * * * * * * * * * * * * * * * * * * * * * * * * * * * //

dimensions      [1 -1 -2 0 0 0 0];


internalField   nonuniform List<scalar> 
30038
(
21.9139
21.9139
21.9139
21.9139
21.9139
21.9139
21.9139
21.9139
21.9139
21.9139
21.9139
21.9139
21.9139
21.9139
21.9139
21.9139
21.9139
21.9139
21.9139
21.9139
21.9139
21.9139
21.9139
21.9139
21.9139
21.9139
21.9139
21.9139
21.9139
21.9139
21.9139
21.9139
21.9139
21.9139
21.9139
21.9139
21.9139
21.9139
21.9139
21.9139
21.9139
21.9139
21.9139
21.9139
21.9139
21.9139
21.9139
21.9139
21.9139
21.9139
21.9139
21.9139
21.9139
21.9139
21.9139
21.9139
21.9139
21.9139
21.9139
21.9139
21.9139
21.9139
21.9139
21.9139
21.9139
21.9139
21.9139
21.9139
21.9139
21.9139
21.9139
21.9139
21.9139
21.9139
21.9139
21.9139
21.9139
21.9139
21.9139
21.9139
21.9139
21.9139
21.9139
21.9139
21.9139
21.9139
21.9139
21.9139
21.9139
21.9139
21.9139
21.9139
21.9139
21.9139
21.9139
21.9139
21.9139
21.9139
21.9139
21.9139
21.9139
21.9139
21.9139
21.9139
21.9139
21.9139
21.9139
21.9139
21.9139
21.9139
21.9139
21.9139
21.9139
21.9139
21.9139
21.9139
21.9139
21.9139
21.9139
21.9139
21.9139
21.9139
21.9139
21.9139
21.9139
21.9139
21.9139
21.9139
21.9139
21.9139
21.9139
21.9139
21.9139
21.9139
21.9139
21.9139
21.9139
21.9139
21.9139
21.9139
21.9139
21.9139
21.9139
21.9139
21.9139
21.9139
21.9139
21.9139
21.9139
21.9139
21.9139
21.9139
21.9139
21.9139
21.9139
21.9139
21.9139
21.9139
21.9139
21.9139
21.9139
21.9139
21.9139
21.9139
21.9139
21.9139
21.9139
21.9139
21.9139
21.9139
21.9139
21.9139
21.9139
21.9139
21.9139
21.9139
21.9139
21.9139
21.9139
21.9139
21.9139
21.9139
21.9139
21.9139
21.9139
21.9139
21.9139
21.9139
21.9139
21.9139
21.9139
21.9139
21.9139
21.9139
21.9139
21.9139
21.9139
21.9139
21.9139
21.9139
21.9139
21.9139
21.9139
21.9139
21.9139
21.9139
21.9139
21.9139
21.9139
21.9139
21.9139
21.9139
21.9139
21.9139
21.9139
21.9139
21.9139
21.9139
21.9139
21.9139
21.9139
21.9139
21.9139
21.9139
21.9139
21.9139
21.9139
21.9139
21.9139
21.9139
21.9139
21.9139
21.9139
21.9139
21.9139
21.9139
21.9139
21.9139
21.9139
21.9139
21.9139
21.9139
21.9139
21.9139
21.9139
21.9139
21.9139
21.9139
21.9139
21.9139
21.9139
21.9139
21.9139
21.9139
21.9139
21.9139
21.9139
21.9139
21.9139
21.9139
21.9139
21.9139
21.9139
21.9139
21.9139
21.9139
21.9139
21.9139
21.9139
21.9139
21.9139
21.9139
21.9139
21.9139
21.9139
21.9139
21.9139
21.9139
21.9139
21.9139
21.9139
21.9139
21.9139
21.9139
21.9139
21.9139
21.9139
21.9139
21.9139
21.9139
21.9139
21.9139
21.9139
21.9139
21.9139
21.9139
21.9139
21.9139
21.9139
21.9139
21.9139
21.9139
21.9139
21.9139
21.9139
21.9139
21.9139
21.9139
21.9139
21.9139
21.9139
21.9139
21.9139
21.9139
21.9139
21.9139
21.9139
21.9139
21.9139
21.9139
21.9139
21.9139
21.9139
21.9139
21.9139
21.9139
21.9139
21.9139
21.9139
21.9139
21.9139
21.9139
21.9139
21.9139
21.9139
21.9139
21.9139
21.9139
21.9139
21.9139
21.9139
21.9139
21.9139
21.9139
21.9139
21.9139
21.9139
21.9139
21.9139
21.9139
21.9139
21.9139
21.9139
21.9139
21.9139
21.9139
21.9139
21.9139
21.9139
21.9139
21.9139
21.9139
21.9139
21.9139
21.9139
21.9139
21.9139
21.9139
21.9139
21.9139
21.9139
21.9139
21.9139
21.9139
21.9139
21.9139
21.9139
21.9139
21.9139
21.9139
21.9139
21.9139
21.9139
21.9139
21.9139
21.9139
21.9139
21.9139
21.9139
21.9139
21.9139
21.9139
21.9139
21.9139
21.9139
21.9139
21.9139
21.9139
21.9139
21.9139
21.9139
21.9139
21.9139
21.9139
21.9139
21.9139
21.9139
21.9139
21.9139
21.9139
21.9139
21.9139
21.9139
21.9139
21.9139
21.9139
21.9139
21.9139
21.9139
21.9139
21.9139
21.9139
21.9139
21.9139
21.9139
21.9139
21.9139
21.9139
21.9139
21.9139
21.9139
21.9139
21.9139
21.9139
21.9139
21.9139
21.9139
21.9139
21.9139
21.9139
21.9139
21.9139
21.9139
21.9139
21.9139
21.9139
21.9139
21.9139
21.9139
21.9139
21.9139
21.9139
21.9139
21.9139
21.9139
21.9139
21.9139
21.9139
21.9139
21.9139
21.9139
21.9139
21.9139
21.9139
21.9139
21.9139
21.9139
21.9139
21.9139
21.9139
21.9139
21.9139
21.9139
21.9139
21.9139
21.9139
21.9139
21.9139
21.9139
21.9139
21.9139
21.9139
21.9139
21.9139
21.9139
21.9139
21.9139
21.9139
21.9139
21.9139
21.9139
21.9139
21.9139
21.9139
21.9139
21.9139
21.9139
21.9139
21.9139
21.9139
21.9139
21.9139
21.9139
21.9139
21.9139
21.9139
21.9139
21.9139
21.9139
21.9139
21.9139
21.9139
21.9139
21.9139
21.9139
21.9139
21.9139
21.9139
21.9139
21.9139
21.9139
21.9139
21.9139
21.9139
21.9139
21.9139
21.9139
21.9139
21.9139
21.9139
21.9139
21.9139
21.9139
21.9139
21.9139
21.9139
21.9139
21.9139
21.9139
21.9139
21.9139
21.9139
21.9139
21.9139
21.9139
21.9139
21.9139
21.9139
21.9139
21.9139
21.9139
21.9139
21.9139
21.9139
21.9139
21.9139
21.9139
21.9139
21.9139
21.9139
21.9139
21.9139
21.9139
21.9139
21.9139
21.9139
21.9139
21.9139
21.9139
21.9139
21.9139
21.9139
21.9139
21.9139
21.9139
21.9139
21.9139
21.9139
21.9139
21.9139
21.9139
21.9139
21.9139
21.9139
21.9139
21.9139
21.9139
21.9139
21.9139
21.9139
21.9139
21.9139
21.9139
21.9139
21.9139
21.9139
21.9139
21.9139
21.9139
21.9139
21.9139
21.9139
21.9139
21.9139
21.9139
21.9139
21.9139
21.9139
21.9139
21.9139
21.9139
21.9139
21.9139
21.9139
21.9139
21.9139
21.9139
21.9139
21.9139
21.9139
21.9139
21.9139
21.9139
21.9139
21.9139
21.9139
21.9139
21.9139
21.9139
21.9139
21.9139
21.9139
21.9139
21.9139
21.9139
21.9139
21.9139
21.9139
21.9139
21.9139
21.9139
21.9139
21.9139
21.9139
21.9139
21.9139
21.9139
21.9139
21.9139
21.9139
21.9139
21.9139
21.9139
21.9139
21.9139
21.9139
21.9139
21.9139
21.9139
21.9139
21.914
21.9139
21.9139
21.9139
21.9139
21.9139
21.9139
21.9139
21.9139
21.9139
21.9139
21.9139
21.9139
21.9139
21.9139
21.9139
21.9139
21.9139
21.9139
21.9139
21.9139
21.9139
21.9139
21.9139
21.9139
21.9139
21.9139
21.9139
21.9139
21.9139
21.9139
21.9139
21.9139
21.9139
21.9139
21.9139
21.9139
21.914
21.914
21.9141
21.9142
21.9139
21.9139
21.9139
21.9139
21.9139
21.9139
21.9139
21.9139
21.9139
21.9139
21.9139
21.9139
21.9139
21.9139
21.9139
21.9139
21.9139
21.9139
21.9139
21.9139
21.9139
21.9139
21.9139
21.9139
21.9139
21.9139
21.9139
21.9139
21.9139
21.9139
21.9139
21.9139
21.9139
21.9139
21.9139
21.914
21.914
21.9141
21.9143
21.9146
21.9152
21.9139
21.9139
21.9139
21.9139
21.9139
21.9139
21.9139
21.9139
21.9139
21.9139
21.9139
21.9139
21.9139
21.9139
21.9139
21.9139
21.9139
21.9139
21.9139
21.9139
21.9139
21.9139
21.9139
21.9139
21.9139
21.9139
21.9139
21.9139
21.9139
21.9139
21.9139
21.9139
21.914
21.914
21.9141
21.9142
21.9145
21.9149
21.9157
21.9172
21.9199
21.9139
21.9139
21.9139
21.9139
21.9139
21.9139
21.9139
21.9139
21.9139
21.9139
21.9139
21.9139
21.9139
21.9139
21.9139
21.9139
21.9139
21.9139
21.9139
21.9139
21.9139
21.9139
21.9139
21.9139
21.9139
21.9139
21.9139
21.9139
21.9139
21.9139
21.914
21.914
21.9141
21.9142
21.9144
21.9148
21.9154
21.9165
21.9185
21.9221
21.9284
21.9407
21.9139
21.9139
21.9139
21.9139
21.9139
21.9139
21.9139
21.9139
21.9139
21.9139
21.9139
21.9139
21.9139
21.9139
21.9139
21.9139
21.9139
21.9139
21.9139
21.9139
21.9139
21.9139
21.9139
21.9139
21.9139
21.9139
21.9139
21.9139
21.9139
21.914
21.914
21.9141
21.9143
21.9146
21.9151
21.9161
21.9177
21.9205
21.9255
21.9343
21.9498
21.9776
22.0307
21.9139
21.9139
21.9139
21.9139
21.9139
21.9139
21.9139
21.9139
21.9139
21.9139
21.9139
21.9139
21.9139
21.9139
21.9139
21.9139
21.9139
21.9139
21.9139
21.9139
21.9139
21.9139
21.9139
21.9139
21.9139
21.9139
21.914
21.914
21.9141
21.9142
21.9145
21.9149
21.9157
21.917
21.9193
21.9233
21.9303
21.9427
21.9643
22.0024
22.0694
22.1887
22.4136
21.9139
21.9139
21.9139
21.9139
21.9139
21.9139
21.9139
21.9139
21.9139
21.9139
21.9139
21.9139
21.9139
21.9139
21.9139
21.9139
21.9139
21.9139
21.9139
21.9139
21.9139
21.9139
21.9139
21.9139
21.914
21.914
21.9141
21.9142
21.9144
21.9147
21.9154
21.9164
21.9183
21.9215
21.9271
21.937
21.9542
21.9843
22.037
22.1293
22.2908
22.5732
23.0694
23.9733
21.9139
21.9139
21.9139
21.9139
21.9139
21.9139
21.9139
21.9139
21.9139
21.9139
21.9139
21.9139
21.9139
21.9139
21.9139
21.9139
21.9139
21.9139
21.9139
21.9139
21.9139
21.9139
21.9139
21.914
21.914
21.9141
21.9143
21.9146
21.9151
21.9159
21.9174
21.92
21.9245
21.9324
21.946
21.9698
22.0114
22.0838
22.2103
22.4305
22.8126
23.4715
24.5961
26.4953
29.7121
21.9139
21.9139
21.9139
21.9139
21.9139
21.9139
21.9139
21.9139
21.9139
21.9139
21.9139
21.9139
21.9139
21.9139
21.9139
21.9139
21.9139
21.9139
21.9139
21.9139
21.9139
21.914
21.914
21.9141
21.9142
21.9145
21.9149
21.9156
21.9168
21.9188
21.9224
21.9287
21.9395
21.9583
21.991
22.0478
22.1466
22.3184
22.6161
23.1292
24.0059
25.4818
27.9113
31.7835
37.7388
46.7222
21.9139
21.9139
21.9139
21.9139
21.9139
21.9139
21.9139
21.9139
21.9139
21.9139
21.9139
21.9139
21.9139
21.9139
21.9139
21.9139
21.9139
21.9139
21.9139
21.9139
21.914
21.914
21.9141
21.9142
21.9144
21.9147
21.9153
21.9162
21.9179
21.9208
21.9257
21.9343
21.9491
21.9748
22.0192
22.0964
22.23
22.4613
22.8598
23.5417
24.6949
26.609
29.6981
34.5002
41.6496
51.8562
65.9509
85.3147
21.9139
21.9139
21.9139
21.9139
21.9139
21.9139
21.9139
21.9139
21.9139
21.9139
21.9139
21.9139
21.9139
21.9139
21.9139
21.9139
21.9139
21.9139
21.914
21.914
21.9141
21.9143
21.9145
21.915
21.9158
21.9171
21.9194
21.9234
21.9301
21.9418
21.962
21.9967
22.0568
22.1607
22.3399
22.6484
23.1767
24.0728
25.5701
28.0149
31.8785
37.7385
46.24
58.0905
74.068
94.9472
121.277
156.798
21.9139
21.9139
21.9139
21.9139
21.9139
21.9139
21.9139
21.9139
21.9139
21.9139
21.9139
21.9139
21.9139
21.9139
21.9139
21.9139
21.9139
21.914
21.914
21.9141
21.9142
21.9144
21.9148
21.9154
21.9165
21.9183
21.9215
21.9268
21.936
21.9518
21.979
22.0258
22.1064
22.2451
22.4834
22.8912
23.5842
24.7479
26.6654
29.7391
34.488
41.513
51.4627
65.0486
83.0337
106.104
135.03
172.193
222.953
296.675
21.9139
21.9139
21.9139
21.9139
21.9139
21.9139
21.9139
21.9139
21.9139
21.9139
21.9139
21.9139
21.9139
21.9139
21.914
21.914
21.9141
21.9142
21.9143
21.9146
21.9151
21.916
21.9175
21.92
21.9242
21.9315
21.9439
21.9651
22.0016
22.0641
22.1713
22.355
22.6691
23.2031
24.1026
25.5951
28.0156
31.8178
37.5547
45.8357
57.306
72.6796
92.6956
118.014
149.658
190.81
247.806
324.085
412.234
503.594
21.9139
21.9139
21.9139
21.9139
21.9139
21.9139
21.9139
21.9139
21.9139
21.9139
21.9139
21.9139
21.914
21.914
21.9141
21.9143
21.9145
21.9149
21.9156
21.9168
21.9188
21.9221
21.9279
21.9376
21.9542
21.9826
22.0311
22.1139
22.2555
22.4969
22.9073
23.5997
24.7542
26.6438
29.6543
34.2814
41.0973
50.7071
63.7515
80.9441
102.993
130.588
165.136
210.76
273.822
355.36
446.023
532.531
605.039
660.366
21.9139
21.9139
21.9139
21.9139
21.9139
21.9139
21.9139
21.9139
21.9139
21.914
21.914
21.9141
21.9142
21.9144
21.9147
21.9153
21.9162
21.9178
21.9205
21.925
21.9327
21.9457
21.9678
22.0054
22.0695
22.1785
22.364
22.6787
23.21
24.0988
25.5634
27.9238
31.6116
37.1529
45.1236
56.1175
70.772
89.7962
113.872
143.798
181.481
231.907
300.903
386.853
478.264
562.232
630.89
681.308
707.577
714.223
21.9139
21.9139
21.9139
21.9139
21.9139
21.9139
21.914
21.914
21.914
21.9141
21.9143
21.9146
21.915
21.9158
21.9171
21.9192
21.9228
21.9288
21.939
21.9563
21.9855
22.035
22.1191
22.2615
22.5027
22.9096
23.5912
24.72
26.5556
29.4634
33.9131
40.4465
49.6313
62.0479
78.3328
99.1858
125.285
157.626
198.695
254.149
328.732
418.011
509.097
590.15
654.988
700.6
720.317
725.147
728.027
729.483
21.9139
21.9139
21.9139
21.9139
21.914
21.914
21.9141
21.9142
21.9145
21.9148
21.9154
21.9164
21.9181
21.921
21.9258
21.9338
21.9473
21.97
22.0084
22.0732
22.1827
22.3675
22.6788
23.2003
24.0664
25.4845
27.7562
31.2885
36.5775
44.1674
54.6095
68.4723
86.3933
109.062
137.194
172.063
216.763
277.33
356.94
448.457
538.392
616.321
677.428
717.69
732.188
736.083
738.854
739.547
738.378
735.965
21.9139
21.914
21.914
21.9141
21.9142
21.9144
21.9147
21.9151
21.916
21.9173
21.9196
21.9234
21.9297
21.9403
21.958
21.9878
22.0379
22.1221
22.2638
22.5018
22.9003
23.5629
24.6528
26.414
29.1896
33.4202
39.6164
48.3121
60.0394
75.359
94.9099
119.378
149.568
187.095
235.638
301.251
385.172
477.906
566.095
640.843
698.179
732.83
743.482
746.738
749.19
749.339
747.963
745.507
741.867
737.017
21.914
21.9141
21.9143
21.9145
21.9149
21.9156
21.9167
21.9185
21.9215
21.9265
21.9348
21.9486
21.9718
22.0106
22.0755
22.1843
22.3665
22.6708
23.1769
24.0114
25.3686
27.5306
30.8775
35.8744
43.0331
52.8694
65.8965
82.6722
103.837
130.09
162.379
202.706
255.241
325.676
413.096
506.164
592.214
663.809
717.26
746.317
754.229
757.144
759.091
758.926
757.432
754.871
751.056
746.445
741.549
736.109
21.9144
21.9147
21.9153
21.9162
21.9176
21.92
21.924
21.9305
21.9414
21.9595
21.9896
22.0397
22.1234
22.2631
22.4956
22.8819
23.5194
24.5605
26.2329
28.8552
32.8384
38.6606
46.824
57.8213
72.1513
90.3729
113.131
141.161
175.604
218.863
275.462
350.355
440.43
533.112
616.799
685.29
734.678
758.491
764.596
767.326
768.797
768.333
766.78
764.099
760.236
755.717
750.824
745.698
740.596
735.112
21.9157
21.9169
21.9188
21.922
21.9272
21.9357
21.9499
21.9733
22.0122
22.0768
22.184
22.362
22.657
23.1435
23.9399
25.2266
27.2649
30.4071
35.0862
41.7822
50.9786
63.1452
78.7714
98.4209
122.748
152.555
189.218
235.522
296.16
375.036
466.954
558.695
639.914
705.336
750.526
769.693
774.676
777.295
778.294
777.616
775.985
773.196
769.332
764.9
760.109
755.127
750.053
744.898
739.826
734.372
21.9204
21.9245
21.9313
21.9424
21.9608
21.991
22.041
22.1236
22.2601
22.4857
22.8572
23.4655
24.4519
26.0264
28.4832
32.2025
37.63
45.2365
55.4817
68.8151
85.7231
106.777
132.649
164.241
203.191
252.618
317.179
399.488
492.508
582.909
661.629
724.012
764.935
780.304
784.514
787.047
787.582
786.751
785.04
782.176
778.342
773.999
769.319
764.467
759.522
754.512
749.458
744.334
739.3
733.866
21.9366
21.951
21.9746
22.0134
22.0773
22.1823
22.3552
22.6393
23.1039
23.8586
25.0695
26.9769
29.905
34.2546
40.4737
49.0155
60.314
74.8035
92.9726
115.403
142.798
176.189
217.484
270.071
338.348
423.5
516.98
605.772
682.01
741.354
778.085
790.553
794.122
796.491
796.641
795.733
793.949
791.041
787.262
783.01
778.446
773.724
768.909
764.03
759.098
754.113
749.084
743.983
738.979
733.562
21.9922
22.0418
22.1229
22.2559
22.4735
22.8288
23.4059
24.3347
25.8078
28.0947
31.5452
36.5721
43.616
53.1066
65.4535
81.0819
100.487
124.265
153.166
188.372
232.058
287.789
359.501
446.9
540.312
627.323
701.128
757.445
790.168
800.36
803.506
805.526
805.529
804.561
802.727
799.797
796.09
791.932
787.486
782.891
778.206
773.455
768.649
763.789
758.875
753.906
748.896
743.818
738.849
733.461
22.18
22.3473
22.6196
23.0613
23.7729
24.9066
26.6819
29.3954
33.4159
39.1595
47.051
57.4936
70.8764
87.6217
108.235
133.331
163.723
200.761
246.865
305.676
380.487
469.558
562.466
647.599
719.011
772.333
801.351
809.814
812.68
814.385
814.261
813.258
811.38
808.45
804.82
800.759
796.433
791.965
787.408
782.784
778.103
773.365
768.571
763.721
758.82
753.868
748.884
743.838
738.918
733.576
22.7992
23.3447
24.2157
25.5879
27.707
30.8928
35.526
42.017
50.7685
62.1576
76.558
94.3946
116.186
142.573
174.444
213.326
261.853
323.634
401.171
491.38
583.443
666.65
735.732
786.112
811.827
818.985
821.665
823.08
822.844
821.821
819.903
816.995
813.448
809.489
805.283
800.94
796.509
792.011
787.453
782.837
778.162
773.431
768.644
763.806
758.924
754
749.055
744.058
739.201
733.921
23.688
24.746
26.3925
28.8974
32.5987
37.8807
45.1405
54.7554
67.0783
82.4735
101.373
124.313
151.963
185.303
226.033
276.964
341.56
421.437
512.306
603.274
684.543
751.364
798.901
821.71
827.907
830.463
831.613
831.298
830.252
828.299
825.427
821.966
818.113
814.029
809.812
805.505
801.131
796.696
792.2
787.644
783.03
778.358
773.634
768.861
764.046
759.196
754.315
749.424
744.49
739.711
734.508
27.3344
30.2666
34.5221
40.4817
48.5228
58.996
72.2342
88.5985
108.532
132.59
161.478
196.275
238.85
292.137
359.36
441.197
532.309
621.983
701.333
765.939
810.796
831.089
836.597
839.059
839.98
839.622
838.546
836.575
833.75
830.377
826.63
822.667
818.574
814.392
810.141
805.826
801.45
797.013
792.514
787.958
783.346
778.684
773.978
769.232
764.454
759.652
754.828
750.006
745.149
740.457
735.345
31.8263
36.6698
43.3276
52.1536
63.4731
77.6042
94.9096
115.847
140.991
171.096
207.337
251.739
307.31
376.947
460.373
551.376
639.617
717.072
779.556
821.886
840.089
845.073
847.476
848.188
847.801
846.698
844.73
841.964
838.68
835.04
831.196
827.224
823.165
819.035
814.841
810.584
806.263
801.881
797.438
792.939
788.388
783.79
779.15
774.475
769.771
765.044
760.303
755.55
750.809
746.04
741.447
736.435
46.414
56.021
68.1692
83.1674
101.385
123.295
149.496
180.793
218.463
264.662
322.419
394.24
478.919
569.524
656.223
731.822
792.25
832.275
848.75
853.346
855.699
856.244
855.839
854.712
852.761
850.063
846.871
843.341
839.615
835.763
831.823
827.813
823.737
819.597
815.392
811.125
806.796
802.41
797.969
793.479
788.945
784.374
779.77
775.14
770.491
765.828
761.161
756.49
751.841
747.17
742.683
737.781
73.0675
88.9049
108.004
130.855
158.085
190.551
229.63
277.583
337.409
411.176
496.799
586.759
671.836
745.61
804.102
842.036
857.107
861.422
863.719
864.145
863.725
862.591
860.672
858.046
854.949
851.529
847.92
844.186
840.365
836.472
832.512
828.488
824.399
820.245
816.029
811.754
807.424
803.042
798.614
794.146
789.643
785.111
780.556
775.984
771.403
766.816
762.233
757.654
753.105
748.539
744.165
739.378
114.749
138.511
166.739
200.349
240.81
290.462
352.219
427.685
513.982
603.129
686.526
758.535
815.196
851.297
865.202
869.304
871.565
871.9
871.465
870.334
868.457
865.91
862.911
859.602
856.108
852.492
848.787
845.01
841.166
837.256
833.28
829.239
825.135
820.971
816.749
812.476
808.154
803.789
799.387
794.954
790.494
786.014
781.52
777.018
772.514
768.013
763.522
759.043
754.602
750.148
745.889
741.22
175.445
210.171
251.981
303.265
366.803
443.727
530.461
618.695
700.354
770.615
825.564
860.04
873.089
876.992
879.228
879.507
879.065
877.948
876.12
873.655
870.754
867.555
864.177
860.677
857.088
853.426
849.696
845.898
842.034
838.105
834.112
830.058
825.945
821.778
817.562
813.301
809
804.665
800.301
795.914
791.51
787.093
782.67
778.247
773.829
769.421
765.032
760.659
756.33
751.988
747.842
743.286
263.121
315.958
381.12
459.259
546.218
633.491
713.404
781.906
835.278
868.368
880.765
884.498
886.674
886.963
886.518
885.432
883.661
881.279
878.478
875.389
872.125
868.739
865.265
861.717
858.099
854.414
850.661
846.842
842.959
839.013
835.009
830.948
826.837
822.679
818.479
814.243
809.975
805.682
801.367
797.037
792.698
788.354
784.011
779.675
775.351
771.043
766.759
762.496
758.277
754.044
750.005
745.563
395.138
474.263
561.237
647.507
725.734
792.458
844.35
876.294
888.182
891.826
893.963
894.279
893.835
892.782
891.073
888.781
886.082
883.102
879.95
876.678
873.317
869.881
866.375
862.8
859.158
855.449
851.674
847.837
843.939
839.985
835.978
831.923
827.824
823.686
819.515
815.314
811.091
806.848
802.593
798.33
794.064
789.801
785.546
781.303
777.079
772.875
768.697
764.539
760.426
756.298
752.376
748.072
660.743
737.4
802.392
852.854
883.845
895.402
898.973
901.072
901.446
901.022
900.013
898.366
896.16
893.562
890.692
887.652
884.492
881.242
877.917
874.521
871.056
867.523
863.923
860.257
856.527
852.735
848.886
844.983
841.031
837.032
832.993
828.918
824.811
820.678
816.525
812.354
808.173
803.985
799.797
795.612
791.437
787.275
783.131
779.007
774.905
770.828
766.771
762.77
758.767
754.995
750.857
811.787
860.871
891.073
902.402
905.98
908.054
908.465
908.063
907.106
905.532
903.421
900.925
898.161
895.23
892.18
889.04
885.824
882.537
879.18
875.756
872.263
868.704
865.081
861.396
857.652
853.852
850.001
846.103
842.163
838.183
834.171
830.129
826.064
821.98
817.881
813.773
809.66
805.548
801.441
797.344
793.261
789.195
785.148
781.121
777.115
773.141
769.202
765.341
761.497
757.882
753.868
898.026
909.229
912.784
914.865
915.361
914.994
914.078
912.571
910.553
908.161
905.506
902.684
899.742
896.71
893.602
890.422
887.173
883.855
880.469
877.017
873.499
869.919
866.279
862.583
858.834
855.036
851.194
847.311
843.392
839.442
835.466
831.468
827.452
823.424
819.389
815.35
811.313
807.282
803.262
799.256
795.266
791.293
787.338
783.407
779.509
775.663
771.875
768.173
764.461
760.893
756.779
921.547
922.086
921.777
920.929
919.499
917.573
915.278
912.727
910.011
907.177
904.252
901.25
898.176
895.032
891.82
888.54
885.193
881.781
878.305
874.769
871.175
867.527
863.829
860.085
856.299
852.474
848.616
844.729
840.818
836.886
832.939
828.982
825.017
821.052
817.089
813.133
809.188
805.257
801.339
797.437
793.554
789.698
785.883
782.125
778.434
774.784
771.167
767.391
763.72
759.677
928.437
927.647
926.293
924.467
922.278
919.83
917.218
914.487
911.666
908.768
905.798
902.759
899.652
896.476
893.234
889.925
886.553
883.119
879.628
876.081
872.482
868.836
865.146
861.416
857.65
853.853
850.029
846.182
842.317
838.438
834.549
830.656
826.762
822.872
818.99
815.119
811.259
807.411
803.579
799.767
795.989
792.261
788.594
784.978
781.394
777.737
774.005
770.224
766.788
763.045
932.968
931.238
929.151
926.808
924.301
921.674
918.955
916.158
913.29
910.354
907.349
904.276
901.137
897.932
894.662
891.331
887.94
884.494
880.995
877.446
873.852
870.216
866.543
862.836
859.099
855.338
851.555
847.756
843.944
840.124
836.3
832.478
828.66
824.85
821.049
817.258
813.478
809.715
805.978
802.281
798.641
795.056
791.507
787.93
784.252
780.53
776.969
773.478
770.228
766.447
935.906
933.664
931.258
928.733
926.115
923.42
920.653
917.817
914.913
911.942
908.904
905.801
902.633
899.403
896.113
892.766
889.366
885.915
882.416
878.875
875.294
871.677
868.029
864.353
860.654
856.935
853.201
849.455
845.703
841.949
838.196
834.449
830.708
826.975
823.251
819.538
815.846
812.186
808.574
805.018
801.502
797.991
794.392
790.716
787.115
783.668
780.347
776.89
773.568
769.804
938.095
935.667
933.149
930.552
927.885
925.148
922.345
919.474
916.536
913.533
910.465
907.335
904.145
900.898
897.595
894.241
890.839
887.391
883.903
880.377
876.817
873.227
869.611
865.974
862.319
858.649
854.97
851.285
847.599
843.915
840.235
836.562
832.895
829.236
825.591
821.971
818.391
814.864
811.382
807.922
804.407
800.792
797.184
793.733
790.403
787.07
783.695
780.191
776.991
773.366
940.056
937.557
934.986
932.348
929.642
926.87
924.031
921.128
918.16
915.129
912.038
908.888
905.683
902.426
899.119
895.765
892.369
888.934
885.462
881.959
878.428
874.873
871.297
867.704
864.099
860.485
856.866
853.247
849.63
846.017
842.409
838.806
835.211
831.635
828.092
824.594
821.145
817.725
814.287
810.75
807.168
803.689
800.365
797.09
793.766
790.361
787.027
783.682
780.583
777.019
941.957
939.415
936.806
934.131
931.391
928.585
925.715
922.783
919.79
916.738
913.63
910.468
907.256
903.997
900.693
897.348
893.966
890.549
887.103
883.63
880.134
876.619
873.089
869.547
865.998
862.445
858.892
855.34
851.791
848.246
844.705
841.177
837.673
834.208
830.79
827.409
824.033
820.586
817.051
813.556
810.226
806.976
803.723
800.391
797.037
793.748
790.554
787.289
784.193
780.664
941.258
938.614
935.906
933.133
930.298
927.402
924.447
921.435
918.369
915.252
912.085
908.873
905.619
902.326
898.997
895.636
892.246
888.831
885.394
881.94
878.471
874.992
871.507
868.018
864.53
861.042
857.555
854.071
850.594
847.133
843.703
840.317
836.972
833.646
830.283
826.821
823.339
819.982
816.752
813.551
810.297
806.983
803.691
800.488
797.301
794.149
790.883
787.804
784.303
943.088
940.412
937.674
934.874
932.015
929.099
926.128
923.104
920.031
916.911
913.747
910.543
907.301
904.026
900.719
897.386
894.028
890.651
887.256
883.849
880.432
877.01
873.585
870.159
866.733
863.307
859.883
856.47
853.08
849.726
846.415
843.133
839.842
836.47
833.027
829.646
826.423
823.249
820.071
816.825
813.542
810.332
807.178
804.047
800.876
797.735
794.474
791.477
787.974
944.91
942.206
939.442
936.621
933.745
930.815
927.835
924.806
921.733
918.617
915.463
912.273
909.051
905.799
902.521
899.221
895.902
892.567
889.22
885.865
882.505
879.142
875.777
872.411
869.044
865.682
862.335
859.017
855.74
852.497
849.264
845.982
842.605
839.228
835.981
832.841
829.713
826.542
823.313
820.092
816.95
813.845
810.732
807.609
804.44
801.36
798.121
795.168
791.65
944.002
941.219
938.383
935.495
932.558
929.575
926.549
923.482
920.378
917.24
914.07
910.873
907.651
904.407
901.146
897.87
894.583
891.289
887.99
884.688
881.383
878.075
874.767
871.467
868.189
864.945
861.739
858.554
855.351
852.063
848.717
845.447
842.322
839.223
836.128
832.973
829.772
826.624
823.54
820.472
817.389
814.28
811.184
808.059
805.028
801.777
798.858
795.324
945.808
943.012
940.167
937.274
934.337
931.358
928.34
925.286
922.199
919.083
915.939
912.773
909.586
906.382
903.165
899.937
896.703
893.464
890.221
886.973
883.723
880.475
877.24
874.032
870.861
867.719
864.58
861.385
858.101
854.829
851.685
848.63
845.577
842.498
839.363
836.211
833.134
830.099
827.063
824.005
820.93
817.858
814.82
811.705
808.703
805.433
802.545
798.985
944.83
941.982
939.091
936.159
933.19
930.186
927.151
924.087
920.998
917.886
914.755
911.608
908.449
905.28
902.105
898.924
895.739
892.547
889.354
886.167
882.999
879.863
876.76
873.673
870.561
867.363
864.119
860.955
857.919
854.901
851.889
848.831
845.723
842.637
839.621
836.625
833.618
830.587
827.546
824.525
821.488
818.473
815.355
812.384
809.081
806.226
802.626
946.68
943.835
940.951
938.031
935.077
932.093
929.082
926.046
922.988
919.913
916.823
913.721
910.611
907.493
904.37
901.24
898.104
894.969
891.845
888.746
885.68
882.638
879.594
876.491
873.306
870.138
867.09
864.12
861.142
858.16
855.128
852.056
849.039
846.074
843.117
840.137
837.138
834.138
831.15
828.16
825.127
822.14
819
816.07
812.711
809.897
806.24
945.733
942.861
939.958
937.025
934.066
931.083
928.08
925.06
922.026
918.981
915.927
912.866
909.798
906.723
903.643
900.567
897.508
894.478
891.477
888.487
885.47
882.37
879.229
876.166
873.214
870.281
867.35
864.395
861.389
858.368
855.418
852.499
849.573
846.624
843.656
840.702
837.75
834.777
831.812
828.769
825.823
822.631
819.764
816.311
813.561
809.825
947.681
944.827
941.946
939.038
936.107
933.158
930.193
927.214
924.225
921.228
918.222
915.208
912.186
909.163
906.149
903.156
900.193
897.252
894.304
891.298
888.216
885.151
882.196
879.308
876.409
873.522
870.595
867.621
864.663
861.77
858.891
855.997
853.078
850.151
847.236
844.314
841.387
838.413
835.483
832.404
829.522
826.235
823.467
819.873
817.222
813.382
949.684
946.852
943.996
941.118
938.223
935.312
932.389
929.455
926.512
923.56
920.599
917.631
914.665
911.714
908.788
905.889
902.997
900.076
897.079
894.042
891.077
888.208
885.361
882.509
879.656
876.76
873.825
870.932
868.088
865.248
862.385
859.501
856.617
853.74
850.857
847.943
845.044
842.053
839.174
836.024
833.237
829.807
827.177
823.403
820.879
816.916
951.746
948.941
946.115
943.273
940.415
937.546
934.666
931.776
928.876
925.967
923.055
920.148
917.261
914.401
911.558
908.708
905.803
902.827
899.863
896.999
894.189
891.379
888.576
885.756
882.892
880.002
877.173
874.376
871.571
868.741
865.893
863.054
860.217
857.358
854.498
851.584
848.721
845.691
842.882
839.626
836.963
833.35
830.887
826.914
824.522
820.432
953.868
951.095
948.305
945.502
942.687
939.86
937.022
934.173
931.317
928.46
925.615
922.792
919.992
917.198
914.377
911.485
908.553
905.683
902.899
900.135
897.363
894.608
891.821
888.992
886.158
883.386
880.631
877.86
875.065
872.257
869.462
866.657
863.843
860.994
858.161
855.234
852.414
849.325
846.601
843.212
840.689
836.883
834.583
830.43
828.128
823.937
956.059
953.322
950.571
947.807
945.031
942.244
939.446
936.642
933.843
931.059
928.299
925.555
922.803
920.001
917.132
914.27
911.494
908.765
906.043
903.319
900.604
897.852
895.06
892.286
889.565
886.85
884.114
881.354
878.592
875.836
873.071
870.283
867.49
864.647
861.84
858.89
856.12
852.955
850.323
846.793
844.403
840.426
838.241
833.963
831.686
827.429
958.318
955.619
952.907
950.181
947.444
944.698
941.949
939.208
936.486
933.785
931.089
928.368
925.582
922.756
919.981
917.28
914.597
911.916
909.242
906.564
903.848
901.098
898.383
895.709
893.033
890.332
887.611
884.894
882.179
879.448
876.703
873.929
871.157
868.312
865.533
862.551
859.831
856.586
854.037
850.383
848.087
843.998
841.846
837.509
835.203
830.907
957.985
955.308
952.62
949.925
947.23
944.549
941.887
939.24
936.585
933.887
931.127
928.365
925.677
923.032
920.393
917.753
915.128
912.487
909.81
907.103
904.446
901.818
899.18
896.515
893.835
891.163
888.486
885.794
883.082
880.357
877.593
874.839
871.988
869.234
866.216
863.54
860.222
857.732
853.994
851.727
847.596
845.405
841.057
838.686
834.369
960.408
957.77
955.128
952.491
949.869
947.264
944.664
942.043
939.365
936.645
933.963
931.347
928.747
926.153
923.557
920.977
918.374
915.734
913.077
910.476
907.89
905.288
902.661
900.025
897.396
894.758
892.103
889.432
886.736
884.028
881.271
878.532
875.672
872.938
869.887
867.238
863.871
861.397
857.63
855.323
851.204
848.927
844.6
842.14
837.816
962.897
960.307
957.727
955.162
952.609
950.051
947.456
944.804
942.142
939.542
936.98
934.424
931.874
929.325
926.787
924.223
921.623
919.019
916.467
913.922
911.357
908.769
906.177
903.591
900.992
898.376
895.741
893.088
890.406
887.712
884.959
882.232
879.361
876.639
873.564
870.921
867.534
865.028
861.277
858.887
854.81
852.422
848.132
845.568
841.246
962.936
960.426
957.921
955.398
952.827
950.212
947.623
945.092
942.576
940.064
937.557
935.056
932.558
930.033
927.474
924.923
922.418
919.913
917.385
914.837
912.291
909.746
907.186
904.609
902.014
899.397
896.76
894.088
891.405