/*--------------------------------*- C++ -*----------------------------------*\
| =========                 |                                                 |
| \\      /  F ield         | OpenFOAM: The Open Source CFD Toolbox           |
|  \\    /   O peration     | Version:  v1706                                 |
|   \\  /    A nd           | Web:      www.OpenFOAM.com                      |
|    \\/     M anipulation  |                                                 |
\*---------------------------------------------------------------------------*/
FoamFile
{
    version     2.0;
    format      ascii;
    class       volScalarField;
    location    "4e-06";
    object      rho;
}
// * * * * * * * * * * * * * * * * * * * * * * * * * * * * * * * * * * * * * //

dimensions      [1 -3 0 0 0 0 0];


internalField   nonuniform List<scalar> 
30038
(
0.000511309
0.000511309
0.000511309
0.000511309
0.000511309
0.000511309
0.000511309
0.000511309
0.000511309
0.000511309
0.000511309
0.000511309
0.000511309
0.000511309
0.000511309
0.000511309
0.000511309
0.000511309
0.000511309
0.000511309
0.000511309
0.000511309
0.000511309
0.000511309
0.000511309
0.000511309
0.000511309
0.000511309
0.000511309
0.000511309
0.000511309
0.000511309
0.000511309
0.000511309
0.000511309
0.000511309
0.000511309
0.000511309
0.000511309
0.000511309
0.000511309
0.000511309
0.000511309
0.000511309
0.000511309
0.000511309
0.000511309
0.000511309
0.000511309
0.000511309
0.000511309
0.000511309
0.000511309
0.000511309
0.000511309
0.000511309
0.000511309
0.000511309
0.000511309
0.000511309
0.000511309
0.000511309
0.000511309
0.000511309
0.000511309
0.000511309
0.000511309
0.000511309
0.000511309
0.000511309
0.000511309
0.000511309
0.000511309
0.000511309
0.000511309
0.000511309
0.000511309
0.000511309
0.000511309
0.000511309
0.000511309
0.000511309
0.000511309
0.000511309
0.000511309
0.000511309
0.000511309
0.000511309
0.000511309
0.000511309
0.000511309
0.000511309
0.000511309
0.000511309
0.000511309
0.000511309
0.000511309
0.000511309
0.000511309
0.000511309
0.000511309
0.000511309
0.000511309
0.000511309
0.000511309
0.000511309
0.000511309
0.000511309
0.000511309
0.000511309
0.000511309
0.000511309
0.000511309
0.000511309
0.000511309
0.000511309
0.000511309
0.000511309
0.000511309
0.000511309
0.000511309
0.000511309
0.000511309
0.000511309
0.000511309
0.000511309
0.000511309
0.000511309
0.000511309
0.000511309
0.000511309
0.000511309
0.000511309
0.000511309
0.000511309
0.000511309
0.000511309
0.000511309
0.000511309
0.000511309
0.000511309
0.000511309
0.000511309
0.000511309
0.000511309
0.000511309
0.000511309
0.000511309
0.000511309
0.000511309
0.000511309
0.000511309
0.000511309
0.000511309
0.000511309
0.000511309
0.000511309
0.000511309
0.000511309
0.000511309
0.000511309
0.000511309
0.000511309
0.000511309
0.000511309
0.000511309
0.000511309
0.000511309
0.000511309
0.000511309
0.000511309
0.000511309
0.000511309
0.000511309
0.000511309
0.000511309
0.000511309
0.000511309
0.000511309
0.000511309
0.000511309
0.000511309
0.000511309
0.000511309
0.000511309
0.000511309
0.000511309
0.000511309
0.000511309
0.000511309
0.000511309
0.000511309
0.000511309
0.000511309
0.000511309
0.000511309
0.000511309
0.000511309
0.000511309
0.000511309
0.000511309
0.000511309
0.000511309
0.000511309
0.000511309
0.000511309
0.000511309
0.000511309
0.000511309
0.000511309
0.000511309
0.000511309
0.000511309
0.000511309
0.000511309
0.000511309
0.000511309
0.000511309
0.000511309
0.000511309
0.000511309
0.000511309
0.000511309
0.000511309
0.000511309
0.000511309
0.000511309
0.000511309
0.000511309
0.000511309
0.000511309
0.000511309
0.000511309
0.000511309
0.000511309
0.000511309
0.000511309
0.000511309
0.000511309
0.000511309
0.000511309
0.000511309
0.000511309
0.000511309
0.000511309
0.000511309
0.000511309
0.000511309
0.000511309
0.000511309
0.000511309
0.000511309
0.000511309
0.000511309
0.000511309
0.000511309
0.000511309
0.000511309
0.000511309
0.000511309
0.000511309
0.000511309
0.000511309
0.000511309
0.000511309
0.000511309
0.000511309
0.000511309
0.000511309
0.000511309
0.000511309
0.000511309
0.000511309
0.000511309
0.000511309
0.000511309
0.000511309
0.000511309
0.000511309
0.000511309
0.000511309
0.000511309
0.000511309
0.000511309
0.000511309
0.000511309
0.000511309
0.000511309
0.000511309
0.000511309
0.000511309
0.000511309
0.000511309
0.000511309
0.000511309
0.000511309
0.000511309
0.000511309
0.000511309
0.000511309
0.000511309
0.000511309
0.000511309
0.000511309
0.000511309
0.000511309
0.000511309
0.000511309
0.000511309
0.000511309
0.000511309
0.000511309
0.000511309
0.000511309
0.000511309
0.000511309
0.000511309
0.000511309
0.000511309
0.000511309
0.000511309
0.000511309
0.000511309
0.000511309
0.000511309
0.000511309
0.000511309
0.000511309
0.000511309
0.000511309
0.000511309
0.000511309
0.000511309
0.000511309
0.000511309
0.000511309
0.000511309
0.000511309
0.000511309
0.000511309
0.000511309
0.000511309
0.000511309
0.000511309
0.000511309
0.000511309
0.000511309
0.000511309
0.000511309
0.000511309
0.000511309
0.000511309
0.000511309
0.000511309
0.000511309
0.000511309
0.000511309
0.000511309
0.000511309
0.000511309
0.000511309
0.000511309
0.000511309
0.000511309
0.000511309
0.000511309
0.000511309
0.000511309
0.000511309
0.000511309
0.000511309
0.000511309
0.000511309
0.000511309
0.000511309
0.000511309
0.000511309
0.000511309
0.000511309
0.000511309
0.000511309
0.000511309
0.000511309
0.000511309
0.000511309
0.000511309
0.000511309
0.000511309
0.000511309
0.000511309
0.000511309
0.000511309
0.000511309
0.000511309
0.000511309
0.000511309
0.000511309
0.000511309
0.000511309
0.000511309
0.000511309
0.000511309
0.000511309
0.000511309
0.000511309
0.000511309
0.000511309
0.000511309
0.000511309
0.000511309
0.000511309
0.000511309
0.000511309
0.000511309
0.000511309
0.000511309
0.000511309
0.000511309
0.000511309
0.000511309
0.000511309
0.000511309
0.000511309
0.000511309
0.000511309
0.000511309
0.000511309
0.000511309
0.000511309
0.000511309
0.000511309
0.000511309
0.000511309
0.000511309
0.000511309
0.000511309
0.000511309
0.000511309
0.000511309
0.000511309
0.000511309
0.000511309
0.000511309
0.000511309
0.000511309
0.000511309
0.000511309
0.000511309
0.000511309
0.000511309
0.000511309
0.000511309
0.000511309
0.000511309
0.000511309
0.000511309
0.000511309
0.000511309
0.000511309
0.000511309
0.000511309
0.000511309
0.000511309
0.000511309
0.000511309
0.000511309
0.000511309
0.000511309
0.000511309
0.000511309
0.000511309
0.000511309
0.000511309
0.000511309
0.000511309
0.000511309
0.000511309
0.000511309
0.000511309
0.000511309
0.000511309
0.000511309
0.000511309
0.000511309
0.000511309
0.000511309
0.000511309
0.000511309
0.000511309
0.000511309
0.000511309
0.000511309
0.000511309
0.000511309
0.000511309
0.000511309
0.000511309
0.000511309
0.000511309
0.000511309
0.000511309
0.000511309
0.000511309
0.000511309
0.000511309
0.000511309
0.000511309
0.000511309
0.000511309
0.000511309
0.000511309
0.000511309
0.000511309
0.000511309
0.000511309
0.000511309
0.000511309
0.000511309
0.000511309
0.000511309
0.000511309
0.000511309
0.000511309
0.000511309
0.000511309
0.000511309
0.000511309
0.000511309
0.000511309
0.000511309
0.000511309
0.000511309
0.000511309
0.000511309
0.000511309
0.000511309
0.000511309
0.000511309
0.000511309
0.000511309
0.000511309
0.000511309
0.000511309
0.000511309
0.000511309
0.000511309
0.000511309
0.000511309
0.000511309
0.000511309
0.000511309
0.000511309
0.000511309
0.000511309
0.000511309
0.000511309
0.000511309
0.000511309
0.000511309
0.000511309
0.000511309
0.000511309
0.000511309
0.000511309
0.000511309
0.000511309
0.000511309
0.000511309
0.000511309
0.000511309
0.000511309
0.000511309
0.000511309
0.000511309
0.000511309
0.000511309
0.000511309
0.000511309
0.000511309
0.000511309
0.000511309
0.000511309
0.000511309
0.000511309
0.000511309
0.000511309
0.000511309
0.000511309
0.000511309
0.000511309
0.000511309
0.000511309
0.000511309
0.000511309
0.000511309
0.000511309
0.000511309
0.000511309
0.000511309
0.000511309
0.000511309
0.000511309
0.000511309
0.000511309
0.000511309
0.000511309
0.000511309
0.000511309
0.000511309
0.000511309
0.000511309
0.000511309
0.000511309
0.000511309
0.000511309
0.000511309
0.000511309
0.000511309
0.000511309
0.000511309
0.000511309
0.000511309
0.000511309
0.000511309
0.000511309
0.000511309
0.000511309
0.000511309
0.000511309
0.000511309
0.000511309
0.000511309
0.000511309
0.000511309
0.000511309
0.000511309
0.000511309
0.000511309
0.000511309
0.000511309
0.000511309
0.000511309
0.000511309
0.000511309
0.000511309
0.000511309
0.000511309
0.000511309
0.000511309
0.000511309
0.000511309
0.000511309
0.000511309
0.000511309
0.000511309
0.000511309
0.000511309
0.000511309
0.000511309
0.000511309
0.00051131
0.000511309
0.000511309
0.000511309
0.000511309
0.000511309
0.000511309
0.000511309
0.000511309
0.000511309
0.000511309
0.000511309
0.000511309
0.000511309
0.000511309
0.000511309
0.000511309
0.000511309
0.000511309
0.000511309
0.000511309
0.000511309
0.000511309
0.000511309
0.000511309
0.000511309
0.000511309
0.000511309
0.000511309
0.000511309
0.000511309
0.000511309
0.000511309
0.000511309
0.000511309
0.000511309
0.000511309
0.000511309
0.00051131
0.00051131
0.00051131
0.000511309
0.000511309
0.000511309
0.000511309
0.000511309
0.000511309
0.000511309
0.000511309
0.000511309
0.000511309
0.000511309
0.000511309
0.000511309
0.000511309
0.000511309
0.000511309
0.000511309
0.000511309
0.000511309
0.000511309
0.000511309
0.000511309
0.000511309
0.000511309
0.000511309
0.000511309
0.000511309
0.000511309
0.000511309
0.000511309
0.000511309
0.000511309
0.000511309
0.000511309
0.000511309
0.00051131
0.00051131
0.00051131
0.00051131
0.000511311
0.000511313
0.000511309
0.000511309
0.000511309
0.000511309
0.000511309
0.000511309
0.000511309
0.000511309
0.000511309
0.000511309
0.000511309
0.000511309
0.000511309
0.000511309
0.000511309
0.000511309
0.000511309
0.000511309
0.000511309
0.000511309
0.000511309
0.000511309
0.000511309
0.000511309
0.000511309
0.000511309
0.000511309
0.000511309
0.000511309
0.000511309
0.000511309
0.000511309
0.000511309
0.00051131
0.00051131
0.00051131
0.000511311
0.000511312
0.000511314
0.000511317
0.000511323
0.000511309
0.000511309
0.000511309
0.000511309
0.000511309
0.000511309
0.000511309
0.000511309
0.000511309
0.000511309
0.000511309
0.000511309
0.000511309
0.000511309
0.000511309
0.000511309
0.000511309
0.000511309
0.000511309
0.000511309
0.000511309
0.000511309
0.000511309
0.000511309
0.000511309
0.000511309
0.000511309
0.000511309
0.000511309
0.000511309
0.000511309
0.00051131
0.00051131
0.00051131
0.000511311
0.000511311
0.000511313
0.000511315
0.00051132
0.000511328
0.000511342
0.00051137
0.000511309
0.000511309
0.000511309
0.000511309
0.000511309
0.000511309
0.000511309
0.000511309
0.000511309
0.000511309
0.000511309
0.000511309
0.000511309
0.000511309
0.000511309
0.000511309
0.000511309
0.000511309
0.000511309
0.000511309
0.000511309
0.000511309
0.000511309
0.000511309
0.000511309
0.000511309
0.000511309
0.000511309
0.000511309
0.00051131
0.00051131
0.00051131
0.00051131
0.000511311
0.000511312
0.000511314
0.000511318
0.000511324
0.000511335
0.000511355
0.000511389
0.000511447
0.000511565
0.000511309
0.000511309
0.000511309
0.000511309
0.000511309
0.000511309
0.000511309
0.000511309
0.000511309
0.000511309
0.000511309
0.000511309
0.000511309
0.000511309
0.000511309
0.000511309
0.000511309
0.000511309
0.000511309
0.000511309
0.000511309
0.000511309
0.000511309
0.000511309
0.000511309
0.000511309
0.000511309
0.00051131
0.00051131
0.00051131
0.000511311
0.000511312
0.000511313
0.000511316
0.000511321
0.00051133
0.000511346
0.000511373
0.000511419
0.0005115
0.00051164
0.000511884
0.000512364
0.000511309
0.000511309
0.000511309
0.000511309
0.000511309
0.000511309
0.000511309
0.000511309
0.000511309
0.000511309
0.000511309
0.000511309
0.000511309
0.000511309
0.000511309
0.000511309
0.000511309
0.000511309
0.000511309
0.000511309
0.000511309
0.000511309
0.000511309
0.000511309
0.000511309
0.00051131
0.00051131
0.00051131
0.00051131
0.000511311
0.000511313
0.000511315
0.000511319
0.000511326
0.000511338
0.00051136
0.000511396
0.00051146
0.00051157
0.000511761
0.000512093
0.00051266
0.000513631
0.000515495
0.000511309
0.000511309
0.000511309
0.000511309
0.000511309
0.000511309
0.000511309
0.000511309
0.000511309
0.000511309
0.000511309
0.000511309
0.000511309
0.000511309
0.000511309
0.000511309
0.000511309
0.000511309
0.000511309
0.000511309
0.000511309
0.000511309
0.000511309
0.00051131
0.00051131
0.00051131
0.00051131
0.000511311
0.000511312
0.000511314
0.000511317
0.000511323
0.000511333
0.000511349
0.000511378
0.000511428
0.000511515
0.000511664
0.000511921
0.000512364
0.000513122
0.000514416
0.000516603
0.000520266
0.000526858
0.000511309
0.000511309
0.000511309
0.000511309
0.000511309
0.000511309
0.000511309
0.000511309
0.000511309
0.000511309
0.000511309
0.000511309
0.000511309
0.000511309
0.000511309
0.000511309
0.000511309
0.000511309
0.000511309
0.000511309
0.000511309
0.000511309
0.00051131
0.00051131
0.00051131
0.000511311
0.000511311
0.000511313
0.000511316
0.00051132
0.000511328
0.000511341
0.000511364
0.000511403
0.000511471
0.000511587
0.000511787
0.000512131
0.000512719
0.00051372
0.000515416
0.000518266
0.000522983
0.000530499
0.000541971
0.00056066
0.000511309
0.000511309
0.000511309
0.000511309
0.000511309
0.000511309
0.000511309
0.000511309
0.000511309
0.000511309
0.000511309
0.000511309
0.000511309
0.000511309
0.000511309
0.000511309
0.000511309
0.000511309
0.000511309
0.000511309
0.000511309
0.00051131
0.00051131
0.00051131
0.00051131
0.000511311
0.000511312
0.000511314
0.000511318
0.000511324
0.000511335
0.000511353
0.000511383
0.000511436
0.000511527
0.000511682
0.000511948
0.000512403
0.000513177
0.000514486
0.000516689
0.000520351
0.000526292
0.000535554
0.000549463
0.000569845
0.000598983
0.00064286
0.000511309
0.000511309
0.000511309
0.000511309
0.000511309
0.000511309
0.000511309
0.000511309
0.000511309
0.000511309
0.000511309
0.000511309
0.000511309
0.000511309
0.000511309
0.000511309
0.000511309
0.000511309
0.00051131
0.00051131
0.00051131
0.00051131
0.000511311
0.000511312
0.000511313
0.000511316
0.000511321
0.000511329
0.000511343
0.000511368
0.000511409
0.000511479
0.000511599
0.000511805
0.000512156
0.000512753
0.000513762
0.000515459
0.000518287
0.000522924
0.000530288
0.000541509
0.00055802
0.000581874
0.000615639
0.000661575
0.000720123
0.000808377
0.000511309
0.000511309
0.000511309
0.000511309
0.000511309
0.000511309
0.000511309
0.000511309
0.000511309
0.000511309
0.000511309
0.000511309
0.000511309
0.000511309
0.000511309
0.000511309
0.000511309
0.000511309
0.00051131
0.00051131
0.00051131
0.00051131
0.000511311
0.000511313
0.000511315
0.000511319
0.000511325
0.000511336
0.000511355
0.000511387
0.000511442
0.000511535
0.000511694
0.000511964
0.000512423
0.000513199
0.000514503
0.000516679
0.000520266
0.000526046
0.000535023
0.000548399
0.000567752
0.000595319
0.000633612
0.000684425
0.000750211
0.000841112
0.000976739
0.00119039
0.000511309
0.000511309
0.000511309
0.000511309
0.000511309
0.000511309
0.000511309
0.000511309
0.000511309
0.000511309
0.000511309
0.000511309
0.000511309
0.000511309
0.000511309
0.00051131
0.00051131
0.00051131
0.00051131
0.000511311
0.000511312
0.000511314
0.000511317
0.000511322
0.000511331
0.000511346
0.000511371
0.000511413
0.000511485
0.000511608
0.000511816
0.000512168
0.000512763
0.000513763
0.000515433
0.000518193
0.000522681
0.000529773
0.000540538
0.000556254
0.000578656
0.000610107
0.000652945
0.000708856
0.000781657
0.000884397
0.00103992
0.0012596
0.00151955
0.00179422
0.000511309
0.000511309
0.000511309
0.000511309
0.000511309
0.000511309
0.000511309
0.000511309
0.000511309
0.000511309
0.000511309
0.000511309
0.00051131
0.00051131
0.00051131
0.00051131
0.000511311
0.000511311
0.000511313
0.000511315
0.000511319
0.000511326
0.000511338
0.000511358
0.000511391
0.000511447
0.000511541
0.000511701
0.000511971
0.000512427
0.000513192
0.000514471
0.000516587
0.000520046
0.000525582
0.000534147
0.00054686
0.000565086
0.000590715
0.000626152
0.00067352
0.000734722
0.000815338
0.000931479
0.00110523
0.00133983
0.00160649
0.00186497
0.00208428
0.00225247
0.000511309
0.000511309
0.000511309
0.000511309
0.000511309
0.000511309
0.000511309
0.000511309
0.000511309
0.000511309
0.00051131
0.00051131
0.00051131
0.00051131
0.000511311
0.000511312
0.000511314
0.000511317
0.000511323
0.000511332
0.000511347
0.000511373
0.000511416
0.00051149
0.000511613
0.00051182
0.000512168
0.000512753
0.000513729
0.000515348
0.000518003
0.000522285
0.000529015
0.000539199
0.000554004
0.000574891
0.000603882
0.000643345
0.000695237
0.000762046
0.000851395
0.000981892
0.00117309
0.00141979
0.00168737
0.00193697
0.00214369
0.00229636
0.00237357
0.00238926
0.000511309
0.000511309
0.000511309
0.000511309
0.000511309
0.000511309
0.000511309
0.00051131
0.00051131
0.00051131
0.00051131
0.000511311
0.000511312
0.000511313
0.000511316
0.00051132
0.000511327
0.000511339
0.000511359
0.000511393
0.00051145
0.000511544
0.000511703
0.00051197
0.000512416
0.000513161
0.000514396
0.000516426
0.00051972
0.000524952
0.000533013
0.000544949
0.00056197
0.000585647
0.000618091
0.000661575
0.000718031
0.000790878
0.000889868
0.00103524
0.00124246
0.00149785
0.00176321
0.00200295
0.00219725
0.00233408
0.00239065
0.00240125
0.00240559
0.00240486
0.000511309
0.000511309
0.000511309
0.000511309
0.00051131
0.00051131
0.00051131
0.00051131
0.00051131
0.000511311
0.000511312
0.000511315
0.000511318
0.000511324
0.000511333
0.000511349
0.000511375
0.000511419
0.000511492
0.000511614
0.000511818
0.000512159
0.000512726
0.000513667
0.000515216
0.000517737
0.000521776
0.000528084
0.000537601
0.000551402
0.000570749
0.000597317
0.000633257
0.000680735
0.000741868
0.000821262
0.000930699
0.00109099
0.00131224
0.00157297
0.00183375
0.00206321
0.00224544
0.00236483
0.00240522
0.00241307
0.00241701
0.00241477
0.00240684
0.00239446
0.000511309
0.000511309
0.00051131
0.00051131
0.00051131
0.00051131
0.000511311
0.000511312
0.000511314
0.000511316
0.000511321
0.000511328
0.00051134
0.000511361
0.000511395
0.000511451
0.000511545
0.000511702
0.000511962
0.000512394
0.00051311
0.000514289
0.000516214
0.000519314
0.000524207
0.000531709
0.000542792
0.000558553
0.000580316
0.000609846
0.000649287
0.000700741
0.000766734
0.000853215
0.000973719
0.00114846
0.00138137
0.00164444
0.001899
0.00211816
0.0022882
0.00238961
0.00241823
0.00242433
0.0024273
0.00242377
0.00241537
0.00240345
0.0023875
0.00236673
0.00051131
0.00051131
0.00051131
0.000511311
0.000511311
0.000511313
0.000511315
0.000511318
0.000511324
0.000511334
0.00051135
0.000511376
0.00051142
0.000511493
0.000511613
0.000511812
0.000512141
0.000512686
0.000513583
0.000515049
0.000517419
0.000521189
0.000527043
0.000535846
0.000548588
0.000566387
0.000590637
0.000623166
0.000666087
0.000721524
0.000792621
0.000886709
0.00101865
0.00120693
0.00144892
0.00171179
0.00195911
0.00216819
0.00232569
0.00240952
0.00242991
0.00243511
0.00243672
0.00243243
0.00242382
0.0024118
0.00239553
0.00237606
0.00235493
0.00233101
0.00051131
0.000511311
0.000511312
0.000511314
0.000511317
0.000511321
0.000511329
0.000511341
0.000511362
0.000511396
0.000511452
0.000511545
0.000511697
0.000511949
0.000512364
0.000513046
0.00051416
0.000515967
0.000518857
0.00052339
0.000530309
0.000540506
0.000554981
0.000574879
0.000601665
0.000637204
0.000683573
0.000743036
0.000819519
0.000921668
0.00106513
0.00126563
0.00151415
0.0017748
0.00201434
0.00221357
0.00235802
0.00242572
0.00244075
0.00244545
0.00244584
0.00244082
0.00243219
0.00242003
0.0024038
0.00238484
0.002364
0.00234167
0.00231862
0.00229335
0.000511313
0.000511315
0.000511319
0.000511325
0.000511335
0.000511351
0.000511377
0.000511421
0.000511492
0.00051161
0.000511802
0.000512119
0.000512638
0.000513485
0.00051486
0.000517068
0.000520557
0.000525946
0.00053402
0.000545689
0.000561953
0.000583997
0.000613346
0.00065188
0.000701664
0.000765236
0.000847393
0.000957948
0.0011127
0.00132385
0.00157651
0.00183342
0.002065
0.00225451
0.00238559
0.00243931
0.00245102
0.00245538
0.00245466
0.00244908
0.00244044
0.00242817
0.00241211
0.00239364
0.00237336
0.00235175
0.00232914
0.00230555
0.00228146
0.00225523
0.000511322
0.00051133
0.000511342
0.000511363
0.000511397
0.000511452
0.000511543
0.000511691
0.000511933
0.000512328
0.000512973
0.000514019
0.000515702
0.000518375
0.000522543
0.000528876
0.000538188
0.000551388
0.000569484
0.000593702
0.000625619
0.000667118
0.000720298
0.000788084
0.000876187
0.000995356
0.0011609
0.00138094
0.00163562
0.00188775
0.00211136
0.00229126
0.00240893
0.00245137
0.00246083
0.0024649
0.00246312
0.00245721
0.00244855
0.00243625
0.00242047
0.00240249
0.0023828
0.00236186
0.00233993
0.00231711
0.00229347
0.00226894
0.002244
0.00221696
0.000511352
0.000511378
0.000511421
0.000511491
0.000511605
0.000511791
0.000512093
0.000512584
0.00051338
0.000514662
0.000516705
0.000519912
0.00052484
0.000532197
0.000542812
0.000557588
0.000577544
0.000603951
0.000638425
0.00068285
0.000739418
0.000811539
0.000905811
0.00103365
0.00120922
0.00143636
0.00169125
0.00193791
0.00215368
0.002324
0.00242866
0.00246251
0.00247024
0.00247381
0.0024712
0.00246519
0.00245653
0.00244428
0.00242885
0.00241137
0.00239228
0.00237201
0.00235077
0.00232866
0.00230573
0.00228198
0.00225748
0.00223215
0.00220649
0.00217884
0.000511452
0.00051154
0.000511683
0.000511915
0.00051229
0.000512896
0.000513872
0.000515431
0.000517891
0.000521702
0.000527465
0.000535918
0.000547888
0.000564271
0.000586101
0.000614696
0.000651703
0.000699013
0.000758978
0.000835553
0.000936157
0.00107254
0.0012572
0.00148967
0.00174332
0.00198411
0.00219224
0.00235302
0.00244542
0.00247263
0.00247927
0.00248193
0.00247905
0.00247303
0.0024644
0.00245226
0.00243725
0.00242028
0.00240178
0.00238217
0.00236163
0.00234022
0.002318
0.00229498
0.00227118
0.00224664
0.00222141
0.00219545
0.0021693
0.00214129
0.000511779
0.000512066
0.00051253
0.000513274
0.000514463
0.000516345
0.00051928
0.000523764
0.000530434
0.000540041
0.000553404
0.000571411
0.000595119
0.000625891
0.000665396
0.000715553
0.000778933
0.000860068
0.000967088
0.00111176
0.00130442
0.00154056
0.00179182
0.00202652
0.00222715
0.00237855
0.00245977
0.002482
0.00248793
0.00248982
0.00248672
0.00248075
0.00247217
0.00246021
0.00244563
0.00242917
0.00241129
0.00239234
0.00237247
0.00235175
0.00233024
0.00230793
0.00228486
0.00226104
0.00223652
0.00221134
0.0021856
0.00215926
0.00213287
0.00210479
0.00051282
0.000513728
0.000515167
0.000517421
0.000520893
0.000526117
0.000533756
0.000544563
0.000559343
0.00057898
0.00060456
0.000637487
0.00067945
0.000732421
0.000799241
0.000885017
0.000998456
0.00115101
0.00135053
0.00158884
0.00183681
0.00206535
0.0022587
0.00240092
0.00247229
0.00249082
0.0024963
0.0024975
0.00249421
0.00248834
0.00247983
0.00246811
0.00245398
0.00243805
0.00242078
0.00240247
0.00238327
0.00236325
0.00234243
0.00232083
0.00229847
0.00227537
0.00225157
0.00222711
0.00220206
0.00217648
0.00215047
0.002124
0.00209765
0.00206979
0.000514272
0.000516001
0.000518679
0.000522748
0.000528775
0.000537436
0.000549477
0.000565686
0.000586949
0.000614387
0.000649438
0.000693814
0.000749572
0.000819856
0.000910319
0.00103009
0.00119001
0.00139524
0.0016344
0.00187844
0.00210083
0.00228712
0.00242054
0.00248335
0.00249918
0.00250438
0.00250499
0.00250158
0.00249581
0.00248738
0.00247595
0.00246227
0.00244689
0.00243023
0.00241256
0.00239402
0.00237468
0.00235455
0.00233365
0.002312
0.00228961
0.00226652
0.00224278
0.00221844
0.00219355
0.00216821
0.00214247
0.00211645
0.00209014
0.0020641
0.00203673
0.000520138
0.000524863
0.000531747
0.000541473
0.000554769
0.000572409
0.000595287
0.000624559
0.000661697
0.000708443
0.000766964
0.000840728
0.000935884
0.00106183
0.0012285
0.00143833
0.00167723
0.00191685
0.00213318
0.00231256
0.00243772
0.00249322
0.00250713
0.00251212
0.00251226
0.00250883
0.00250316
0.00249485
0.00248373
0.00247051
0.00245567
0.00243961
0.00242258
0.00240469
0.00238602
0.00236657
0.00234637
0.00232541
0.00230373
0.00228136
0.00225832
0.00223468
0.0022105
0.00218583
0.00216076
0.00213537
0.00210973
0.00208397
0.00205806
0.00203258
0.00200595
0.000527251
0.000535042
0.000545863
0.000560424
0.000579487
0.000603963
0.00063504
0.000674225
0.000723296
0.00078456
0.000861807
0.000961617
0.00109349
0.00126626
0.00147965
0.00171733
0.0019522
0.00216257
0.00233534
0.00245276
0.00250225
0.00251472
0.00251958
0.00251934
0.00251592
0.00251035
0.00250223
0.00249145
0.0024787
0.00246438
0.00244891
0.00243251
0.00241527
0.00239726
0.00237849
0.00235896
0.0023387
0.00231772
0.00229605
0.00227372
0.00225078
0.00222729
0.00220331
0.0021789
0.00215415
0.00212914
0.00210395
0.00207866
0.0020534
0.00202813
0.00200344
0.00197777
0.000550598
0.000566424
0.000586897
0.000612946
0.000645795
0.000686981
0.000738334
0.000802317
0.000883034
0.000987413
0.00112489
0.00130308
0.00151908
0.00175482
0.00198467
0.00218922
0.00235559
0.002466
0.00251055
0.00252197
0.00252675
0.00252622
0.00252287
0.00251741
0.0025095
0.00249909
0.0024868
0.00247303
0.00245814
0.00244235
0.00242574
0.00240838
0.00239027
0.00237142
0.00235185
0.00233156
0.00231058
0.00228895
0.00226671
0.00224391
0.0022206
0.00219686
0.00217276
0.00214837
0.00212377
0.00209905
0.0020743
0.00204958
0.00202505
0.00200063
0.00197693
0.0019524
0.000594615
0.000622209
0.000656793
0.000699934
0.000753525
0.000820199
0.000904355
0.00101318
0.0011559
0.0013388
0.00155659
0.00178974
0.00201441
0.00221325
0.00237359
0.00247766
0.00251824
0.00252892
0.0025336
0.00253291
0.00252964
0.00252432
0.00251666
0.00250664
0.00249482
0.00248158
0.00246728
0.00245208
0.0024361
0.00241937
0.00240192
0.00238373
0.00236483
0.00234523
0.00232494
0.002304
0.00228245
0.00226033
0.0022377
0.00221463
0.00219117
0.0021674
0.0021434
0.00211925
0.00209503
0.00207082
0.00204672
0.00202279
0.00199917
0.00197579
0.00195324
0.00193001
0.000668006
0.000713055
0.000768838
0.000838167
0.000925706
0.0010388
0.00118635
0.00137326
0.00159212
0.00182227
0.00204163
0.00223495
0.0023896
0.00248813
0.00252543
0.00253556
0.00254021
0.00253943
0.00253625
0.0025311
0.00252371
0.00251408
0.00250274
0.00249003
0.0024763
0.0024617
0.00244633
0.00243023
0.00241341
0.00239588
0.00237765
0.00235872
0.00233911
0.00231885
0.00229799
0.00227655
0.00225459
0.00223218
0.00220936
0.00218622
0.00216281
0.00213923
0.00211555
0.00209185
0.00206822
0.00204473
0.00202147
0.0019985
0.00197596
0.00195377
0.00193251
0.00191069
0.00078425
0.000856188
0.000947033
0.00106421
0.00121613
0.00140637
0.00162567
0.00185261
0.00206655
0.00225442
0.00240373
0.00249737
0.00253224
0.00254189
0.00254654
0.00254576
0.00254271
0.00253773
0.00253064
0.00252141
0.00251054
0.00249837
0.00248519
0.00247118
0.00245642
0.00244093
0.00242475
0.00240786
0.00239028
0.00237201
0.00235308
0.0023335
0.00231331
0.00229254
0.00227125
0.00224949
0.00222732
0.0022048
0.002182
0.00215899
0.00213586
0.00211267
0.00208951
0.00206645
0.00204359
0.00202099
0.00199873
0.00197688
0.00195556
0.00193468
0.00191479
0.00189446
0.000968281
0.00108931
0.00124515
0.00143803
0.00165723
0.00188088
0.00208942
0.00227183
0.00241622
0.00250567
0.00253869
0.00254794
0.00255253
0.0025519
0.00254899
0.00254423
0.00253744
0.00252862
0.00251822
0.00250657
0.00249396
0.00248052
0.00246635
0.00245147
0.0024359
0.00241965
0.00240271
0.0023851
0.00236683
0.00234792
0.00232839
0.0023083
0.00228767
0.00226657
0.00224503
0.00222313
0.00220093
0.0021785
0.00215592
0.00213324
0.00211056
0.00208796
0.0020655
0.00204326
0.00202133
0.00199977
0.00197866
0.00195804
0.00193803
0.00191853
0.0019001
0.00188132
0.00127333
0.00146823
0.00168678
0.00190708
0.00211041
0.00228735
0.00242711
0.00251308
0.00254465
0.00255374
0.00255834
0.00255789
0.00255511
0.00255057
0.00254411
0.0025357
0.00252578
0.00251464
0.00250257
0.0024897
0.00247611
0.00246183
0.00244688
0.00243125
0.00241494
0.00239798
0.00238036
0.0023621
0.00234324
0.00232381
0.00230384
0.00228338
0.00226248
0.00224121
0.00221961
0.00219776
0.00217572
0.00215357
0.00213137
0.00210922
0.00208717
0.00206531
0.00204371
0.00202244
0.00200158
0.00198118
0.00196132
0.00194202
0.00192339
0.00190534
0.00188844
0.00187133
0.00193121
0.00212971
0.00230133
0.00243664
0.0025197
0.00255031
0.00255926
0.00256386
0.00256367
0.00256109
0.0025568
0.00255065
0.00254265
0.00253319
0.00252257
0.00251103
0.00249872
0.0024857
0.00247201
0.00245765
0.00244263
0.00242696
0.00241063
0.00239365
0.00237605
0.00235784
0.00233906
0.00231974
0.00229992
0.00227966
0.002259
0.002238
0.00221673
0.00219525
0.00217362
0.00215192
0.00213022
0.0021086
0.00208712
0.00206587
0.0020449
0.0020243
0.00200412
0.00198443
0.00196528
0.00194673
0.00192881
0.00191165
0.00189515
0.00187991
0.00186457
0.00231399
0.00244503
0.00252565
0.00255559
0.00256462
0.00256926
0.00256927
0.00256689
0.00256285
0.00255705
0.00254947
0.00254048
0.00253035
0.00251933
0.00250756
0.0024951
0.00248198
0.00246822
0.0024538
0.00243874
0.00242304
0.0024067
0.00238973
0.00237217
0.00235404
0.00233536
0.00231619
0.00229655
0.00227651
0.00225611
0.00223542
0.00221449
0.00219339
0.00217219
0.00215096
0.00212977
0.00210868
0.00208778
0.00206712
0.00204679
0.00202684
0.00200734
0.00198834
0.0019699
0.00195206
0.0019349
0.00191845
0.00190288
0.00188806
0.00187453
0.00186088
0.00253107
0.00256062
0.00256965
0.00257441
0.00257474
0.0025726
0.00256878
0.00256329
0.00255613
0.0025476
0.00253797
0.00252747
0.00251623
0.00250432
0.00249176
0.00247857
0.00246475
0.00245029
0.0024352
0.00241948
0.00240316
0.00238623
0.00236874
0.0023507
0.00233216
0.00231315
0.00229372
0.00227392
0.00225381
0.00223344
0.00221287
0.00219217
0.00217141
0.00215066
0.00212997
0.00210943
0.0020891
0.00206905
0.00204934
0.00203004
0.0020112
0.00199288
0.00197513
0.001958
0.00194156
0.00192589
0.00191105
0.00189713
0.00188395
0.00187189
0.0018594
0.00257942
0.00257997
0.0025781
0.00257457