/*--------------------------------*- C++ -*----------------------------------*\
| =========                 |                                                 |
| \\      /  F ield         | OpenFOAM: The Open Source CFD Toolbox           |
|  \\    /   O peration     | Version:  v1706                                 |
|   \\  /    A nd           | Web:      www.OpenFOAM.com                      |
|    \\/     M anipulation  |                                                 |
\*---------------------------------------------------------------------------*/
FoamFile
{
    version     2.0;
    format      ascii;
    class       volScalarField;
    location    "4e-06";
    object      Tov;
}
// * * * * * * * * * * * * * * * * * * * * * * * * * * * * * * * * * * * * * //

dimensions      [0 0 0 1 0 0 0];


internalField   nonuniform List<scalar> 
30038
(
144.4
144.4
144.4
144.4
144.4
144.4
144.4
144.4
144.4
144.4
144.4
144.4
144.4
144.4
144.4
144.4
144.4
144.4
144.4
144.4
144.4
144.4
144.4
144.4
144.4
144.4
144.4
144.4
144.4
144.4
144.4
144.4
144.4
144.4
144.4
144.4
144.4
144.4
144.4
144.4
144.4
144.4
144.4
144.4
144.4
144.4
144.4
144.4
144.4
144.4
144.4
144.4
144.4
144.4
144.4
144.4
144.4
144.4
144.4
144.4
144.4
144.4
144.4
144.4
144.4
144.4
144.4
144.4
144.4
144.4
144.4
144.4
144.4
144.4
144.4
144.4
144.4
144.4
144.4
144.4
144.4
144.4
144.4
144.4
144.4
144.4
144.4
144.4
144.4
144.4
144.4
144.4
144.4
144.4
144.4
144.4
144.4
144.4
144.4
144.4
144.4
144.4
144.4
144.4
144.4
144.4
144.4
144.4
144.4
144.4
144.4
144.4
144.4
144.4
144.4
144.4
144.4
144.4
144.4
144.4
144.4
144.4
144.4
144.4
144.4
144.4
144.4
144.4
144.4
144.4
144.4
144.4
144.4
144.4
144.4
144.4
144.4
144.4
144.4
144.4
144.4
144.4
144.4
144.4
144.4
144.4
144.4
144.4
144.4
144.4
144.4
144.4
144.4
144.4
144.4
144.4
144.4
144.4
144.4
144.4
144.4
144.4
144.4
144.4
144.4
144.4
144.4
144.4
144.4
144.4
144.4
144.4
144.4
144.4
144.4
144.4
144.4
144.4
144.4
144.4
144.4
144.4
144.4
144.4
144.4
144.4
144.4
144.4
144.4
144.4
144.4
144.4
144.4
144.4
144.4
144.4
144.4
144.4
144.4
144.4
144.4
144.4
144.4
144.4
144.4
144.4
144.4
144.4
144.4
144.4
144.4
144.4
144.4
144.4
144.4
144.4
144.4
144.4
144.4
144.4
144.4
144.4
144.4
144.4
144.4
144.4
144.4
144.4
144.4
144.4
144.4
144.4
144.4
144.4
144.4
144.4
144.4
144.4
144.4
144.4
144.4
144.4
144.4
144.4
144.4
144.4
144.4
144.4
144.4
144.4
144.4
144.4
144.4
144.4
144.4
144.4
144.4
144.4
144.4
144.4
144.4
144.4
144.4
144.4
144.4
144.4
144.4
144.4
144.4
144.4
144.4
144.4
144.4
144.4
144.4
144.4
144.4
144.4
144.4
144.4
144.4
144.4
144.4
144.4
144.4
144.4
144.4
144.4
144.4
144.4
144.4
144.4
144.4
144.4
144.4
144.4
144.4
144.4
144.4
144.4
144.4
144.4
144.4
144.4
144.4
144.4
144.4
144.4
144.4
144.4
144.4
144.4
144.4
144.4
144.4
144.4
144.4
144.4
144.4
144.4
144.4
144.4
144.4
144.4
144.4
144.4
144.4
144.4
144.4
144.4
144.4
144.4
144.4
144.4
144.4
144.4
144.4
144.4
144.4
144.4
144.4
144.4
144.4
144.4
144.4
144.4
144.4
144.4
144.4
144.4
144.4
144.4
144.4
144.4
144.4
144.4
144.4
144.4
144.4
144.4
144.4
144.4
144.4
144.4
144.4
144.4
144.4
144.4
144.4
144.4
144.4
144.4
144.4
144.4
144.4
144.4
144.4
144.4
144.4
144.4
144.4
144.4
144.4
144.4
144.4
144.4
144.4
144.4
144.4
144.4
144.4
144.4
144.4
144.4
144.4
144.4
144.4
144.4
144.4
144.4
144.4
144.4
144.4
144.4
144.4
144.4
144.4
144.4
144.4
144.4
144.4
144.4
144.4
144.4
144.4
144.4
144.4
144.4
144.4
144.4
144.4
144.4
144.4
144.4
144.4
144.4
144.4
144.4
144.4
144.4
144.4
144.4
144.4
144.4
144.4
144.4
144.4
144.4
144.4
144.4
144.4
144.4
144.4
144.4
144.4
144.4
144.4
144.4
144.4
144.4
144.4
144.4
144.4
144.4
144.4
144.4
144.4
144.4
144.4
144.4
144.4
144.4
144.4
144.4
144.4
144.4
144.4
144.4
144.4
144.4
144.4
144.4
144.4
144.4
144.4
144.4
144.4
144.4
144.4
144.4
144.4
144.4
144.4
144.4
144.4
144.4
144.4
144.4
144.4
144.4
144.4
144.4
144.4
144.4
144.4
144.4
144.4
144.4
144.4
144.4
144.4
144.4
144.4
144.4
144.4
144.4
144.4
144.4
144.4
144.4
144.4
144.4
144.4
144.4
144.4
144.4
144.4
144.4
144.4
144.4
144.4
144.4
144.4
144.4
144.4
144.4
144.4
144.4
144.4
144.4
144.4
144.4
144.4
144.4
144.4
144.4
144.4
144.4
144.4
144.4
144.4
144.4
144.4
144.4
144.4
144.4
144.4
144.4
144.4
144.4
144.4
144.4
144.4
144.4
144.4
144.4
144.4
144.4
144.4
144.4
144.4
144.4
144.4
144.4
144.4
144.4
144.4
144.4
144.4
144.4
144.4
144.4
144.4
144.4
144.4
144.4
144.4
144.4
144.4
144.4
144.4
144.4
144.4
144.4
144.4
144.4
144.4
144.4
144.4
144.4
144.4
144.4
144.4
144.4
144.4
144.4
144.4
144.4
144.4
144.4
144.4
144.4
144.4
144.4
144.4
144.4
144.4
144.4
144.4
144.4
144.4
144.4
144.4
144.4
144.4
144.4
144.4
144.4
144.4
144.4
144.4
144.4
144.4
144.4
144.4
144.4
144.4
144.4
144.4
144.4
144.4
144.4
144.4
144.4
144.4
144.4
144.4
144.4
144.4
144.4
144.4
144.4
144.4
144.4
144.4
144.4
144.4
144.4
144.4
144.4
144.4
144.4
144.4
144.4
144.4
144.4
144.4
144.4
144.4
144.4
144.4
144.4
144.4
144.4
144.4
144.4
144.4
144.4
144.4
144.4
144.4
144.4
144.4
144.4
144.4
144.4
144.4
144.4
144.4
144.4
144.4
144.4
144.4
144.4
144.4
144.4
144.4
144.4
144.4
144.4
144.4
144.4
144.4
144.4
144.4
144.4
144.4
144.4
144.401
144.401
144.402
144.4
144.4
144.4
144.4
144.4
144.4
144.4
144.4
144.4
144.4
144.4
144.4
144.4
144.4
144.4
144.4
144.4
144.4
144.4
144.4
144.4
144.4
144.4
144.4
144.4
144.4
144.4
144.4
144.4
144.4
144.4
144.4
144.4
144.4
144.4
144.4
144.401
144.401
144.402
144.404
144.408
144.4
144.4
144.4
144.4
144.4
144.4
144.4
144.4
144.4
144.4
144.4
144.4
144.4
144.4
144.4
144.4
144.4
144.4
144.4
144.4
144.4
144.4
144.4
144.4
144.4
144.4
144.4
144.4
144.4
144.4
144.4
144.4
144.4
144.401
144.401
144.402
144.404
144.406
144.411
144.419
144.436
144.4
144.4
144.4
144.4
144.4
144.4
144.4
144.4
144.4
144.4
144.4
144.4
144.4
144.4
144.4
144.4
144.4
144.4
144.4
144.4
144.4
144.4
144.4
144.4
144.4
144.4
144.4
144.4
144.4
144.4
144.4
144.401
144.401
144.402
144.403
144.405
144.409
144.416
144.428
144.449
144.486
144.559
144.4
144.4
144.4
144.4
144.4
144.4
144.4
144.4
144.4
144.4
144.4
144.4
144.4
144.4
144.4
144.4
144.4
144.4
144.4
144.4
144.4
144.4
144.4
144.4
144.4
144.4
144.4
144.4
144.4
144.4
144.401
144.401
144.402
144.404
144.407
144.413
144.423
144.439
144.469
144.522
144.614
144.781
145.097
144.4
144.4
144.4
144.4
144.4
144.4
144.4
144.4
144.4
144.4
144.4
144.4
144.4
144.4
144.4
144.4
144.4
144.4
144.4
144.4
144.4
144.4
144.4
144.4
144.4
144.4
144.4
144.401
144.401
144.402
144.403
144.406
144.411
144.418
144.432
144.456
144.498
144.572
144.701
144.929
145.33
146.047
147.389
144.4
144.4
144.4
144.4
144.4
144.4
144.4
144.4
144.4
144.4
144.4
144.4
144.4
144.4
144.4
144.4
144.4
144.4
144.4
144.4
144.4
144.4
144.4
144.4
144.4
144.401
144.401
144.402
144.403
144.405
144.409
144.415
144.426
144.445
144.479
144.538
144.641
144.821
145.137
145.69
146.659
148.353
151.327
156.688
144.4
144.4
144.4
144.4
144.4
144.4
144.4
144.4
144.4
144.4
144.4
144.4
144.4
144.4
144.4
144.4
144.4
144.4
144.4
144.4
144.4
144.4
144.4
144.4
144.401
144.401
144.402
144.404
144.407
144.412
144.421
144.437
144.464
144.51
144.592
144.735
144.984
145.419
146.178
147.5
149.791
153.73
160.414
171.583
190.007
144.4
144.4
144.4
144.4
144.4
144.4
144.4
144.4
144.4
144.4
144.4
144.4
144.4
144.4
144.4
144.4
144.4
144.4
144.4
144.4
144.4
144.4
144.401
144.401
144.402
144.403
144.406
144.41
144.417
144.43
144.451
144.488
144.553
144.666
144.862
145.203
145.797
146.829
148.617
151.693
156.925
165.657
179.814
201.859
234.608
280.773
144.4
144.4
144.4
144.4
144.4
144.4
144.4
144.4
144.4
144.4
144.4
144.4
144.4
144.4
144.4
144.4
144.4
144.4
144.4
144.4
144.4
144.401
144.401
144.402
144.403
144.405
144.408
144.414
144.424
144.441
144.471
144.522
144.611
144.765
145.033
145.496
146.301
147.691
150.085
154.169
161.031
172.291
190.122
217.044
255.39
306.602
370.969
447.135
144.4
144.4
144.4
144.4
144.4
144.4
144.4
144.4
144.4
144.4
144.4
144.4
144.4
144.4
144.4
144.4
144.4
144.4
144.4
144.401
144.401
144.402
144.404
144.407
144.411
144.419
144.433
144.457
144.497
144.567
144.689
144.898
145.26
145.885
146.964
148.82
151.992
157.349
166.224
180.502
202.543
234.806
279.189
336.363
405.355
483.542
567.421
653.517
144.4
144.4
144.4
144.4
144.4
144.4
144.4
144.4
144.4
144.4
144.4
144.4
144.4
144.4
144.4
144.4
144.4
144.4
144.401
144.401
144.402
144.403
144.405
144.409
144.416
144.427
144.445
144.478
144.533
144.628
144.792
145.073
145.559
146.395
147.831
150.284
154.442
161.38
172.685
190.474
217.183
255.046
305.398
368.145
441.532
522.32
606.428
689.752
769.07
839.697
144.4
144.4
144.4
144.4
144.4
144.4
144.4
144.4
144.4
144.4
144.4
144.4
144.4
144.4
144.4
144.401
144.401
144.402
144.403
144.404
144.407
144.413
144.421
144.436
144.462
144.506
144.58
144.708
144.928
145.305
145.951
147.06
148.953
152.165
157.552
166.417
180.591
202.354
234.083
277.627
333.665
401.363
478.315
560.929
645.082
726.919
802.871
866.878
914.026
945.665
144.4
144.4
144.4
144.4
144.4
144.4
144.4
144.4
144.4
144.4
144.4
144.4
144.4
144.401
144.401
144.402
144.404
144.406
144.41
144.417
144.429
144.449
144.484
144.543
144.643
144.814
145.106
145.607
146.461
147.919
150.392
154.553
161.45
172.618
190.098
216.237
253.203
302.333
363.617
435.549
515.215
598.843
682.395
762.335
834.729
893.61
935.43
962.063
978.044
987.774
144.4
144.4
144.4
144.4
144.4
144.4
144.4
144.4
144.4
144.4
144.401
144.401
144.402
144.403
144.405
144.408
144.414
144.423
144.44
144.467
144.513
144.592
144.725
144.952
145.339
145.998
147.119
149.019
152.22
157.553
166.272
180.135
201.331
232.153
274.424
328.885
394.858
470.268
551.842
635.773
718.175
795.759
864.227
918.02
954.966
977.966
991.571
999.619
1004.39
1007.17
144.4
144.4
144.4
144.4
144.4
144.4
144.4
144.401
144.401
144.401
144.402
144.404
144.407
144.411
144.419
144.432
144.453
144.49
144.551
144.656
144.832
145.132
145.64
146.501
147.96
150.416
154.52
161.277
172.155
189.101
214.368
250.067
297.56
356.962
426.995
505.129
587.879
671.505
752.302
827.136
891.433
940.267
972.812
992.711
1004.35
1011.31
1015.17
1017.47
1019.67
1022.01
144.4
144.4
144.4
144.4
144.4
144.401
144.401
144.402
144.403
144.406
144.409
144.415
144.426
144.443
144.471
144.52
144.601
144.739
144.971
145.363
146.026
147.145
149.027
152.175
157.382
165.843
179.229
199.624
229.237
269.876
322.37
386.226
459.655
539.794
623.076
705.888
784.706
856.463
916.46
960.574
989.213
1006.46
1016.47
1022.51
1025.65
1027.75
1029.94
1031.86
1033.62
1035.57
144.4
144.4
144.401
144.401
144.402
144.403
144.405
144.408
144.412
144.421
144.434
144.457
144.495
144.559
144.666
144.847
145.15
145.66
146.519
147.96
150.37
154.367
160.904
171.37
187.61
211.771
245.908
291.423
348.58
416.339
492.5
573.984
657.24
738.815
815.348
883.778
939.457
979.167
1004.38
1019.35
1028.03
1033.25
1035.87
1037.78
1039.92
1041.64
1043.35
1045.07
1046.92
1049.2
144.401
144.401
144.402
144.404
144.406
144.41
144.417
144.428
144.446
144.476
144.526
144.61
144.75
144.985
145.379
146.039
147.143
148.986
152.046
157.072
165.19
177.972
197.391
225.567
264.294
314.501
375.901
446.979
525.234
607.471
690.231
770.222
844.222
909.151
960.588
996.259
1018.48
1031.52
1039.1
1043.58
1045.79
1047.59
1049.59
1051.21
1052.87
1054.54
1056.34
1058.45
1060.95
1063.97
144.403
144.405
144.408
144.414
144.422
144.437
144.461
144.5
144.566
144.676
144.858
145.162
145.67
146.517
147.928
150.268
154.12
160.379
170.345
185.751
208.634
240.99
284.264
338.877
404.037
477.85
557.606
640.081
721.95
800.074
871.348
932.68
980.027
1012.05
1031.67
1043.07
1049.74
1053.51
1055.46
1057.19
1059.04
1060.58
1062.19
1063.8
1065.57
1067.66
1070.09
1072.92
1076.17
1079.98
144.411
144.418
144.43
144.449
144.48
144.532
144.618
144.76
144.996
145.388
146.039
147.12
148.91
151.856
156.662
164.377
176.468
194.789
221.365
257.975
305.646
364.301
432.708
508.688
589.408
671.679
752.332
828.363
896.766
954.478
997.951
1026.7
1044.08
1054.09
1059.99
1063.12
1064.89
1066.59
1068.28
1069.78
1071.31
1072.86
1074.6
1076.66
1079.05
1081.83
1085
1088.56
1092.57
1097.13
144.439
144.464
144.505
144.573
144.684
144.868
145.171
145.673
146.503
147.873
150.127
153.809
159.752
169.161
183.653
205.148
235.576
276.416
328.246
390.523
461.657
539.268
620.472
702.166
781.336
855.1
920.537
974.674
1014.53
1040.37
1055.81
1064.64
1069.87
1072.47
1074.11
1075.8
1077.31
1078.77
1080.22
1081.72
1083.43
1085.45
1087.8
1090.52
1093.62
1097.11
1100.99
1105.29
1110.02
1115.29
144.538
144.625
144.768
145.004
145.392
146.031
147.083
148.809
151.627
156.19
163.469
174.821
191.977
216.859
251.22
296.177
351.856
417.303
490.655
569.405
650.676
731.478
808.949
880.313
942.736
993.395
1029.91
1053.19
1066.94
1074.79
1079.42
1081.65
1083.13
1084.79
1086.14
1087.55
1088.93
1090.38
1092.07
1094.04
1096.35
1099.01
1102.03
1105.44
1109.23
1113.41
1117.99
1122.98
1128.4
1134.34
144.876
145.177
145.671
146.48
147.804
149.963
153.462
159.069
167.897
181.44
201.498
229.924
268.216
317.097
376.263
444.421
519.508
598.954
679.93
759.581
835.18
904.049
963.449
1010.77
1044.23
1065.26
1077.56
1084.57
1088.67
1090.58
1091.94
1093.5
1094.78
1096.13
1097.46
1098.87
1100.51
1102.44
1104.69
1107.28
1110.23
1113.55
1117.24
1121.31
1125.77
1130.62
1135.86
1141.49
1147.54
1154.07
146.02
147.038
148.695
151.379
155.69
162.52
173.12
189.093
212.253
244.311
286.456
339.002
401.263
471.676
548.049
627.798
708.175
786.462
860.053
926.369
982.776
1026.93
1057.63
1076.68
1087.72
1094.01
1097.64
1099.3
1100.56
1102.03
1103.24
1104.53
1105.8
1107.17
1108.77
1110.64
1112.83
1115.36
1118.23
1121.45
1125.04
1129
1133.33
1138.04
1143.13
1148.61
1154.45
1160.66
1167.25
1174.27
149.791
153.104
158.373
166.618
179.214
197.836
224.251
259.961
305.807
361.711
426.66
498.892
576.142
655.854
735.375
812.124
883.609
947.344
1000.82
1042
1070.2
1087.52
1097.47
1103.16
1106.36
1107.81
1108.99
1110.37
1111.52
1112.75
1113.97
1115.29
1116.84
1118.66
1120.79
1123.24
1126.03
1129.15
1132.63
1136.47
1140.68
1145.25
1150.19
1155.51
1161.18
1167.21
1173.58
1180.27
1187.3
1194.69
155.191
161.579
171.44
186.251
207.711
237.478
276.789
326.124
385.046
452.276
525.918
603.679
683.057
761.51
836.585
905.895
967.049
1017.69
1056.09
1082.05
1097.84
1106.86
1112.02
1114.84
1116.13
1117.25
1118.53
1119.63
1120.8
1121.96
1123.23
1124.73
1126.5
1128.56
1130.93
1133.63
1136.66
1140.03
1143.75
1147.82
1152.25
1157.05
1162.2
1167.7
1173.55
1179.73
1186.23
1193.03
1200.09
1207.43
1215.05
177.061
194.289
218.738
251.892
294.69
347.254
408.835
477.952
552.626
630.573
709.367
786.578
859.873
926.965
985.565
1033.49
1069.31
1093.26
1107.72
1115.92
1120.62
1123.1
1124.27
1125.34
1126.51
1127.57
1128.68
1129.77
1131
1132.45
1134.16
1136.15
1138.44
1141.05
1143.98
1147.24
1150.83
1154.77
1159.06
1163.7
1168.69
1174.02
1179.69
1185.69
1192
1198.59
1205.46
1212.56
1219.87
1227.39
1235.1
203.376
230.915
267.431
313.544
369.043
432.919
503.547
578.91
656.761
734.758
810.586
882.023
946.878
1002.97
1048.3
1081.74
1103.9
1117.18
1124.68
1128.98
1131.16
1132.23
1133.26
1134.32
1135.35
1136.38
1137.42
1138.6
1140
1141.64
1143.57
1145.78
1148.29
1151.12
1154.26
1157.73
1161.54
1165.68
1170.16
1174.99
1180.15
1185.64
1191.45
1197.57
1203.97
1210.64
1217.54
1224.65
1231.93
1239.36
1246.91
1254.56
284.018
333.227
391.344
457.154
528.943
604.687
682.196
759.219
833.552
903.076
965.696
1019.34
1062.21
1093.48
1114.02
1126.28
1133.17
1137.12
1139.05
1140.03
1141.01
1141.98
1142.95
1143.93
1144.91
1146.04
1147.38
1148.96
1150.81
1152.94
1155.36
1158.08
1161.11
1164.45
1168.12
1172.12
1176.45
1181.11
1186.1
1191.41
1197.04
1202.96
1209.17
1215.63
1222.34
1229.25
1236.34
1243.57
1250.9
1258.3
1265.74
1273.18
414.019
481.416
554.04
629.891
706.846
782.748
855.501
923.079
983.483
1034.77
1075.32
1104.59
1123.69
1135.05
1141.4
1145.04
1146.75
1147.66
1148.59
1149.47
1150.4
1151.31
1152.24
1153.32
1154.6
1156.12
1157.89
1159.94
1162.26
1164.87
1167.79
1171.01
1174.54
1178.39
1182.56
1187.06
1191.88
1197.01
1202.44
1208.18
1214.19
1220.46
1226.96
1233.68
1240.57
1247.61
1254.76
1261.98
1269.22
1276.45
1283.64
1290.74
578.763
654.476
730.693
805.354
876.461
942.078
1000.3
1049.31
1087.69
1115.14
1132.95
1143.51
1149.39
1152.76
1154.29
1155.13
1156.01
1156.81
1157.68
1158.53
1159.42
1160.45
1161.67
1163.12
1164.81
1166.77
1169
1171.51
1174.31
1177.4
1180.8
1184.5
1188.52
1192.85
1197.49
1202.44
1207.69
1213.23
1219.05
1225.12
1231.43
1237.95
1244.65
1251.5
1258.46
1265.51
1272.58
1279.66
1286.68
1293.61
1300.42
1307.04
753.735
827.054
896.466
960.122
1016.21
1063.04
1099.39
1125.18
1141.83
1151.69
1157.17
1160.29
1161.68
1162.44
1163.28
1164
1164.81
1165.61
1166.45
1167.42
1168.58
1169.96
1171.58
1173.45
1175.59
1177.99
1180.67
1183.64
1186.9
1190.45
1194.32
1198.48
1202.95
1207.73
1212.79
1218.14
1223.76
1229.64
1235.75
1242.07
1248.58
1255.24
1262.02
1268.89
1275.8
1282.72
1289.6
1296.4
1303.08
1309.58
1315.89
1321.91
915.557
977.261
1031.27
1076.02
1110.49
1134.78
1150.38
1159.6
1164.73
1167.64
1168.91
1169.6
1170.37
1171.04
1171.79
1172.55
1173.33
1174.25
1175.35
1176.66
1178.21
1179.99
1182.02
1184.32
1186.88
1189.72
1192.85
1196.26
1199.97
1203.97
1208.27
1212.87
1217.75
1222.91
1228.33
1234.01
1239.93
1246.05
1252.36
1258.84
1265.44
1272.13
1278.88
1285.64
1292.39
1299.06
1305.63
1312.04
1318.25
1324.21
1329.9
1335.22
1045.54
1088.32
1121.03
1143.95
1158.62
1167.28
1172.1
1174.83
1175.99
1176.62
1177.32
1177.94
1178.63
1179.34
1180.07
1180.94
1181.98
1183.22
1184.68
1186.38
1188.32
1190.51
1192.96
1195.67
1198.66
1201.93
1205.49
1209.33
1213.46
1217.87
1222.57
1227.54
1232.77
1238.26
1243.97
1249.9
1256.02
1262.31
1268.72
1275.24
1281.82
1288.44
1295.04
1301.59
1308.05
1314.36
1320.5
1326.41
1332.05
1337.37
1342.34
1346.86
1152.75
1166.58
1174.74
1179.28
1181.84
1182.92
1183.49
1184.12
1184.7
1185.33
1186
1186.68
1187.49
1188.47
1189.64
1191.03
1192.64
1194.48
1196.56
1198.89
1201.49
1204.34
1207.47
1210.87
1214.55
1218.52
1222.76
1227.27
1232.05
1237.09
1242.38
1247.9
1253.64
1259.56
1265.66
1271.89
1278.23
1284.65
1291.11
1297.57
1303.99
1310.34
1316.56
1322.62
1328.48
1334.08
1339.39
1344.36
1348.95
1353.12
1356.78
1181.98
1186.27
1188.7
1189.71
1190.22
1190.79
1191.32
1191.9
1192.52
1193.15
1193.91
1194.83
1195.93
1197.24
1198.76
1200.51
1202.48
1204.7
1207.17
1209.9
1212.88
1216.14
1219.66
1223.45
1227.52
1231.85
1236.45
1241.3
1246.4
1251.73
1257.26
1263
1268.9
1274.95
1281.12
1287.37
1293.67
1299.98
1306.28
1312.51
1318.64
1324.63
1330.43
1335.99
1341.29
1346.27
1350.89
1355.11
1358.89
1362.2
1364.92
1195.41
1196.35
1196.81
1197.32
1197.81
1198.33
1198.91
1199.5
1200.2
1201.05
1202.09
1203.32
1204.76
1206.41
1208.28
1210.39
1212.74
1215.33
1218.18
1221.28
1224.65
1228.28
1232.17
1236.33
1240.74
1245.41
1250.31
1255.45
1260.79
1266.33
1272.05
1277.91
1283.9
1289.98
1296.13
1302.3
1308.46
1314.58
1320.61
1326.51
1332.25
1337.78
1343.06
1348.05
1352.7
1356.98
1360.84
1364.24
1367.15
1369.54
1371.28
1203.72
1204.17
1204.64
1205.18
1205.72
1206.36
1207.16
1208.13
1209.28
1210.63
1212.19
1213.96
1215.96
1218.19
1220.65
1223.36
1226.32
1229.53
1233
1236.73
1240.71
1244.94
1249.42
1254.13
1259.07
1264.23
1269.58
1275.1
1280.78
1286.59
1292.51
1298.49
1304.51
1310.54
1316.54
1322.47
1328.29
1333.97
1339.46
1344.72
1349.71
1354.39
1358.71
1362.65
1366.15
1369.19
1371.73
1373.72
1375.13
1375.9
1210.82
1211.33
1211.81
1212.41
1213.14
1214.04
1215.12
1216.39
1217.86
1219.53
1221.42
1223.53
1225.87
1228.44
1231.26
1234.32
1237.63
1241.18
1244.99
1249.04
1253.34
1257.86
1262.62
1267.58
1272.74
1278.08
1283.58
1289.21
1294.95
1300.77
1306.65
1312.54
1318.42
1324.24
1329.98
1335.58
1341.03
1346.26
1351.25
1355.95
1360.32
1364.33
1367.93
1371.09
1373.78
1375.94
1377.56
1378.6
1379.07
1378.85
1217.79
1218.33
1219.01
1219.84
1220.85
1222.03
1223.41
1224.99
1226.77
1228.77
1230.98
1233.42
1236.1
1239.01
1242.16
1245.55
1249.19
1253.07
1257.18
1261.52
1266.08
1270.86
1275.83
1280.98
1286.29
1291.75
1297.32
1302.98
1308.7
1314.45
1320.21
1325.92
1331.57
1337.1
1342.49
1347.7
1352.68
1357.39
1361.81
1365.88
1369.57
1372.85
1375.68
1378.01
1379.83
1381.08
1381.8
1381.89
1381.38
1380.11
1224.76
1225.53
1226.46
1227.57
1228.86
1230.34
1232.02
1233.9
1236
1238.31
1240.85
1243.61
1246.61
1249.84
1253.31
1257.01
1260.94
1265.1
1269.48
1274.07
1278.85
1283.82
1288.95
1294.22
1299.62
1305.12
1310.69
1316.3
1321.92
1327.53
1333.08
1338.54
1343.87
1349.04
1354
1358.73
1363.18
1367.31
1371.09
1374.47
1377.43
1379.94
1381.94
1383.4
1384.34
1384.71
1384.49
1383.61
1382.04
1379.77
1231.97
1233
1234.21
1235.59
1237.17
1238.94
1240.92
1243.11
1245.51
1248.13
1250.98
1254.05
1257.36
1260.89
1264.65
1268.62
1272.82
1277.22
1281.82
1286.6
1291.55
1296.64
1301.87
1307.2
1312.61
1318.08
1323.58
1329.06
1334.51
1339.89
1345.16
1350.28
1355.23
1359.96
1364.43
1368.62
1372.47
1375.96
1379.05
1381.71
1383.89
1385.57
1386.72
1387.36
1387.39
1386.84
1385.62
1383.73
1381.25
1378
1239.45
1240.75
1242.23
1243.9
1245.76
1247.82
1250.09
1252.58
1255.28
1258.2
1261.34
1264.7
1268.29
1272.09
1276.1
1280.32
1284.73
1289.33
1294.09
1299.01
1304.07
1309.23
1314.49
1319.81
1325.17
1330.54
1335.88
1341.17
1346.37
1351.45
1356.37
1361.09
1365.59
1369.81
1373.74
1377.32
1380.53
1383.33
1385.69
1387.57
1388.94
1389.81
1390.13
1389.87
1388.99
1387.45
1385.31
1382.53
1379.05
1374.77
1247.19
1248.76
1250.51
1252.45
1254.6
1256.95
1259.5
1262.27
1265.26
1268.46
1271.87
1275.5
1279.33
1283.37
1287.6
1292.02
1296.6
1301.34
1306.22
1311.22
1316.32
1321.49
1326.71
1331.95
1337.19
1342.39
1347.51
1352.53
1357.42
1362.13
1366.64
1370.9
1374.88
1378.55
1381.87
1384.81
1387.34
1389.41
1391
1392.09
1392.69
1392.7
1392.15
1390.96
1389.13
1386.74
1383.68
1379.92
1375.44
1370.17
1257.01
1259.03
1261.25
1263.67
1266.29
1269.12
1272.16
1275.41
1278.86
1282.52
1286.38
1290.43
1294.67
1299.07
1303.64
1308.34
1313.18
1318.11
1323.13
1328.21
1333.33
1338.45
1343.55
1348.59
1353.55
1358.4
1363.09
1367.6
1371.89
1375.92
1379.67
1383.09
1386.16
1388.83
1391.09
1392.89
1394.2
1395.04
1395.34
1395.1
1394.26
1392.78
1390.72
1388.07
1384.74
1380.72
1375.99
1370.54
1364.29
1265.48
1267.76
1270.25
1272.93
1275.81
1278.9
1282.19
1285.68
1289.36
1293.23
1297.29
1301.52
1305.9
1310.44
1315.1
1319.88
1324.74
1329.68
1334.66
1339.67
1344.66
1349.62
1354.51
1359.31
1363.97
1368.47
1372.78
1376.85
1380.66
1384.18
1387.36
1390.19
1392.61
1394.61
1396.14
1397.21
1397.81
1397.83
1397.33
1396.22
1394.48
1392.2
1389.3
1385.72
1381.46
1376.51
1370.84
1364.49
1357.3
1274.15
1276.69
1279.42
1282.35
1285.47
1288.79
1292.31
1296.01
1299.89
1303.94
1308.15
1312.51
1317.01
1321.62
1326.33
1331.12
1335.97
1340.85
1345.74
1350.6
1355.42
1360.16
1364.78
1369.27
1373.58
1377.69
1381.56
1385.15
1388.44
1391.4
1393.98
1396.17
1397.91
1399.21
1400.05
1400.38
1400.18
1399.41
1398.05
1396.1
1393.6
1390.46
1386.65
1382.17
1377
1371.17
1364.6
1357.35
1349.27
1285.76
1288.72
1291.88
1295.23
1298.75
1302.46
1306.34
1310.38
1314.57
1318.89
1323.34
1327.9
1332.54
1337.25
1342
1346.78
1351.55
1356.28
1360.95
1365.54
1370
1374.31
1378.44
1382.35
1386.01
1389.4
1392.47
1395.2
1397.56
1399.51
1401.03
1402.11
1402.73
1402.8
1402.38
1401.38
1399.78
1397.65
1394.92
1391.56
1387.55
1382.87
1377.52
1371.49
1364.79
1357.35
1349.25
1340.33
1294.94
1298.12
1301.48
1305.02
1308.73
1312.59
1316.61
1320.77
1325.06
1329.46
1333.95
1338.52
1343.14
1347.8
1352.46
1357.1
1361.71
1366.24
1370.67
1374.96
1379.1
1383.05
1386.77
1390.23
1393.42
1396.28
1398.8
1400.94
1402.67
1403.98
1404.85
1405.24
1405.11
1404.46
1403.24
1401.44
1399.12
1396.19
1392.63
1388.43
1383.56
1378.05
1371.87
1365
1357.46
1349.2
1340.29
1330.56
1307.57
1311.1
1314.8
1318.65
1322.65
1326.77
1331.01
1335.35
1339.77
1344.26
1348.8
1353.35
1357.9
1362.42
1366.89
1371.28
1375.56
1379.69
1383.66
1387.43
1390.97
1394.24
1397.23
1399.89
1402.21
1404.14
1405.66
1406.78
1407.45
1407.61
1407.29
1406.44
1405.01
1403.04
1400.54
1397.42
1393.68
1389.31
1384.28
1378.62
1372.29
1365.3
1357.63
1349.3
1340.25
1330.58
1320.1
1317.01
1320.69
1324.52
1328.48
1332.56
1336.75
1341.03
1345.38
1349.79
1354.23
1358.68
1363.11
1367.51
1371.85
1376.09
1380.22
1384.2
1388
1391.59
1394.95
1398.05
1400.85
1403.32
1405.44
1407.18
1408.51
1409.44
1409.91
1409.88
1409.37
1408.32
1406.71
1404.59
1401.91
1398.63
1394.72
1390.19
1385.03
1379.23
1372.78
1365.67
1357.91
1349.47
1340.39
1330.6
1320.22
1309.03
1330.19
1334.12
1338.15
1342.29
1346.5
1350.77
1355.09
1359.44
1363.78
1368.11
1372.38
1376.59
1380.69
1384.67
1388.49
1392.13
1395.56
1398.75
1401.66
1404.28
1406.58
1408.51
1410.06
1411.23
1411.98
1412.25
1412.06
1411.36
1410.14
1408.36
1406.1
1403.26
1399.82
1395.77
1391.1
1385.82
1379.9
1373.34
1366.14
1358.28
1349.79
1340.62
1330.84
1320.34
1309.31
1297.46
1339.57
1343.55
1347.62
1351.76
1355.96
1360.19
1364.44
1368.68
1372.89
1377.04
1381.12
1385.08
1388.92
1392.59
1396.07
1399.34
1402.36
1405.11
1407.56
1409.68
1411.43
1412.82
1413.82
1414.39
1414.49
1414.14
1413.28
1411.89
1409.98
1407.57
1404.58
1401
1396.83
1392.04
1386.65
1380.63
1373.98
1366.7
1358.78
1350.21
1341.03
1331.17
1320.75
1309.58
1297.95
1285.49
1348.75
1352.76
1356.83
1360.95
1365.09
1369.24
1373.38
1377.47
1381.5
1385.45
1389.28
1392.97
1396.5
1399.83
1402.94
1405.8
1408.39
1410.67
1412.63
1414.22
1415.45
1416.3
1416.7
1416.65
1416.14
1415.13
1413.59
1411.56
1409.02
1405.9
1402.2
1397.91
1393.02
1387.54
1381.43
1374.71
1367.36
1359.38
1350.79
1341.54
1331.72
1321.2
1310.19
1298.41
1286.23
1273.21
1357.72
1361.71
1365.75
1369.8
1373.85
1377.88
1381.86
1385.77
1389.59
1393.29
1396.84
1400.23
1403.41
1406.38
1409.09
1411.52
1413.65
1415.44
1416.89
1417.98
1418.67
1418.91
1418.73
1418.07
1416.92
1415.25
1413.12
1410.45
1407.21
1403.41
1399.02
1394.05
1388.48
1382.31
1375.52
1368.12
1360.12
1351.47
1342.25
1332.36
1321.95
1310.82
1299.26
1286.91
1274.24
1260.71
1366.41
1370.36
1374.32
1378.27
1382.19
1386.06
1389.86
1393.55
1397.12
1400.55
1403.79
1406.84
1409.66
1412.23
1414.51
1416.5
1418.14
1419.46
1420.41
1420.95
1421.05
1420.74
1419.95
1418.67
1416.9
1414.65
1411.87
1408.54
1404.64
1400.17
1395.12
1389.49
1383.26
1376.43
1369
1360.95
1352.32
1343.06
1333.24
1322.75
1311.79
1300.09
1288.04
1275.17
1262.05
1248.09
1374.79
1378.66
1382.52
1386.33
1390.09
1393.77
1397.35
1400.79
1404.09
1407.2
1410.11
1412.8
1415.23
1417.38
1419.22
1420.73
1421.93
1422.74
1423.14
1423.12
1422.69
1421.78
1420.39
1418.52
1416.17
1413.3
1409.87
1405.9
1401.36
1396.25
1390.57
1384.29
1377.43
1369.97
1361.93
1353.28
1344.06
1334.2
1323.84
1312.79
1301.33
1289.11
1276.61
1263.28
1249.76
1235.4
1382.83
1386.59
1390.31
1393.96
1397.52
1400.98
1404.31
1407.48
1410.47
1413.25
1415.8
1418.1
1420.12
1421.83
1423.23
1424.3
1424.98
1425.26
1425.13
1424.58
1423.57
1422.07
1420.12
1417.69
1414.73
1411.23
1407.18
1402.59
1397.44
1391.71
1385.41
1378.53
1371.06
1363.01
1354.38
1345.16
1335.39
1324.98
1314.11
1302.55
1290.63
1277.94
1265.03
1251.3
1237.42
1222.74
1394.12
1397.66
1401.12
1404.47
1407.67
1410.72
1413.59
1416.25
1418.68
1420.86
1422.75
1424.34
1425.64
1426.58
1427.15
1427.31
1427.09
1426.43
1425.33
1423.74
1421.71
1419.2
1416.17
1412.61
1408.51
1403.87
1398.68
1392.93
1386.61
1379.72
1372.25
1364.22
1355.6
1346.43
1336.66
1326.39
1315.47
1304.14
1292.1
1279.77
1266.67
1253.38
1239.31
1225.11
1210.15
1401.22
1404.57
1407.81
1410.9
1413.84
1416.59
1419.13
1421.45
1423.51
1425.28
1426.77
1427.95
1428.78
1429.25
1429.31
1428.99
1428.25
1427.05
1425.39
1423.3
1420.71
1417.62
1414.01
1409.87
1405.2
1399.98
1394.21
1387.89
1381
1373.55
1365.54
1356.96
1347.82
1338.14
1327.87
1317.11
1305.74
1293.97
1281.52
1268.8
1255.34
1241.72
1227.36
1212.88
1197.71
1407.88
1411.01
1414
1416.82
1419.47
1421.9
1424.1
1426.05
1427.72
1429.12
1430.19
1430.92
1431.28
1431.26
1430.85
1430.03
1428.75
1427.03
1424.87
1422.23
1419.09
1415.44
1411.27
1406.58
1401.34
1395.57
1389.25
1382.38
1374.95
1366.97
1358.43
1349.35
1339.71
1329.55
1318.82
1307.63
1295.84
1283.68
1270.86
1257.79
1244.03
1230.11
1215.51
1200.81
1185.47
1416.97
1419.69
1422.23
1424.56
1426.66
1428.5
1430.08
1431.38
1432.35
1432.99
1433.26
1433.16
1432.68
1431.77
1430.43
1428.66
1426.45
1423.76
1420.58
1416.9
1412.71
1408
1402.77
1397
1390.69
1383.84
1376.45
1368.51
1360.03
1351
1341.45
1331.35
1320.75
1309.59
1298
1285.83
1273.31
1260.17
1246.79
1232.77
1218.61
1203.82
1188.93
1173.48
1422.45
1424.89
1427.12
1429.11
1430.86
1432.36
1433.56
1434.45
1435
1435.19
1435.02
1434.46
1433.5
1432.1
1430.28
1428.03
1425.3
1422.09
1418.39
1414.19
1409.48
1404.24
1398.49
1392.21
1385.39
1378.04
1370.15
1361.73
1352.78
1343.29
1333.3
1322.77
1311.77
1300.23
1288.27
1275.76
1262.92
1249.51
1235.86
1221.63
1207.26
1192.32
1177.3
1161.77
1427.44
1429.58
1431.48
1433.15
1434.56
1435.67
1436.48
1436.95
1437.07
1436.84
1436.22
1435.2
1433.75
1431.89
1429.6
1426.85
1423.62
1419.91
1415.7
1411
1405.78
1400.05
1393.8
1387.02
1379.72
1371.89
1363.54
1354.66
1345.27
1335.36
1324.96
1314.04
1302.67
1290.78
1278.49
1265.69
1252.57
1238.92
1225.04
1210.64
1196.1
1181.06
1165.95
1150.39
1431.95
1433.77
1435.36
1436.68
1437.72
1438.45
1438.86
1438.91
1438.62
1437.95
1436.88
1435.39
1433.5
1431.19
1428.41
1425.17
1421.46
1417.26
1412.56
1407.37
1401.67
1395.46
1388.73
1381.49
1373.73
1365.45
1356.66
1347.36
1337.56
1327.26
1316.48
1305.2
1293.49
1281.3
1268.71
1255.65
1242.29
1228.44
1214.37
1199.84
1185.18
1170.08
1154.91
1139.37
1437.49
1438.74
1439.71
1440.37
1440.71
1440.71
1440.37
1439.66
1438.55
1437.02
1435.11
1432.78
1429.99
1426.75
1423.03
1418.85
1414.18
1409.01
1403.35
1397.19
1390.52
1383.34
1375.65
1367.46
1358.76
1349.56
1339.87
1329.69
1319.02
1307.9
1296.3
1284.28
1271.81
1258.97
1245.69
1232.12
1218.11
1203.9
1189.27
1174.52
1159.4
1144.22
1128.73
1440.74
1441.64
1442.24
1442.53
1442.48
1442.09
1441.34
1440.2
1438.65
1436.72
1434.37
1431.58
1428.34
1424.64
1420.47
1415.83
1410.7
1405.09
1398.98
1392.37
1385.27
1377.66
1369.56
1360.96
1351.86
1342.28
1332.22
1321.69
1310.69
1299.26
1287.37
1275.08
1262.37
1249.31
1235.84
1222.1
1207.97
1193.64
1178.96
1164.16
1149.05
1133.9
1118.48
1443.52
1444.06
1444.3
1444.21
1443.78
1443
1441.83
1440.26
1438.33
1435.97
1433.18
1429.95
1426.27
1422.13
1417.52
1412.44
1406.88
1400.83
1394.29
1387.26
1379.74
1371.73
1363.24
1354.26
1344.79
1334.86
1324.46
1313.61