/*--------------------------------*- C++ -*----------------------------------*\
| =========                 |                                                 |
| \\      /  F ield         | OpenFOAM: The Open Source CFD Toolbox           |
|  \\    /   O peration     | Version:  v1706                                 |
|   \\  /    A nd           | Web:      www.OpenFOAM.com                      |
|    \\/     M anipulation  |                                                 |
\*---------------------------------------------------------------------------*/
FoamFile
{
    version     2.0;
    format      ascii;
    class       volScalarField;
    location    "4e-06";
    object      Tv;
}
// * * * * * * * * * * * * * * * * * * * * * * * * * * * * * * * * * * * * * //

dimensions      [0 0 0 1 0 0 0];


internalField   nonuniform List<scalar> 
30038
(
144.4
144.4
144.4
144.4
144.4
144.4
144.4
144.4
144.4
144.4
144.4
144.4
144.4
144.4
144.4
144.4
144.4
144.4
144.4
144.4
144.4
144.4
144.4
144.4
144.4
144.4
144.4
144.4
144.4
144.4
144.4
144.4
144.4
144.4
144.4
144.4
144.4
144.4
144.4
144.4
144.4
144.4
144.4
144.4
144.4
144.4
144.4
144.4
144.4
144.4
144.4
144.4
144.4
144.4
144.4
144.4
144.4
144.4
144.4
144.4
144.4
144.4
144.4
144.4
144.4
144.4
144.4
144.4
144.4
144.4
144.4
144.4
144.4
144.4
144.4
144.4
144.4
144.4
144.4
144.4
144.4
144.4
144.4
144.4
144.4
144.4
144.4
144.4
144.4
144.4
144.4
144.4
144.4
144.4
144.4
144.4
144.4
144.4
144.4
144.4
144.4
144.4
144.4
144.4
144.4
144.4
144.4
144.4
144.4
144.4
144.4
144.4
144.4
144.4
144.4
144.4
144.4
144.4
144.4
144.4
144.4
144.4
144.4
144.4
144.4
144.4
144.4
144.4
144.4
144.4
144.4
144.4
144.4
144.4
144.4
144.4
144.4
144.4
144.4
144.4
144.4
144.4
144.4
144.4
144.4
144.4
144.4
144.4
144.4
144.4
144.4
144.4
144.4
144.4
144.4
144.4
144.4
144.4
144.4
144.4
144.4
144.4
144.4
144.4
144.4
144.4
144.4
144.4
144.4
144.4
144.4
144.4
144.4
144.4
144.4
144.4
144.4
144.4
144.4
144.4
144.4
144.4
144.4
144.4
144.4
144.4
144.4
144.4
144.4
144.4
144.4
144.4
144.4
144.4
144.4
144.4
144.4
144.4
144.4
144.4
144.4
144.4
144.4
144.4
144.4
144.4
144.4
144.4
144.4
144.4
144.4
144.4
144.4
144.4
144.4
144.4
144.4
144.4
144.4
144.4
144.4
144.4
144.4
144.4
144.4
144.4
144.4
144.4
144.4
144.4
144.4
144.4
144.4
144.4
144.4
144.4
144.4
144.4
144.4
144.4
144.4
144.4
144.4
144.4
144.4
144.4
144.4
144.4
144.4
144.4
144.4
144.4
144.4
144.4
144.4
144.4
144.4
144.4
144.4
144.4
144.4
144.4
144.4
144.4
144.4
144.4
144.4
144.4
144.4
144.4
144.4
144.4
144.4
144.4
144.4
144.4
144.4
144.4
144.4
144.4
144.4
144.4
144.4
144.4
144.4
144.4
144.4
144.4
144.4
144.4
144.4
144.4
144.4
144.4
144.4
144.4
144.4
144.4
144.4
144.4
144.4
144.4
144.4
144.4
144.4
144.4
144.4
144.4
144.4
144.4
144.4
144.4
144.4
144.4
144.4
144.4
144.4
144.4
144.4
144.4
144.4
144.4
144.4
144.4
144.4
144.4
144.4
144.4
144.4
144.4
144.4
144.4
144.4
144.4
144.4
144.4
144.4
144.4
144.4
144.4
144.4
144.4
144.4
144.4
144.4
144.4
144.4
144.4
144.4
144.4
144.4
144.4
144.4
144.4
144.4
144.4
144.4
144.4
144.4
144.4
144.4
144.4
144.4
144.4
144.4
144.4
144.4
144.4
144.4
144.4
144.4
144.4
144.4
144.4
144.4
144.4
144.4
144.4
144.4
144.4
144.4
144.4
144.4
144.4
144.4
144.4
144.4
144.4
144.4
144.4
144.4
144.4
144.4
144.4
144.4
144.4
144.4
144.4
144.4
144.4
144.4
144.4
144.4
144.4
144.4
144.4
144.4
144.4
144.4
144.4
144.4
144.4
144.4
144.4
144.4
144.4
144.4
144.4
144.4
144.4
144.4
144.4
144.4
144.4
144.4
144.4
144.4
144.4
144.4
144.4
144.4
144.4
144.4
144.4
144.4
144.4
144.4
144.4
144.4
144.4
144.4
144.4
144.4
144.4
144.4
144.4
144.4
144.4
144.4
144.4
144.4
144.4
144.4
144.4
144.4
144.4
144.4
144.4
144.4
144.4
144.4
144.4
144.4
144.4
144.4
144.4
144.4
144.4
144.4
144.4
144.4
144.4
144.4
144.4
144.4
144.4
144.4
144.4
144.4
144.4
144.4
144.4
144.4
144.4
144.4
144.4
144.4
144.4
144.4
144.4
144.4
144.4
144.4
144.4
144.4
144.4
144.4
144.4
144.4
144.4
144.4
144.4
144.4
144.4
144.4
144.4
144.4
144.4
144.4
144.4
144.4
144.4
144.4
144.4
144.4
144.4
144.4
144.4
144.4
144.4
144.4
144.4
144.4
144.4
144.4
144.4
144.4
144.4
144.4
144.4
144.4
144.4
144.4
144.4
144.4
144.4
144.4
144.4
144.4
144.4
144.4
144.4
144.4
144.4
144.4
144.4
144.4
144.4
144.4
144.4
144.4
144.4
144.4
144.4
144.4
144.4
144.4
144.4
144.4
144.4
144.4
144.4
144.4
144.4
144.4
144.4
144.4
144.4
144.4
144.4
144.4
144.4
144.4
144.4
144.4
144.4
144.4
144.4
144.4
144.4
144.4
144.4
144.4
144.4
144.4
144.4
144.4
144.4
144.4
144.4
144.4
144.4
144.4
144.4
144.4
144.4
144.4
144.4
144.4
144.4
144.4
144.4
144.4
144.4
144.4
144.4
144.4
144.4
144.4
144.4
144.4
144.4
144.4
144.4
144.4
144.4
144.4
144.4
144.4
144.4
144.4
144.4
144.4
144.4
144.4
144.4
144.4
144.4
144.4
144.4
144.4
144.4
144.4
144.4
144.4
144.4
144.4
144.4
144.4
144.4
144.4
144.4
144.4
144.4
144.4
144.4
144.4
144.4
144.4
144.4
144.4
144.4
144.4
144.4
144.4
144.4
144.4
144.4
144.4
144.4
144.4
144.4
144.4
144.4
144.4
144.4
144.4
144.4
144.4
144.4
144.4
144.4
144.4
144.4
144.4
144.4
144.4
144.4
144.4
144.4
144.4
144.4
144.4
144.4
144.4
144.4
144.4
144.4
144.4
144.4
144.4
144.4
144.4
144.4
144.4
144.4
144.4
144.4
144.4
144.4
144.4
144.4
144.4
144.4
144.4
144.4
144.4
144.4
144.4
144.4
144.4
144.4
144.4
144.4
144.4
144.4
144.4
144.4
144.4
144.4
144.4
144.4
144.4
144.4
144.4
144.4
144.4
144.4
144.4
144.4
144.4
144.4
144.4
144.4
144.4
144.4
144.4
144.4
144.4
144.4
144.4
144.4
144.4
144.4
144.4
144.4
144.4
144.4
144.4
144.4
144.4
144.4
144.4
144.4
144.4
144.4
144.4
144.4
144.4
144.4
144.4
144.4
144.4
144.4
144.4
144.4
144.4
144.4
144.4
144.4
144.4
144.4
144.4
144.4
144.4
144.4
144.4
144.4
144.4
144.4
144.4
144.4
144.4
144.4
144.4
144.4
144.4
144.4
144.4
144.4
144.4
144.4
144.4
144.4
144.4
144.4
144.4
144.4
144.4
144.4
144.4
144.4
144.4
144.4
144.4
144.4
144.4
144.4
144.4
144.4
144.4
144.4
144.4
144.4
144.4
144.4
144.4
144.4
144.4
144.4
144.4
144.4
144.4
144.4
144.401
144.4
144.4
144.4
144.4
144.4
144.4
144.4
144.4
144.4
144.4
144.4
144.4
144.4
144.4
144.4
144.4
144.4
144.4
144.4
144.4
144.4
144.4
144.4
144.4
144.4
144.4
144.4
144.4
144.4
144.4
144.4
144.4
144.4
144.4
144.4
144.4
144.4
144.4
144.4
144.401
144.401
144.403
144.406
144.4
144.4
144.4
144.4
144.4
144.4
144.4
144.4
144.4
144.4
144.4
144.4
144.4
144.4
144.4
144.4
144.4
144.4
144.4
144.4
144.4
144.4
144.4
144.4
144.4
144.4
144.4
144.4
144.4
144.4
144.4
144.4
144.4
144.4
144.4
144.4
144.4
144.401
144.402
144.404
144.409
144.418
144.44
144.4
144.4
144.4
144.4
144.4
144.4
144.4
144.4
144.4
144.4
144.4
144.4
144.4
144.4
144.4
144.4
144.4
144.4
144.4
144.4
144.4
144.4
144.4
144.4
144.4
144.4
144.4
144.4
144.4
144.4
144.4
144.4
144.4
144.4
144.4
144.401
144.402
144.403
144.407
144.414
144.428
144.458
144.52
144.657
144.4
144.4
144.4
144.4
144.4
144.4
144.4
144.4
144.4
144.4
144.4
144.4
144.4
144.4
144.4
144.4
144.4
144.4
144.4
144.4
144.4
144.4
144.4
144.4
144.4
144.4
144.4
144.4
144.4
144.4
144.4
144.4
144.4
144.401
144.401
144.403
144.405
144.411
144.422
144.445
144.491
144.584
144.766
145.114
145.775
144.4
144.4
144.4
144.4
144.4
144.4
144.4
144.4
144.4
144.4
144.4
144.4
144.4
144.4
144.4
144.4
144.4
144.4
144.4
144.4
144.4
144.4
144.4
144.4
144.4
144.4
144.4
144.4
144.4
144.4
144.4
144.4
144.401
144.402
144.404
144.408
144.417
144.434
144.469
144.54
144.68
144.948
145.434
146.254
147.514
149.298
144.4
144.4
144.4
144.4
144.4
144.4
144.4
144.4
144.4
144.4
144.4
144.4
144.4
144.4
144.4
144.4
144.4
144.4
144.4
144.4
144.4
144.4
144.4
144.4
144.4
144.4
144.4
144.4
144.4
144.4
144.4
144.401
144.402
144.403
144.406
144.413
144.426
144.453
144.506
144.613
144.82
145.204
145.872
146.935
148.447
150.372
152.609
155.081
144.4
144.4
144.4
144.4
144.4
144.4
144.4
144.4
144.4
144.4
144.4
144.4
144.4
144.4
144.4
144.4
144.4
144.4
144.4
144.4
144.4
144.4
144.4
144.4
144.4
144.4
144.4
144.4
144.401
144.401
144.402
144.405
144.41
144.42
144.44
144.48
144.561
144.719
145.017
145.553
146.439
147.763
149.528
151.645
153.976
156.399
158.844
161.32
144.4
144.4
144.4
144.4
144.4
144.4
144.4
144.4
144.4
144.4
144.4
144.4
144.4
144.4
144.4
144.4
144.4
144.4
144.4
144.4
144.4
144.4
144.4
144.4
144.4
144.4
144.4
144.4
144.401
144.402
144.404
144.407
144.415
144.43
144.46
144.521
144.64
144.869
145.289
146.011
147.141
148.726
150.713
152.98
155.388
157.831
160.246
162.599
164.9
167.224
144.4
144.4
144.4
144.4
144.4
144.4
144.4
144.4
144.4
144.4
144.4
144.4
144.4
144.4
144.4
144.4
144.4
144.4
144.4
144.4
144.4
144.4
144.4
144.4
144.4
144.401
144.401
144.403
144.406
144.411
144.422
144.445
144.49
144.58
144.753
145.078
145.653
146.593
147.979
149.806
151.975
154.347
156.799
159.246
161.641
163.965
166.223
168.411
170.538
172.689
144.4
144.4
144.4
144.4
144.4
144.4
144.4
144.4
144.4
144.4
144.4
144.4
144.4
144.4
144.4
144.4
144.4
144.4
144.4
144.4
144.4
144.4
144.401
144.401
144.402
144.404
144.408
144.417
144.434
144.467
144.534
144.664
144.911
145.36
146.123
147.304
148.942
150.978
153.285
155.725
158.195
160.63
162.999
165.294
167.523
169.684
171.779
173.797
175.725
177.649
144.4
144.4
144.4
144.4
144.4
144.4
144.4
144.4
144.4
144.4
144.4
144.4
144.4
144.4
144.4
144.4
144.4
144.4
144.4
144.4
144.401
144.402
144.403
144.406
144.413
144.425
144.45
144.499
144.596
144.782
145.127
145.732
146.711
148.141
150.01
152.216
154.62
157.098
159.566
161.98
164.319
166.585
168.785
170.92
172.986
174.971
176.864
178.667
180.375
182.073
144.4
144.4
144.4
144.4
144.4
144.4
144.4
144.4
144.4
144.4
144.4
144.4
144.4
144.4
144.4
144.4
144.4
144.401
144.401
144.402
144.405
144.409
144.419
144.437
144.474
144.545
144.684
144.945
145.414
146.206
147.42
149.092
151.161
153.496
155.961
158.453
160.907
163.293
165.6
167.837
170.009
172.117
174.154
176.106
177.965
179.732
181.404
182.998
184.526
186.06
144.4
144.4
144.4
144.4
144.4
144.4
144.4
144.4
144.4
144.4
144.4
144.4
144.4
144.4
144.4
144.401
144.402
144.404
144.407
144.414
144.428
144.454
144.507
144.61
144.805
145.164
145.788
146.791
148.247
150.141
152.37
154.796
157.295
159.783
162.213
164.567
166.843
169.05
171.196
173.277
175.283
177.202
179.027
180.759
182.396
183.96
185.459
186.903
188.297
189.705
144.4
144.4
144.4
144.4
144.4
144.4
144.4
144.4
144.4
144.4
144.4
144.4
144.401
144.401
144.403
144.405
144.41
144.42
144.44
144.479
144.554
144.699
144.969
145.452
146.259
147.491
149.18
151.265
153.617
156.1
158.61
161.081
163.482
165.804
168.047
170.226
172.345
174.399
176.375
178.26
180.052
181.748
183.353
184.888
186.359
187.777
189.148
190.477
191.766
193.07
144.4
144.4
144.4
144.4
144.4
144.4
144.4
144.4
144.4
144.401
144.401
144.402
144.404
144.408
144.415
144.43
144.458
144.513
144.62
144.821
145.188
145.822
146.835
148.301
150.204
152.444
154.882
157.396
159.9
162.346
164.714
167.002
169.214
171.366
173.459
175.484
177.429
179.282
181.041
182.702
184.276
185.783
187.228
188.621
189.969
191.276
192.545
193.779
194.979
196.193
144.4
144.4
144.4
144.4
144.4
144.4
144.4
144.401
144.402
144.403
144.406
144.411
144.422
144.443
144.483
144.561
144.71
144.985
145.473
146.285
147.519
149.21
151.298
153.656
156.15
158.673
161.159
163.575
165.909
168.163
170.345
172.47
174.536
176.534
178.447
180.268
181.993
183.621
185.167
186.646
188.065
189.435
190.76
192.046
193.295
194.511
195.693
196.845
197.965
199.094
144.4
144.4
144.4
144.4
144.401
144.401
144.402
144.404
144.408
144.416
144.432
144.461
144.518
144.627
144.831
145.201
145.836
146.847
148.306
150.204
152.442
154.885
157.408
159.925
162.385
164.767
167.066
169.287
171.44
173.539
175.579
177.547
179.43
181.219
182.912
184.508
186.026
187.478
188.873
190.22
191.524
192.789
194.019
195.216
196.382
197.517
198.622
199.697
200.74
201.788
144.4
144.4
144.401
144.402
144.403
144.406
144.412
144.423
144.445
144.487
144.567
144.717
144.993
145.48
146.286
147.51
149.188
151.265
153.619
156.116
158.648
161.147
163.576
165.922
168.186
170.375
172.501
174.574
176.587
178.527
180.379
182.136
183.797
185.363
186.854
188.281
189.652
190.977
192.26
193.506
194.717
195.897
197.046
198.166
199.256
200.317
201.347
202.347
203.316
204.283
144.401
144.402
144.405
144.409
144.417
144.433
144.464
144.522
144.632
144.837
145.205
145.833
146.831
148.272
150.151
152.375
154.812
157.338
159.864
162.337
164.731
167.041
169.27
171.429
173.527
175.575
177.561
179.472
181.294
183.021
184.65
186.188
187.653
189.055
190.404
191.707
192.97
194.197
195.39
196.553
197.686
198.79
199.866
200.914
201.932
202.921
203.879
204.805
205.698
206.585
144.407
144.413
144.425
144.447
144.49
144.57
144.721
144.995
145.476
146.269
147.471
149.124
151.178
153.517
156.009
158.545
161.053
163.494
165.851
168.124
170.32
172.448
174.521
176.543
178.503
180.384
182.176
183.874
185.473
186.983
188.424
189.802
191.129
192.412
193.655
194.863
196.039
197.185
198.302
199.392
200.454
201.489
202.495
203.473
204.421
205.338
206.223
207.075
207.893
208.7
144.435
144.466
144.525
144.635
144.838
145.201
145.817
146.793
148.205
150.054
152.254
154.677
157.199
159.729
162.211
164.616
166.936
169.173
171.335
173.435
175.482
177.479
179.411
181.265
183.028
184.696
186.266
187.75
189.167
190.523
191.829
193.091
194.315
195.505
196.664
197.794
198.896
199.971
201.02
202.042
203.037
204.004
204.942
205.851
206.728
207.574
208.386
209.163
209.906
210.632
144.573
144.722
144.992
145.463
146.236
147.409
149.026
151.047
153.363
155.842
158.376
160.888
163.338
165.705
167.986
170.188
172.319
174.391
176.412
178.383
180.288
182.114
183.848
185.488
187.03
188.49
189.883
191.218
192.503
193.746
194.952
196.124
197.266
198.38
199.467
200.528
201.564
202.574
203.557
204.514
205.443
206.343
207.214
208.053
208.86
209.633
210.372
211.074
211.741
212.388
144.837
145.192
145.791
146.74
148.115
149.923
152.09
154.491
157.003
159.532
162.019
164.432
166.76
169.004
171.171
173.271
175.316
177.312
179.257
181.135
182.932
184.639
186.251
187.767
189.203
190.574
191.887
193.153
194.378
195.566
196.721
197.847
198.945
200.018
201.065
202.088
203.085
204.058
205.004
205.924
206.816
207.68
208.513
209.315
210.084
210.82
211.521
212.186
212.814
213.406
213.974
146.194
147.331
148.905
150.884
153.167
155.626
158.151
160.664
163.119
165.494
167.783
169.99
172.123
174.193
176.211
178.182
180.101
181.952
183.722
185.402
186.986
188.477
189.891
191.24
192.533
193.78
194.986
196.157
197.296
198.406
199.489
200.548
201.581
202.591
203.577
204.539
205.475
206.386
207.27
208.126
208.954
209.751
210.516
211.249
211.949
212.613
213.242
213.834
214.388
214.905
215.395
148.01
149.771
151.895
154.265
156.759
159.282
161.771
164.189
166.524
168.774
170.944
173.045
175.086
177.078
179.024
180.917
182.741
184.484
186.137
187.695
189.162
190.554
191.882
193.156
194.384
195.573
196.727
197.85
198.945
200.013
201.058
202.078
203.076
204.05
205.001
205.927
206.829
207.705
208.555
209.376
210.168
210.93
211.661
212.359
213.023
213.652
214.246
214.803
215.322
215.803
216.245
216.659
152.941
155.373
157.884
160.392
162.849
165.229
167.524
169.735
171.869
173.938
175.951
177.918
179.838
181.705
183.503
185.219
186.846
188.379
189.822
191.193
192.501
193.756
194.967
196.139
197.276
198.384
199.463
200.518
201.548
202.556
203.541
204.504
205.444
206.361
207.254
208.122
208.965
209.78
210.568
211.326
212.054
212.751
213.415
214.045
214.64
215.199
215.722
216.208
216.655
217.063
217.433
217.772
158.993
161.478
163.899
166.238
168.492
170.665
172.766
174.804
176.79
178.73
180.626
182.467
184.238
185.928
187.529
189.038
190.459
191.809
193.098
194.335
195.528
196.683
197.805
198.897
199.963
201.003
202.02
203.015
203.989
204.94
205.87
206.777
207.662
208.522
209.358
210.168
210.95
211.705
212.431
213.126
213.789
214.42
215.017
215.579
216.106
216.596
217.049
217.463
217.84
218.177
218.475
218.74
164.92
167.218
169.432
171.568
173.634
175.643
177.602
179.518
181.388
183.203
184.948
186.612
188.189
189.674
191.073
192.404
193.673
194.893
196.069
197.208
198.315
199.392
200.443
201.47
202.474
203.457
204.418
205.359
206.278
207.176
208.052
208.905
209.734
210.538
211.316
212.067
212.79
213.483
214.146
214.778
215.376
215.941
216.472
216.967
217.425
217.847
218.23
218.576
218.882
219.149
219.376
219.569
170.343
172.442
174.477
176.456
178.389
180.28
182.125
183.914
185.634
187.273
188.825
190.288
191.666
192.977
194.229
195.431
196.591
197.715
198.806
199.868
200.906
201.919
202.91
203.881
204.831
205.76
206.67
207.558
208.426
209.271
210.093
210.892
211.665
212.412
213.133
213.825
214.487
215.119
215.719
216.287
216.821
217.321
217.785
218.213
218.605
218.958
219.274
219.551
219.788
219.986
220.144
220.266
175.293
177.244
179.151
181.018
182.839
184.602
186.296
187.91
189.439
190.879
192.238
193.53
194.764
195.95
197.094
198.202
199.279
200.327
201.351
202.351
203.33
204.288
205.227
206.146
207.045
207.925
208.783
209.621
210.437
211.229
211.998
212.742
213.459
214.15
214.812
215.444
216.046
216.616
217.154
217.659
218.129
218.563
218.962
219.324
219.649
219.936
220.185
220.394
220.564
220.694
220.783
220.836
179.89
181.732
183.529
185.267
186.936
188.525
190.031
191.451
192.79
194.064
195.281
196.451
197.579
198.673
199.735
200.769
201.779
202.767
203.733
204.68
205.607
206.515
207.405
208.275
209.126
209.956
210.765
211.552
212.316
213.056
213.771
214.459
215.121
215.753
216.357
216.93
217.471
217.98
218.456
218.897
219.303
219.674
220.008
220.305
220.565
220.786
220.968
221.112
221.215
221.279
221.299
221.286
185.91
187.554
189.12
190.603
192.002
193.323
194.579
195.78
196.934
198.047
199.126
200.174
201.195
202.192
203.167
204.121
205.056
205.972
206.87
207.749
208.611
209.453
210.275
211.078
211.859
212.618
213.355
214.067
214.753
215.414
216.047
216.652
217.227
217.772
218.286
218.767
219.215
219.628
220.007
220.351
220.658
220.929
221.162
221.357
221.513
221.631
221.709
221.746
221.743
221.704
221.625
189.694
191.156
192.535
193.837
195.076
196.261
197.399
198.498
199.563
200.597
201.605
202.589
203.551
204.494
205.417
206.322
207.21
208.08
208.932
209.766
210.581
211.376
212.152
212.906
213.639
214.348
215.033
215.692
216.326
216.932
217.509
218.058
218.575
219.062
219.516
219.937
220.325
220.677
220.995
221.276
221.521
221.729
221.899
222.031
222.123
222.178
222.188
222.166
222.102
221.998
221.853
193.049
194.333
195.556
196.725
197.849
198.933
199.984
201.005
202
202.971
203.921
204.852
205.764
206.658
207.536
208.396
209.239
210.064
210.872
211.661
212.431
213.18
213.908
214.614
215.297
215.956
216.59
217.197
217.776
218.328
218.85
219.341
219.802
220.23
220.626
220.988
221.315
221.608
221.864
222.085
222.268
222.414
222.522
222.592
222.621
222.612
222.567
222.48
222.353
222.184
221.974
197.173
198.282
199.353
200.39
201.398
202.38
203.339
204.277
205.196
206.097
206.981
207.848
208.699
209.533
210.35
211.15
211.932
212.696
213.44
214.164
214.867
215.548
216.206
216.839
217.447
218.029
218.583
219.109
219.606
220.072
220.508
220.911
221.282
221.619
221.923
222.191
222.424
222.621
222.781
222.904
222.989
223.037
223.042
223.015
222.947
222.839
222.691
222.5
222.269
221.995
199.758
200.782
201.777
202.747
203.694
204.62
205.528
206.417
207.291
208.148
208.989
209.814
210.623
211.415
212.191
212.948
213.687
214.407
215.107
215.785
216.442
217.075
217.683
218.267
218.824
219.353
219.855
220.327
220.77
221.181
221.561
221.908
222.222
222.502
222.747
222.957
223.132
223.27
223.371
223.435
223.458
223.447
223.398
223.309
223.181
223.011
222.801
222.55
222.26
221.935
202.142
203.1
204.035
204.95
205.846
206.725
207.588
208.435
209.266
210.083
210.883
211.668
212.437
213.188
213.922
214.638
215.334
216.01
216.664
217.297
217.906
218.49
219.05
219.583
220.089
220.567
221.016
221.435
221.824
222.18
222.505
222.796
223.054
223.277
223.466
223.619
223.736
223.816
223.859
223.861
223.832
223.763
223.654
223.506
223.317
223.088
222.818
222.515
222.173
221.787
204.363
205.267
206.152
207.02
207.873
208.71
209.532
210.34
211.132
211.909
212.671
213.416
214.145
214.855
215.548
216.221
216.874
217.505
218.115
218.701
219.263
219.799
220.31
220.793
221.248
221.675
222.071
222.437
222.772
223.075
223.345
223.581
223.784
223.951
224.084
224.18
224.24
224.262
224.249
224.199
224.111
223.984
223.817
223.61
223.363
223.078
222.76
222.4
221.998
221.554
206.446
207.304
208.147
208.974
209.787
210.585
211.369
212.139
212.893
213.633
214.356
215.062
215.75
216.421
217.071
217.702
218.311
218.898
219.462
220.002
220.516
221.004
221.466
221.899
222.304
222.679
223.024
223.337
223.619
223.868
224.085
224.267
224.415
224.528
224.605
224.646
224.648
224.619
224.551
224.445
224.3
224.115
223.891
223.627
223.33
222.994
222.618
222.201
221.743
221.241
208.409
209.227
210.03
210.82
211.596
212.358
213.105
213.838
214.555
215.257
215.941
216.608
217.257
217.886
218.495
219.083
219.648
220.19
220.709
221.202
221.669
222.109
222.521
222.905
223.26
223.584
223.878
224.14
224.369
224.566
224.729
224.858
224.952
225.011
225.032
225.02
224.973
224.888
224.764
224.602
224.401
224.16
223.883
223.572
223.221
222.83
222.398
221.925
221.411
220.854
210.264
211.045
211.812
212.566
213.307
214.033
214.745
215.441
216.121
216.785
217.431
218.059
218.667
219.255
219.822
220.366
220.888
221.385
221.858
222.305
222.724
223.117
223.481
223.815
224.12
224.394
224.637
224.848
225.026
225.171
225.282
225.359
225.4
225.404
225.377
225.312
225.211
225.071
224.893
224.676
224.42
224.132
223.806
223.441
223.035
222.589
222.103
221.576
221.008
220.396
212.765
213.498
214.218
214.924
215.615
216.291
216.951
217.594
218.22
218.828
219.416
219.983
220.53
221.055
221.556
222.034
222.486
222.913
223.314
223.687
224.031
224.347
224.633
224.889
225.114
225.307
225.467
225.595
225.689
225.748
225.772
225.762
225.719
225.639
225.521
225.367
225.174
224.942
224.674
224.373
224.034
223.654
223.235
222.777
222.278
221.739
221.159
220.538
219.874
214.393
215.093
215.779
216.45
217.107
217.747
218.371
218.977
219.565
220.133
220.682
221.209
221.714
222.196
222.655
223.088
223.496
223.878
224.232
224.559
224.857
225.125
225.363
225.57
225.746
225.89
226.001
226.079
226.123
226.13
226.107
226.048
225.953
225.821
225.652
225.445
225.199
224.921
224.608
224.255
223.863
223.432
222.961
222.451
221.9
221.31
220.679
220.006
219.291
215.934
216.6
217.253
217.89
218.511
219.116
219.703
220.272
220.822
221.351
221.86
222.346
222.81
223.25
223.665
224.055
224.419
224.755
225.064
225.345
225.596
225.818
226.008
226.168
226.296
226.391
226.453
226.481
226.475
226.438
226.365
226.256
226.11
225.928
225.707
225.45
225.162
224.836
224.471
224.068
223.625
223.143
222.622
222.062
221.461
220.82
220.139
219.417
218.652
218.023
218.642
219.245
219.831
220.4
220.951
221.482
221.993
222.484
222.952
223.398
223.82
224.218
224.591
224.937
225.257
225.549
225.813
226.048
226.254
226.429
226.573
226.686
226.766
226.814
226.826
226.809
226.757
226.671
226.548
226.39
226.195
225.962
225.696
225.397
225.059
224.683
224.269
223.816
223.324
222.793
222.223
221.614
220.964
220.275
219.545
218.775
217.961
219.364
219.95
220.518
221.069
221.602
222.116
222.61
223.082
223.534
223.962
224.367
224.748
225.104
225.434
225.738
226.014
226.263
226.482
226.672
226.833
226.962
227.061
227.127
227.161
227.16
227.131
227.066
226.967
226.832
226.662
226.455
226.211
225.936
225.626
225.278
224.892
224.468
224.005
223.505
222.965
222.386
221.768
221.111
220.414
219.677
218.901
218.083
217.223
221.177
221.711
222.227
222.724
223.201
223.657
224.092
224.504
224.893
225.257
225.597
225.912
226.2
226.461
226.694
226.899
227.075
227.221
227.337
227.422
227.475
227.495
227.484
227.441
227.365
227.254
227.108
226.926
226.708
226.455
226.171
225.851
225.493
225.098
224.665
224.194
223.685
223.137
222.551
221.926
221.261
220.558
219.815
219.032
218.209
217.346
216.441
222.328
222.827
223.308
223.769
224.209
224.627
225.023
225.397
225.746
226.071
226.37
226.644
226.89
227.109
227.3
227.463
227.595
227.698
227.77
227.811
227.818
227.797
227.742
227.654
227.532
227.376
227.184
226.955
226.695
226.402
226.073
225.706
225.302
224.861
224.382
223.866
223.311
222.718
222.086
221.415
220.706
219.957
219.17
218.342
217.476
216.569
215.62
223.869
224.314
224.738
225.141
225.523
225.881
226.216
226.526
226.811
227.07
227.303
227.509
227.687
227.836
227.956
228.046
228.106
228.135
228.131
228.099
228.034
227.935
227.803
227.637
227.435
227.198
226.93
226.629
226.291
225.916
225.505
225.057
224.571
224.048
223.487
222.887
222.25
221.574
220.86
220.106
219.314
218.483
217.613
216.704
215.754
214.763
224.837
225.247
225.636
226.002
226.346
226.667
226.963
227.235
227.481
227.701
227.893
228.059
228.196
228.304
228.382
228.431
228.448
228.436
228.393
228.317
228.209
228.067
227.892
227.681
227.436
227.162
226.853
226.507
226.125
225.707
225.252
224.76
224.231
223.665
223.06
222.418
221.738
221.019
220.262
219.466
218.632
217.759
216.847
215.896
214.907
213.875
225.736
226.111
226.464
226.794
227.101
227.384
227.643
227.876
228.084
228.264
228.418
228.543
228.64
228.708
228.746
228.752
228.731
228.678
228.593
228.476
228.325
228.141
227.922
227.672
227.39
227.074
226.721
226.333
225.909
225.448
224.951
224.417
223.845
223.237
222.59
221.906
221.184
220.424
219.625
218.788
217.913
217
216.048
215.058
214.029
212.959
226.568
226.907
227.225
227.519
227.79
228.036
228.257
228.453
228.622
228.764
228.879
228.965
229.022
229.05
229.047
229.017
228.955
228.862
228.736
228.578
228.386
228.16
227.904
227.615
227.292
226.934
226.54
226.11
225.645
225.143
224.604
224.029
223.417
222.767
222.08
221.355
220.593
219.792
218.954
218.077
217.163
216.21
215.22
214.192
213.126
212.019
227.334
227.639
227.921
228.18
228.415
228.624
228.809
228.967
229.099
229.203
229.28
229.327
229.345
229.335
229.296
229.226
229.124
228.991
228.825
228.626
228.394
228.133
227.838
227.509
227.145
226.747
226.312
225.843
225.337
224.795
224.216
223.601
222.949
222.259
221.533
220.768
219.967
219.127
218.25
217.335
216.383
215.393
214.366
213.302
212.2
211.058
228.038
228.309
228.556
228.78
228.979
229.153
229.301
229.423
229.517
229.585
229.624
229.632
229.615
229.568
229.49
229.381
229.241
229.068
228.863
228.625
228.359
228.059
227.725
227.357
226.953
226.515
226.042
225.533
224.988
224.407
223.789
223.135
222.444
221.716
220.951
220.149
219.309
218.432
217.518
216.566
215.578
214.552
213.49
212.39
211.254
210.079
228.683
228.919
229.132
229.321
229.485
229.624
229.736
229.822
229.88
229.911
229.912
229.887
229.832
229.747
229.632
229.485
229.307
229.096
228.854
228.583
228.278
227.94
227.567
227.161
226.719
226.243
225.731
225.184
224.601
223.982
223.327
222.635
221.907
221.141
220.339
219.5
218.624
217.71
216.76
215.773
214.75
213.69
212.594
211.461
210.292
209.086
229.473
229.652
229.807
229.936
230.04
230.118
230.168
230.19
230.185
230.153
230.091
230
229.878
229.726
229.542
229.326
229.08
228.805
228.496
228.154
227.778
227.368
226.924
226.446
225.932
225.384
224.799
224.18
223.524
222.832
222.103
221.338
220.537
219.699
218.824
217.913
216.965
215.98
214.959
213.902
212.81
211.681
210.517
209.318
208.081
229.972
230.118
230.239
230.335
230.405
230.447
230.462
230.451
230.412
230.344
230.247
230.12
229.962
229.774
229.553
229.305
229.025
228.713
228.368
227.989
227.577
227.131
226.651
226.136
225.586
225.002
224.381
223.726
223.034
222.306
221.543
220.743
219.906
219.034
218.125
217.179
216.198
215.18
214.127
213.038
211.914
210.755
209.561
208.333
207.068
230.42
230.533
230.621
230.683
230.719
230.727
230.71
230.666
230.592
230.49
230.358
230.195
230.003
229.778
229.527
229.244
228.929
228.581
228.2
227.787
227.339
226.858
226.342
225.792
225.208
224.588
223.933
223.242
222.516
221.754
220.956
220.122
219.252
218.346
217.404
216.426
215.412
214.363
213.279
212.16
211.006
209.818
208.596
207.341
206.05
230.899
230.955
230.984
230.986
230.964
230.914
230.835
230.728
230.591
230.425
230.229
230.002
229.748
229.462
229.144
228.795
228.412
227.997
227.549
227.067
226.552
226.002
225.418
224.799
224.145
223.456
222.732
221.972
221.177
220.346
219.479
218.577
217.638
216.665
215.656
214.611
213.532
212.418
211.271
210.089
208.874
207.626
206.345
205.03
231.219
231.242
231.239
231.212
231.157
231.073
230.962
230.822
230.652
230.452
230.223
229.967
229.679
229.36
229.008
228.625
228.209
227.761
227.279
226.764
226.215
225.632
225.015
224.363
223.676
222.954
222.197
221.405
220.577
219.714
218.816
217.883
216.914
215.91
214.871
213.797
212.69
211.548
210.373
209.164
207.924
206.651
205.348
204.012
231.494
231.487
231.454
231.395
231.308
231.193
231.049
230.876
230.674
230.443
230.184
229.895
229.575
229.223
228.839
228.423
227.975
227.493
226.979
226.431
225.85
225.235
224.585
223.901
223.182
222.429
221.64
220.817
219.958
219.065
218.136
217.172
216.174
215.141
214.074
212.972
211.837
210.669
209.469
208.236
206.972
205.677
204.352
202.997
231.729
231.692
231.629
231.538
231.42
231.273
231.098
230.893
230.661
230.401
230.111
229.789
229.437
229.053
228.638
228.19
227.71
227.197
226.651
226.072
225.459
224.812
224.132
223.416
222.667
221.883
221.064
220.21
219.322
218.399
217.441
216.449
215.422
214.361
213.267
212.139
210.979
209.786
208.561
207.306
206.02
204.705
203.362
201.991
231.858
231.764
231.643
231.495
231.318
231.111
230.878
230.617
230.326
230.004
229.652
229.269
228.854
228.408
227.929
227.418
226.875
226.298
225.688
225.045
224.368
223.656
222.911
222.132
221.318
220.47
219.587
218.67
217.718
216.733
215.713
214.66
213.573
212.453
211.3
210.116
208.899
207.653
206.377
205.072
203.739
202.381
200.997
231.987
231.864
231.714
231.535
231.327
231.094
230.832
230.541
230.219
229.867
229.485
229.072
228.627
228.151
227.642
227.101
226.528
225.921
225.282
224.609
223.902
223.162
222.387
221.579
220.737
219.86
218.949
218.005
217.026
216.014
214.968
213.889
212.777
211.633
210.457
209.25
208.013
206.746
205.452
204.13
202.783
201.412
200.02
232.082
231.93
231.75
231.542
231.308
231.046
230.755
230.434
230.084
229.703
229.291
228.848
228.374
227.869
227.331
226.761
226.158
225.523
224.855
224.153
223.418
222.649
221.847
221.011
220.141
219.237
218.3
217.329
216.324
215.287
214.216
213.113
211.978
210.811
209.613
208.386
207.129
205.845
204.534
203.198
201.84
200.462
199.066
231.964
231.755
231.521
231.26
230.969
230.649
230.3
229.921
229.511
229.071
228.6
228.098
227.564
226.998
226.4
225.769
225.105
224.409
223.68
222.917
222.121
221.292
220.429
219.533
218.603