/*--------------------------------*- C++ -*----------------------------------*\
| =========                 |                                                 |
| \\      /  F ield         | OpenFOAM: The Open Source CFD Toolbox           |
|  \\    /   O peration     | Version:  v1706                                 |
|   \\  /    A nd           | Web:      www.OpenFOAM.com                      |
|    \\/     M anipulation  |                                                 |
\*---------------------------------------------------------------------------*/
FoamFile
{
    version     2.0;
    format      ascii;
    class       volVectorField;
    location    "4e-06";
    object      U;
}
// * * * * * * * * * * * * * * * * * * * * * * * * * * * * * * * * * * * * * //

dimensions      [0 1 -1 0 0 0 0];


internalField   nonuniform List<vector> 
30038
(
(2764.5 -3.7905e-11 1.12341e-14)
(2764.5 -3.77922e-11 -5.40038e-15)
(2764.5 -3.34564e-11 1.25982e-14)
(2764.5 -3.75684e-11 2.79353e-15)
(2764.5 -3.92763e-11 5.25254e-15)
(2764.5 -3.82016e-11 1.8375e-16)
(2764.5 -3.78444e-11 7.77998e-15)
(2764.5 -4.17128e-11 1.06947e-14)
(2764.5 -4.40672e-11 8.70334e-15)
(2764.5 -4.51232e-11 2.77174e-15)
(2764.5 -4.56564e-11 8.4679e-15)
(2764.5 -4.68713e-11 8.51513e-15)
(2764.5 -5.15303e-11 5.00782e-15)
(2764.5 -5.27811e-11 2.98743e-15)
(2764.5 -5.23928e-11 3.353e-15)
(2764.5 -5.03087e-11 8.38914e-15)
(2764.5 -4.69378e-11 8.13799e-15)
(2764.5 -4.64675e-11 3.53858e-15)
(2764.5 -4.63757e-11 1.54937e-15)
(2764.5 -4.76589e-11 8.87225e-15)
(2764.5 -4.64283e-11 8.30628e-15)
(2764.5 -4.94788e-11 9.34171e-15)
(2764.5 -5.279e-11 -3.43489e-15)
(2764.5 -5.58629e-11 7.24995e-15)
(2764.5 -5.82015e-11 8.66005e-15)
(2764.5 -5.86114e-11 4.16914e-15)
(2764.5 -5.85927e-11 1.39868e-15)
(2764.5 -5.89219e-11 5.24305e-15)
(2764.5 -6.2807e-11 9.14601e-15)
(2764.5 -6.60748e-11 9.07394e-15)
(2764.5 -6.83419e-11 4.35683e-15)
(2764.5 -7.00497e-11 1.14657e-14)
(2764.5 -6.83714e-11 8.06994e-15)
(2764.5 -7.43353e-11 5.64034e-15)
(2764.5 -7.11673e-11 8.78329e-15)
(2764.5 -7.50681e-11 1.18379e-14)
(2764.5 -7.46349e-11 6.59448e-16)
(2764.5 -7.72291e-11 3.91194e-15)
(2764.5 -1.14333e-10 2.12037e-14)
(2764.5 -1.16092e-10 1.6178e-14)
(2764.5 -1.18299e-10 2.28586e-14)
(2764.5 -1.10938e-10 1.4793e-14)
(2764.5 -1.17957e-10 2.35409e-14)
(2764.5 -1.21414e-10 2.21286e-14)
(2764.5 -1.21061e-10 2.47226e-14)
(2764.5 -1.18311e-10 2.45921e-14)
(2764.5 -1.19187e-10 1.83001e-14)
(2764.5 -1.20748e-10 2.00647e-14)
(2764.5 -1.26671e-10 2.52101e-14)
(2764.5 -1.22181e-10 1.34341e-14)
(2764.5 -1.27504e-10 1.7641e-14)
(2764.5 -1.33047e-10 1.86956e-14)
(2764.5 -1.4121e-10 1.67764e-14)
(2764.5 -1.46855e-10 1.99736e-14)
(2764.5 -1.49697e-10 2.02904e-14)
(2764.5 -1.50086e-10 2.12656e-14)
(2764.5 -1.49368e-10 1.50108e-14)
(2764.5 -1.53867e-10 1.83737e-14)
(2764.5 -1.54452e-10 1.63405e-14)
(2764.5 -1.49637e-10 2.01451e-14)
(2764.5 -1.45829e-10 1.95657e-14)
(2764.5 -1.46795e-10 1.90111e-14)
(2764.5 -1.52298e-10 1.77296e-14)
(2764.5 -1.58367e-10 1.92531e-14)
(2764.5 -1.64831e-10 1.9158e-14)
(2764.5 -1.67806e-10 1.74057e-14)
(2764.5 -1.68455e-10 1.74221e-14)
(2764.5 -1.68704e-10 2.41046e-14)
(2764.5 -1.73006e-10 1.38849e-14)
(2764.5 -1.7445e-10 2.31039e-14)
(2764.5 -1.79031e-10 2.80097e-14)
(2764.5 -1.81603e-10 2.12631e-14)
(2764.5 -1.96241e-10 2.40956e-14)
(2764.5 -2.0739e-10 1.8696e-14)
(2764.5 -2.12032e-10 1.87792e-14)
(2764.5 -2.14847e-10 2.10475e-14)
(2764.5 -1.84888e-10 3.42137e-14)
(2764.5 -1.90635e-10 3.29385e-14)
(2764.5 -1.96788e-10 3.46442e-14)
(2764.5 -1.9321e-10 3.12297e-14)
(2764.5 -1.94149e-10 3.25175e-14)
(2764.5 -1.99191e-10 3.48636e-14)
(2764.5 -2.00359e-10 3.58613e-14)
(2764.5 -1.99644e-10 2.84435e-14)
(2764.5 -1.9913e-10 2.82259e-14)
(2764.5 -1.97554e-10 3.19611e-14)
(2764.5 -2.03704e-10 2.70862e-14)
(2764.5 -2.02327e-10 2.78542e-14)
(2764.5 -2.07665e-10 3.12352e-14)
(2764.5 -2.12185e-10 3.4011e-14)
(2764.5 -2.15794e-10 3.12565e-14)
(2764.5 -2.23516e-10 3.56751e-14)
(2764.5 -2.32658e-10 3.44305e-14)
(2764.5 -2.37921e-10 3.38037e-14)
(2764.5 -2.37542e-10 3.08502e-14)
(2764.5 -2.41506e-10 3.24432e-14)
(2764.5 -2.46371e-10 2.86588e-14)
(2764.5 -2.50801e-10 3.23935e-14)
(2764.5 -2.52877e-10 2.82938e-14)
(2764.5 -2.5432e-10 2.65151e-14)
(2764.5 -2.57152e-10 3.44921e-14)
(2764.5 -2.61876e-10 3.48126e-14)
(2764.5 -2.63215e-10 3.06817e-14)
(2764.5 -2.62147e-10 2.60579e-14)
(2764.5 -2.62593e-10 2.73327e-14)
(2764.5 -2.66463e-10 3.32372e-14)
(2764.5 -2.74481e-10 3.06505e-14)
(2764.5 -2.83293e-10 3.34092e-14)
(2764.5 -2.93725e-10 3.138e-14)
(2764.5 -2.93484e-10 3.27368e-14)
(2764.5 -3.00455e-10 3.4049e-14)
(2764.5 -2.95835e-10 3.70356e-14)
(2764.5 -3.1425e-10 3.05987e-14)
(2764.5 -3.31001e-10 3.19693e-14)
(2764.5 -2.47072e-10 4.52886e-14)
(2764.5 -2.54148e-10 4.33163e-14)
(2764.5 -2.60344e-10 4.66473e-14)
(2764.5 -2.65788e-10 4.16956e-14)
(2764.5 -2.68661e-10 4.67096e-14)
(2764.5 -2.73858e-10 4.3658e-14)
(2764.5 -2.79501e-10 4.24743e-14)
(2764.5 -2.79569e-10 3.93173e-14)
(2764.5 -2.83093e-10 4.35776e-14)
(2764.5 -2.8192e-10 3.99184e-14)
(2764.5 -2.83474e-10 4.42592e-14)
(2764.5 -2.84244e-10 4.40721e-14)
(2764.5 -2.85485e-10 4.90442e-14)
(2764.5 -2.89943e-10 4.21142e-14)
(2764.5 -2.89909e-10 3.9676e-14)
(2764.5 -2.94899e-10 4.46184e-14)
(2764.5 -3.03363e-10 3.84908e-14)
(2764.5 -3.12928e-10 4.02558e-14)
(2764.5 -3.18544e-10 4.43602e-14)
(2764.5 -3.24559e-10 4.40237e-14)
(2764.5 -3.31845e-10 4.23155e-14)
(2764.5 -3.41253e-10 4.0154e-14)
(2764.5 -3.46894e-10 4.39555e-14)
(2764.5 -3.49958e-10 4.85704e-14)
(2764.5 -3.49767e-10 4.47293e-14)
(2764.5 -3.52083e-10 4.49766e-14)
(2764.5 -3.60243e-10 4.39943e-14)
(2764.5 -3.66866e-10 4.21858e-14)
(2764.5 -3.70259e-10 4.23767e-14)
(2764.5 -3.73891e-10 4.85882e-14)
(2764.5 -3.76942e-10 4.58458e-14)
(2764.5 -3.78319e-10 4.74663e-14)
(2764.5 -3.84149e-10 4.58595e-14)
(2764.5 -3.89729e-10 4.43654e-14)
(2764.5 -3.97682e-10 4.55264e-14)
(2764.5 -4.11129e-10 4.99638e-14)
(2764.5 -4.26094e-10 4.82494e-14)
(2764.5 -4.35676e-10 4.90351e-14)
(2764.5 -3.07325e-10 5.51575e-14)
(2764.5 -3.11029e-10 5.61334e-14)
(2764.5 -3.1558e-10 5.94043e-14)
(2764.5 -3.20712e-10 5.80235e-14)
(2764.5 -3.278e-10 5.58672e-14)
(2764.5 -3.37617e-10 5.41362e-14)
(2764.5 -3.48702e-10 5.85702e-14)
(2764.5 -3.52312e-10 5.83302e-14)
(2764.5 -3.54281e-10 5.97575e-14)
(2764.5 -3.57517e-10 5.86725e-14)
(2764.5 -3.57283e-10 5.75351e-14)
(2764.5 -3.55424e-10 5.40024e-14)
(2764.5 -3.53969e-10 5.39406e-14)
(2764.5 -3.58e-10 5.27181e-14)
(2764.5 -3.62658e-10 5.31736e-14)
(2764.5 -3.66193e-10 5.74157e-14)
(2764.5 -3.72458e-10 6.12014e-14)
(2764.5 -3.83683e-10 5.76601e-14)
(2764.5 -3.90931e-10 5.22191e-14)
(2764.5 -3.96072e-10 5.96211e-14)
(2764.5 -4.01793e-10 5.68311e-14)
(2764.5 -4.10895e-10 4.93171e-14)
(2764.5 -4.1774e-10 5.93694e-14)
(2764.5 -4.25278e-10 5.74664e-14)
(2764.5 -4.36251e-10 5.89932e-14)
(2764.5 -4.43001e-10 6.00774e-14)
(2764.5 -4.48476e-10 6.27611e-14)
(2764.5 -4.54482e-10 5.60961e-14)
(2764.5 -4.57728e-10 5.07982e-14)
(2764.5 -4.58625e-10 4.93932e-14)
(2764.5 -4.65371e-10 5.13994e-14)
(2764.5 -4.77929e-10 6.13326e-14)
(2764.5 -4.98387e-10 6.04423e-14)
(2764.5 -5.07981e-10 5.85685e-14)
(2764.5 -5.14237e-10 5.78918e-14)
(2764.5 -4.95044e-10 5.83885e-14)
(2764.5 -4.88033e-10 6.15815e-14)
(2764.5 -5.12868e-10 6.21936e-14)
(2764.5 -3.67176e-10 7.1519e-14)
(2764.5 -3.68072e-10 7.36765e-14)
(2764.5 -3.73014e-10 7.05135e-14)
(2764.5 -3.78295e-10 6.17764e-14)
(2764.5 -3.85841e-10 6.24232e-14)
(2764.5 -3.92685e-10 6.67582e-14)
(2764.5 -4.03611e-10 6.23472e-14)
(2764.5 -4.13148e-10 6.94647e-14)
(2764.5 -4.16153e-10 7.50205e-14)
(2764.5 -4.20313e-10 7.07235e-14)
(2764.5 -4.26804e-10 7.06992e-14)
(2764.5 -4.30742e-10 6.9146e-14)
(2764.5 -4.32955e-10 6.88106e-14)
(2764.5 -4.33728e-10 7.06621e-14)
(2764.5 -4.38123e-10 6.97775e-14)
(2764.5 -4.42849e-10 6.79436e-14)
(2764.5 -4.44022e-10 7.33231e-14)
(2764.5 -4.50846e-10 7.02666e-14)
(2764.5 -4.61317e-10 6.35302e-14)
(2764.5 -4.73379e-10 6.97132e-14)
(2764.5 -4.81059e-10 7.14937e-14)
(2764.5 -4.90709e-10 7.35263e-14)
(2764.5 -4.9927e-10 7.32923e-14)
(2764.5 -5.04391e-10 6.8069e-14)
(2764.5 -5.08599e-10 6.60475e-14)
(2764.5 -5.10117e-10 6.8001e-14)
(2764.5 -5.14898e-10 7.64539e-14)
(2764.5 -5.27529e-10 6.76627e-14)
(2764.5 -5.47196e-10 7.1802e-14)
(2764.5 -5.65323e-10 7.48148e-14)
(2764.5 -5.77399e-10 6.90739e-14)
(2764.5 -5.76731e-10 7.12766e-14)
(2764.5 -5.67089e-10 6.97432e-14)
(2764.5 -5.57724e-10 7.4512e-14)
(2764.5 -5.7184e-10 7.59401e-14)
(2764.5 -5.90837e-10 6.7406e-14)
(2764.5 -6.28359e-10 6.90298e-14)
(2764.5 -6.34186e-10 7.28592e-14)
(2764.5 -4.29446e-10 8.04186e-14)
(2764.5 -4.30683e-10 7.45144e-14)
(2764.5 -4.33156e-10 7.89229e-14)
(2764.5 -4.38174e-10 8.47328e-14)
(2764.5 -4.47354e-10 8.14213e-14)
(2764.5 -4.53447e-10 7.83834e-14)
(2764.5 -4.61864e-10 7.98002e-14)
(2764.5 -4.71625e-10 8.64392e-14)
(2764.5 -4.79057e-10 7.56163e-14)
(2764.5 -4.84842e-10 8.05638e-14)
(2764.5 -4.94227e-10 8.47584e-14)
(2764.5 -5.012e-10 8.18061e-14)
(2764.5 -5.03743e-10 8.19765e-14)
(2764.5 -5.04531e-10 8.07755e-14)
(2764.5 -5.0581e-10 7.71544e-14)
(2764.5 -5.10946e-10 8.14973e-14)
(2764.5 -5.1887e-10 7.90059e-14)
(2764.5 -5.28893e-10 8.43511e-14)
(2764.5 -5.39481e-10 8.11865e-14)
(2764.5 -5.52495e-10 8.40552e-14)
(2764.5 -5.56039e-10 8.47365e-14)
(2764.5 -5.5804e-10 8.18654e-14)
(2764.5 -5.59785e-10 8.02125e-14)
(2764.5 -5.65483e-10 8.35952e-14)
(2764.5 -5.80136e-10 8.20559e-14)
(2764.5 -5.97865e-10 8.28195e-14)
(2764.5 -6.15892e-10 8.91683e-14)
(2764.5 -6.28702e-10 7.97216e-14)
(2764.5 -6.31274e-10 7.72182e-14)
(2764.5 -6.2552e-10 8.15658e-14)
(2764.5 -6.20213e-10 8.22997e-14)
(2764.5 -6.27014e-10 8.03235e-14)
(2764.5 -6.55461e-10 8.17863e-14)
(2764.5 -6.94147e-10 8.61294e-14)
(2764.5 -7.08587e-10 9.03341e-14)
(2764.5 -6.9243e-10 8.66938e-14)
(2764.5 -6.31315e-10 8.37079e-14)
(2764.5 -6.14364e-10 8.60725e-14)
(2764.5 -4.90793e-10 9.57597e-14)
(2764.5 -4.94691e-10 9.24384e-14)
(2764.5 -4.96174e-10 9.25338e-14)
(2764.5 -4.97957e-10 9.75255e-14)
(2764.5 -5.06352e-10 9.74372e-14)
(2764.5 -5.15129e-10 9.12026e-14)
(2764.5 -5.25696e-10 9.17035e-14)
(2764.5 -5.37128e-10 9.40475e-14)
(2764.5 -5.4529e-10 9.61099e-14)
(2764.5 -5.49797e-10 9.63139e-14)
(2764.5 -5.58803e-10 9.02539e-14)
(2764.5 -5.68639e-10 9.43853e-14)
(2764.5 -5.74061e-10 9.08221e-14)
(2764.5 -5.77945e-10 9.46734e-14)
(2764.5 -5.87049e-10 9.17612e-14)
(2764.5 -5.95356e-10 9.5999e-14)
(2764.5 -6.01557e-10 9.90048e-14)
(2764.5 -6.04481e-10 9.75035e-14)
(2764.5 -6.03849e-10 9.40998e-14)
(2764.5 -6.07182e-10 9.91984e-14)
(2764.5 -6.14018e-10 9.15703e-14)
(2764.5 -6.25383e-10 9.70075e-14)
(2764.5 -6.44032e-10 9.16795e-14)
(2764.5 -6.62434e-10 9.19265e-14)
(2764.5 -6.7424e-10 8.93231e-14)
(2764.5 -6.75239e-10 9.61086e-14)
(2764.5 -6.67152e-10 9.39164e-14)
(2764.5 -6.66025e-10 9.08917e-14)
(2764.5 -6.77901e-10 9.71775e-14)
(2764.5 -7.11146e-10 9.97145e-14)
(2764.5 -7.52799e-10 1.02945e-13)
(2764.5 -7.7019e-10 1.00713e-13)
(2764.5 -7.48961e-10 1.01846e-13)
(2764.5 -6.87101e-10 9.55943e-14)
(2764.5 -6.43036e-10 9.66471e-14)
(2764.5 -7.01524e-10 1.02674e-13)
(2764.5 -7.58164e-10 9.95483e-14)
(2764.5 -8.65231e-10 9.01769e-14)
(2764.5 -5.44573e-10 1.08148e-13)
(2764.5 -5.51187e-10 1.05465e-13)
(2764.5 -5.55303e-10 1.12295e-13)
(2764.5 -5.59303e-10 1.09987e-13)
(2764.5 -5.59976e-10 1.08934e-13)
(2764.5 -5.62977e-10 1.07892e-13)
(2764.5 -5.68368e-10 1.14042e-13)
(2764.5 -5.76939e-10 1.09331e-13)
(2764.5 -5.87302e-10 1.08424e-13)
(2764.5 -5.96176e-10 1.08758e-13)
(2764.5 -6.05357e-10 9.9039e-14)
(2764.5 -6.20386e-10 1.09535e-13)
(2764.5 -6.36206e-10 9.98576e-14)
(2764.5 -6.48445e-10 1.0666e-13)
(2764.5 -6.52699e-10 1.10306e-13)
(2764.5 -6.56509e-10 1.08994e-13)
(2764.5 -6.60522e-10 1.11059e-13)
(2764.5 -6.61955e-10 1.04929e-13)
(2764.5 -6.64596e-10 1.04737e-13)
(2764.5 -6.76711e-10 1.06062e-13)
(2764.5 -6.90841e-10 1.07324e-13)
(2764.5 -7.05135e-10 1.06873e-13)
(2764.5 -7.14069e-10 1.05441e-13)
(2764.5 -7.11373e-10 1.02248e-13)
(2764.5 -7.05622e-10 1.05782e-13)
(2764.5 -7.04738e-10 1.07272e-13)
(2764.5 -7.19336e-10 1.10394e-13)
(2764.5 -7.53644e-10 1.06164e-13)
(2764.5 -7.92855e-10 1.08213e-13)
(2764.5 -8.10686e-10 1.08626e-13)
(2764.5 -7.91081e-10 1.11262e-13)
(2764.5 -7.35004e-10 1.10731e-13)
(2764.5 -6.88618e-10 1.10176e-13)
(2764.5 -7.27776e-10 1.09063e-13)
(2764.5 -7.83826e-10 1.12821e-13)
(2764.5 -9.01028e-10 1.14362e-13)
(2764.5 -9.08273e-10 1.11248e-13)
(2764.5 -6.15451e-10 1.11462e-13)
(2764.5 4.83522e-10 1.12681e-13)
(2764.5 -6.01768e-10 1.22793e-13)
(2764.5 -6.09056e-10 1.17054e-13)
(2764.5 -6.13627e-10 1.1573e-13)
(2764.5 -6.14291e-10 1.23596e-13)
(2764.5 -6.13645e-10 1.23922e-13)
(2764.5 -6.15569e-10 1.23981e-13)
(2764.5 -6.21515e-10 1.25706e-13)
(2764.5 -6.31457e-10 1.17851e-13)
(2764.5 -6.45133e-10 1.17328e-13)
(2764.5 -6.57942e-10 1.1563e-13)
(2764.5 -6.68746e-10 1.21047e-13)
(2764.5 -6.79628e-10 1.1648e-13)
(2764.5 -6.87523e-10 1.10925e-13)
(2764.5 -6.94383e-10 1.22161e-13)
(2764.5 -6.99765e-10 1.19968e-13)
(2764.5 -7.07513e-10 1.20709e-13)
(2764.5 -7.19905e-10 1.12975e-13)
(2764.5 -7.35854e-10 1.19757e-13)
(2764.5 -7.49704e-10 1.1859e-13)
(2764.5 -7.554e-10 1.20621e-13)
(2764.5 -7.51954e-10 1.17581e-13)
(2764.5 -7.41017e-10 1.16386e-13)
(2764.5 -7.38465e-10 1.1517e-13)
(2764.5 -7.52188e-10 1.17678e-13)
(2764.5 -7.89982e-10 1.21944e-13)
(2764.5 -8.28115e-10 1.20178e-13)
(2764.5 -8.42526e-10 1.23223e-13)
(2764.5 -8.23669e-10 1.18769e-13)
(2764.5 -7.68187e-10 1.15806e-13)
(2764.5 -7.18772e-10 1.21097e-13)
(2764.5 -7.51176e-10 1.21613e-13)
(2764.5 -8.02739e-10 1.21761e-13)
(2764.5 -9.32812e-10 1.22826e-13)
(2764.5 -9.49275e-10 1.23713e-13)
(2764.5 -7.16861e-10 1.25772e-13)
(2764.5 2.83786e-10 1.26279e-13)
(2764.5 1.27702e-09 1.26049e-13)
(2764.5 2.74672e-09 1.2988e-13)
(2764.5 4.64893e-09 1.30055e-13)
(2764.5 -6.52505e-10 1.3486e-13)
(2764.5 -6.5667e-10 1.38848e-13)
(2764.5 -6.61184e-10 1.32814e-13)
(2764.5 -6.63596e-10 1.35563e-13)
(2764.5 -6.7302e-10 1.2902e-13)
(2764.5 -6.81042e-10 1.28992e-13)
(2764.5 -6.87553e-10 1.34573e-13)
(2764.5 -6.94798e-10 1.36214e-13)
(2764.5 -7.04758e-10 1.29286e-13)
(2764.5 -7.12019e-10 1.31306e-13)
(2764.5 -7.15171e-10 1.3015e-13)
(2764.5 -7.19829e-10 1.31996e-13)
(2764.5 -7.29994e-10 1.30005e-13)
(2764.5 -7.46116e-10 1.23825e-13)
(2764.5 -7.64969e-10 1.32915e-13)
(2764.5 -7.82359e-10 1.37365e-13)
(2764.5 -7.93163e-10 1.39313e-13)
(2764.5 -7.91941e-10 1.36684e-13)
(2764.5 -7.8061e-10 1.29116e-13)
(2764.5 -7.73598e-10 1.29413e-13)
(2764.5 -7.8512e-10 1.3283e-13)
(2764.5 -8.2194e-10 1.35085e-13)
(2764.5 -8.63398e-10 1.3257e-13)
(2764.5 -8.77445e-10 1.32504e-13)
(2764.5 -8.5246e-10 1.32362e-13)
(2764.5 -7.88619e-10 1.36389e-13)
(2764.5 -7.32519e-10 1.28143e-13)
(2764.5 -7.8211e-10 1.28041e-13)
(2764.5 -8.44635e-10 1.31884e-13)
(2764.5 -9.68206e-10 1.36469e-13)
(2764.5 -9.90328e-10 1.36538e-13)
(2764.5 -7.97357e-10 1.34849e-13)
(2764.5 1.44695e-10 1.3751e-13)
(2764.5 1.12907e-09 1.39595e-13)
(2764.5 2.41137e-09 1.41082e-13)
(2764.5 3.97972e-09 1.39698e-13)
(2764.5 6.70824e-09 1.4194e-13)
(2764.5 1.21716e-08 1.42334e-13)
(2764.5 2.25235e-08 1.40129e-13)
(2764.5 -7.05745e-10 1.5127e-13)
(2764.5 -7.10604e-10 1.47239e-13)
(2764.5 -7.16433e-10 1.42005e-13)
(2764.5 -7.25357e-10 1.46062e-13)
(2764.5 -7.26938e-10 1.45889e-13)
(2764.5 -7.3061e-10 1.4908e-13)
(2764.5 -7.32869e-10 1.47196e-13)
(2764.5 -7.33623e-10 1.47561e-13)
(2764.5 -7.35571e-10 1.44744e-13)
(2764.5 -7.41545e-10 1.47909e-13)
(2764.5 -7.53327e-10 1.46788e-13)
(2764.5 -7.70246e-10 1.47062e-13)
(2764.5 -7.90225e-10 1.45409e-13)
(2764.5 -8.03989e-10 1.37723e-13)
(2764.5 -8.1097e-10 1.44315e-13)
(2764.5 -8.07018e-10 1.47972e-13)
(2764.5 -7.98856e-10 1.44488e-13)
(2764.5 -7.96858e-10 1.43648e-13)
(2764.5 -8.20098e-10 1.4453e-13)
(2764.5 -8.61582e-10 1.46117e-13)
(2764.5 -9.03515e-10 1.4053e-13)
(2764.5 -9.19672e-10 1.41787e-13)
(2764.5 -8.97365e-10 1.42512e-13)
(2764.5 -8.34648e-10 1.38931e-13)
(2764.5 -7.73452e-10 1.40561e-13)
(2764.5 -7.99267e-10 1.47836e-13)
(2764.5 -8.4898e-10 1.4382e-13)
(2764.5 -1.01619e-09 1.3973e-13)
(2764.5 -1.07059e-09 1.45035e-13)
(2764.5 -8.97121e-10 1.45768e-13)
(2764.5 1.54941e-11 1.50864e-13)
(2764.5 9.46569e-10 1.50253e-13)
(2764.5 2.21926e-09 1.51066e-13)
(2764.5 3.55771e-09 1.5177e-13)
(2764.5 6.22844e-09 1.54845e-13)
(2764.5 1.06876e-08 1.53933e-13)
(2764.5 1.91539e-08 1.52213e-13)
(2764.5 3.24921e-08 1.53384e-13)
(2764.5 5.97515e-08 1.50654e-13)
(2764.5 1.10036e-07 1.5263e-13)
(2764.5 -7.67532e-10 1.62744e-13)
(2764.5 -7.76619e-10 1.62625e-13)
(2764.5 -7.8403e-10 1.63641e-13)
(2764.5 -7.88854e-10 1.5819e-13)
(2764.5 -7.85896e-10 1.60106e-13)
(2764.5 -7.82031e-10 1.59983e-13)
(2764.5 -7.82253e-10 1.61666e-13)
(2764.5 -7.86665e-10 1.60148e-13)
(2764.5 -7.96446e-10 1.58949e-13)
(2764.5 -8.12256e-10 1.63135e-13)
(2764.5 -8.26975e-10 1.56176e-13)
(2764.5 -8.33168e-10 1.56632e-13)
(2764.5 -8.27916e-10 1.55346e-13)
(2764.5 -8.1506e-10 1.53666e-13)
(2764.5 -8.12911e-10 1.54972e-13)
(2764.5 -8.29772e-10 1.56886e-13)
(2764.5 -8.67546e-10 1.54752e-13)
(2764.5 -9.1178e-10 1.49232e-13)
(2764.5 -9.36346e-10 1.53844e-13)
(2764.5 -9.23811e-10 1.51131e-13)
(2764.5 -8.70376e-10 1.52277e-13)
(2764.5 -8.12667e-10 1.55418e-13)
(2764.5 -8.37283e-10 1.5904e-13)
(2764.5 -8.88393e-10 1.57134e-13)
(2764.5 -1.04841e-09 1.54221e-13)
(2764.5 -1.11276e-09 1.55445e-13)
(2764.5 -9.7163e-10 1.55784e-13)
(2764.5 -1.03378e-10 1.58411e-13)
(2764.5 7.74539e-10 1.60766e-13)
(2764.5 1.99861e-09 1.64267e-13)
(2764.5 3.1941e-09 1.63855e-13)
(2764.5 5.61079e-09 1.63038e-13)
(2764.5 9.6891e-09 1.621e-13)
(2764.5 1.70043e-08 1.63705e-13)
(2764.5 2.9814e-08 1.65726e-13)
(2764.5 5.18243e-08 1.60226e-13)
(2764.5 9.23918e-08 1.61707e-13)
(2764.5 1.57129e-07 1.63787e-13)
(2764.5 2.89563e-07 1.63789e-13)
(2764.5 5.33233e-07 1.63776e-13)
(2764.5 -8.18036e-10 1.76419e-13)
(2764.5 -8.23636e-10 1.71025e-13)
(2764.5 -8.31784e-10 1.71455e-13)
(2764.5 -8.3666e-10 1.73141e-13)
(2764.5 -8.3625e-10 1.74568e-13)
(2764.5 -8.46975e-10 1.80587e-13)
(2764.5 -8.60207e-10 1.7283e-13)
(2764.5 -8.66996e-10 1.67648e-13)
(2764.5 -8.66338e-10 1.72456e-13)
(2764.5 -8.58757e-10 1.75989e-13)
(2764.5 -8.47252e-10 1.68309e-13)
(2764.5 -8.44635e-10 1.73151e-13)
(2764.5 -8.63142e-10 1.74467e-13)
(2764.5 -9.04164e-10 1.70435e-13)
(2764.5 -9.42311e-10 1.71941e-13)
(2764.5 -9.56048e-10 1.66105e-13)
(2764.5 -9.34005e-10 1.62879e-13)
(2764.5 -8.818e-10 1.63903e-13)
(2764.5 -8.29295e-10 1.63376e-13)
(2764.5 -8.56219e-10 1.66059e-13)
(2764.5 -9.06262e-10 1.72341e-13)
(2764.5 -1.06307e-09 1.70233e-13)
(2764.5 -1.15122e-09 1.68995e-13)
(2764.5 -1.0399e-09 1.7046e-13)
(2764.5 -2.31737e-10 1.72855e-13)
(2764.5 5.96651e-10 1.74685e-13)
(2764.5 1.77269e-09 1.73843e-13)
(2764.5 2.86139e-09 1.70084e-13)
(2764.5 5.05378e-09 1.78846e-13)
(2764.5 8.71351e-09 1.76748e-13)
(2764.5 1.52364e-08 1.72103e-13)
(2764.5 2.66031e-08 1.70699e-13)
(2764.5 4.63924e-08 1.70212e-13)
(2764.5 8.10632e-08 1.73869e-13)
(2764.5 1.42156e-07 1.77502e-13)
(2764.5 2.47812e-07 1.76209e-13)
(2764.5 4.42059e-07 1.73924e-13)
(2764.5 7.54079e-07 1.74258e-13)
(2764.5 1.38808e-06 1.80168e-13)
(2764.5 2.5528e-06 1.78643e-13)
(2764.5 -8.67536e-10 1.88794e-13)
(2764.5 -8.75846e-10 1.89335e-13)
(2764.5 -8.86837e-10 1.90927e-13)
(2764.5 -9.01086e-10 1.86339e-13)
(2764.5 -9.1218e-10 1.84538e-13)
(2764.5 -9.11995e-10 1.89168e-13)
(2764.5 -8.99842e-10 1.92544e-13)
(2764.5 -8.84237e-10 1.81567e-13)
(2764.5 -8.77321e-10 1.79992e-13)
(2764.5 -8.94315e-10 1.87804e-13)
(2764.5 -9.30645e-10 1.79351e-13)
(2764.5 -9.72416e-10 1.88061e-13)
(2764.5 -9.89798e-10 1.85543e-13)
(2764.5 -9.70996e-10 1.79936e-13)
(2764.5 -9.09295e-10 1.83161e-13)
(2764.5 -8.37835e-10 1.81935e-13)
(2764.5 -8.65782e-10 1.7447e-13)
(2764.5 -9.4797e-10 1.76962e-13)
(2764.5 -1.07059e-09 1.78862e-13)
(2764.5 -1.14546e-09 1.8462e-13)
(2764.5 -1.06468e-09 1.84521e-13)
(2764.5 -3.8199e-10 1.83459e-13)
(2764.5 4.3031e-10 1.88542e-13)
(2764.5 1.55612e-09 1.89394e-13)
(2764.5 2.53939e-09 1.84246e-13)
(2764.5 4.51646e-09 1.88072e-13)
(2764.5 7.82128e-09 1.82372e-13)
(2764.5 1.36426e-08 1.84153e-13)
(2764.5 2.37531e-08 1.85949e-13)
(2764.5 4.12442e-08 1.82316e-13)
(2764.5 7.18388e-08 1.85354e-13)
(2764.5 1.25276e-07 1.87432e-13)
(2764.5 2.18837e-07 1.85957e-13)
(2764.5 3.82793e-07 1.83024e-13)
(2764.5 6.72125e-07 1.87948e-13)
(2764.5 1.17336e-06 1.88142e-13)
(2764.5 2.09056e-06 1.88613e-13)
(2764.5 3.56868e-06 1.89313e-13)
(2764.5 6.56568e-06 1.88065e-13)
(2764.5 1.20734e-05 1.86089e-13)
(2764.5 -9.31178e-10 2.00349e-13)
(2764.5 -9.3924e-10 2.02282e-13)
(2764.5 -9.40751e-10 2.00787e-13)
(2764.5 -9.30972e-10 2.00931e-13)
(2764.5 -9.17939e-10 2.00743e-13)
(2764.5 -9.17136e-10 1.92845e-13)
(2764.5 -9.35656e-10 1.96e-13)
(2764.5 -9.69053e-10 1.95969e-13)
(2764.5 -1.00491e-09 1.96439e-13)
(2764.5 -1.02124e-09 1.96884e-13)
(2764.5 -1.00327e-09 1.94305e-13)
(2764.5 -9.47596e-10 1.97377e-13)
(2764.5 -8.77583e-10 1.91421e-13)
(2764.5 -8.7517e-10 1.90235e-13)
(2764.5 -9.16098e-10 1.92972e-13)
(2764.5 -1.09018e-09 1.93188e-13)
(2764.5 -1.22504e-09 1.9312e-13)
(2764.5 -1.15718e-09 1.9375e-13)
(2764.5 -5.29761e-10 1.9528e-13)
(2764.5 2.90047e-10 1.98928e-13)
(2764.5 1.37772e-09 1.99994e-13)
(2764.5 2.28646e-09 1.97123e-13)
(2764.5 4.03613e-09 1.9728e-13)
(2764.5 7.01619e-09 1.97222e-13)
(2764.5 1.21934e-08 1.96499e-13)
(2764.5 2.11757e-08 1.96025e-13)
(2764.5 3.66451e-08 1.96687e-13)
(2764.5 6.35817e-08 1.98165e-13)
(2764.5 1.10423e-07 1.94171e-13)
(2764.5 1.92071e-07 1.98026e-13)
(2764.5 3.34744e-07 1.98241e-13)
(2764.5 5.84421e-07 2.02534e-13)
(2764.5 1.02178e-06 1.97532e-13)
(2764.5 1.78745e-06 1.95959e-13)
(2764.5 3.13653e-06 1.99545e-13)
(2764.5 5.47771e-06 2.02507e-13)
(2764.5 9.76212e-06 2.02234e-13)
(2764.5 1.67172e-05 1.99591e-13)
(2764.5 3.0711e-05 1.98507e-13)
(2764.5 5.63552e-05 2.02066e-13)
(2764.5 -9.62747e-10 2.14168e-13)
(2764.5 -9.51855e-10 2.11955e-13)
(2764.5 -9.50781e-10 2.13282e-13)
(2764.5 -9.66065e-10 2.09922e-13)
(2764.5 -9.99527e-10 2.08271e-13)
(2764.5 -1.04093e-09 2.14482e-13)
(2764.5 -1.05696e-09 2.171e-13)
(2764.5 -1.03412e-09 2.10427e-13)
(2764.5 -9.77669e-10 2.10155e-13)
(2764.5 -9.09008e-10 2.11408e-13)
(2764.5 -9.15289e-10 2.0903e-13)
(2764.5 -9.60751e-10 2.09422e-13)
(2764.5 -1.10316e-09 2.04523e-13)
(2764.5 -1.236e-09 2.06127e-13)
(2764.5 -1.19577e-09 2.08956e-13)
(2764.5 -7.10083e-10 2.07917e-13)
(2764.5 1.44692e-10 2.12216e-13)
(2764.5 1.15925e-09 2.17457e-13)
(2764.5 2.06409e-09 2.13817e-13)
(2764.5 3.60564e-09 2.10961e-13)
(2764.5 6.29383e-09 2.10375e-13)
(2764.5 1.08783e-08 2.0644e-13)
(2764.5 1.88714e-08 2.11454e-13)
(2764.5 3.25464e-08 2.12613e-13)
(2764.5 5.62351e-08 2.13556e-13)
(2764.5 9.7248e-08 2.11825e-13)
(2764.5 1.68429e-07 2.08148e-13)
(2764.5 2.92278e-07 2.08114e-13)
(2764.5 5.08114e-07 2.06823e-13)
(2764.5 8.84713e-07 2.09859e-13)
(2764.5 1.54226e-06 2.08672e-13)
(2764.5 2.69167e-06 2.07956e-13)
(2764.5 4.70504e-06 2.10492e-13)
(2764.5 8.23786e-06 2.1134e-13)
(2764.5 1.44734e-05 2.07183e-13)
(2764.5 2.53158e-05 2.09776e-13)
(2764.5 4.50517e-05 2.10946e-13)
(2764.5 7.71034e-05 2.08792e-13)
(2764.5 0.000141428 2.09741e-13)
(2764.5 0.000259367 2.12516e-13)
(2764.5 -9.94168e-10 2.29881e-13)
(2764.5 -1.03089e-09 2.29261e-13)
(2764.5 -1.07033e-09 2.26561e-13)
(2764.5 -1.08883e-09 2.23617e-13)
(2764.5 -1.0725e-09 2.26145e-13)
(2764.5 -1.01548e-09 2.22331e-13)
(2764.5 -9.36082e-10 2.24222e-13)
(2764.5 -9.32847e-10 2.23813e-13)
(2764.5 -1.00353e-09 2.25694e-13)
(2764.5 -1.14158e-09 2.21877e-13)
(2764.5 -1.27515e-09 2.18527e-13)
(2764.5 -1.212e-09 2.21153e-13)
(2764.5 -8.34058e-10 2.21921e-13)
(2764.5 6.18565e-12 2.27476e-13)
(2764.5 1.01101e-09 2.27911e-13)
(2764.5 1.93485e-09 2.29539e-13)
(2764.5 3.21599e-09 2.29142e-13)
(2764.5 5.61886e-09 2.25817e-13)
(2764.5 9.67955e-09 2.26107e-13)
(2764.5 1.67853e-08 2.27965e-13)
(2764.5 2.88601e-08 2.22476e-13)
(2764.5 4.96874e-08 2.21593e-13)
(2764.5 8.55983e-08 2.23568e-13)
(2764.5 1.47614e-07 2.20827e-13)
(2764.5 2.5501e-07 2.22942e-13)
(2764.5 4.41359e-07 2.20877e-13)
(2764.5 7.65196e-07 2.20894e-13)
(2764.5 1.32849e-06 2.21061e-13)
(2764.5 2.30928e-06 2.179e-13)
(2764.5 4.02002e-06 2.20797e-13)
(2764.5 7.01103e-06 2.2224e-13)
(2764.5 1.22519e-05 2.22999e-13)
(2764.5 2.14433e-05 2.25134e-13)
(2764.5 3.7548e-05 2.21038e-13)
(2764.5 6.58809e-05 2.20283e-13)
(2764.5 0.000115123 2.23601e-13)
(2764.5 0.000204759 2.25006e-13)
(2764.5 0.000351596 2.2383e-13)
(2764.5 0.000643916 2.24203e-13)
(2764.5 0.00117715 2.25952e-13)
(2764.5 -1.0908e-09 2.41682e-13)
(2764.5 -1.113e-09 2.45472e-13)
(2764.5 -1.09571e-09 2.41784e-13)
(2764.5 -1.0368e-09 2.39395e-13)
(2764.5 -9.66782e-10 2.41576e-13)
(2764.5 -9.59235e-10 2.34464e-13)
(2764.5 -1.01774e-09 2.38211e-13)
(2764.5 -1.13811e-09 2.36003e-13)
(2764.5 -1.29819e-09 2.3165e-13)
(2764.5 -1.27839e-09 2.35559e-13)
(2764.5 -9.5838e-10 2.3594e-13)
(2764.5 -1.30108e-10 2.37256e-13)
(2764.5 7.79868e-10 2.38898e-13)
(2764.5 1.68104e-09 2.41105e-13)
(2764.5 2.85362e-09 2.39172e-13)
(2764.5 5.08039e-09 2.3792e-13)
(2764.5 8.65994e-09 2.41036e-13)
(2764.5 1.4924e-08 2.36881e-13)
(2764.5 2.55559e-08 2.34164e-13)
(2764.5 4.38452e-08 2.35381e-13)
(2764.5 7.52598e-08 2.35919e-13)
(2764.5 1.29264e-07 2.33544e-13)
(2764.5 2.22361e-07 2.35328e-13)
(2764.5 3.83148e-07 2.33085e-13)
(2764.5 6.61339e-07 2.30414e-13)
(2764.5 1.14327e-06 2.36604e-13)
(2764.5 1.97908e-06 2.35387e-13)
(2764.5 3.43087e-06 2.32758e-13)
(2764.5 5.95808e-06 2.32484e-13)
(2764.5 1.03673e-05 2.35445e-13)
(2764.5 1.80712e-05 2.36597e-13)
(2764.5 3.15347e-05 2.29102e-13)
(2764.5 5.50679e-05 2.34033e-13)
(2764.5 9.62512e-05 2.38908e-13)
(2764.5 0.000168498 2.33872e-13)
(2764.5 0.000295921 2.35377e-13)
(2764.5 0.000518027 2.38671e-13)
(2764.5 0.000919984 2.38398e-13)
(2764.5 0.00157617 2.35947e-13)
(2764.5 0.00287761 2.37831e-13)
(2764.49 0.00525206 2.36332e-13)
(2764.5 -1.06883e-09 2.60008e-13)
(2764.5 -9.96473e-10 2.62378e-13)
(2764.5 -9.82184e-10 2.50314e-13)
(2764.5 -1.03824e-09 2.5077e-13)
(2764.5 -1.16031e-09 2.51962e-13)
(2764.5 -1.32717e-09 2.48136e-13)
(2764.5 -1.29624e-09 2.48451e-13)
(2764.5 -1.06619e-09 2.48377e-13)
(2764.5 -2.5277e-10 2.56211e-13)
(2764.5 6.17446e-10 2.59399e-13)
(2764.5 1.52269e-09 2.54007e-13)
(2764.5 2.49368e-09 2.51197e-13)
(2764.5 4.46715e-09 2.52975e-13)
(2764.5 7.6687e-09 2.52299e-13)
(2764.5 1.32981e-08 2.4964e-13)
(2764.5 2.27144e-08 2.50743e-13)
(2764.5 3.87437e-08 2.51859e-13)
(2764.5 6.61694e-08 2.4937e-13)
(2764.5 1.1315e-07 2.4795e-13)
(2764.5 1.93806e-07 2.47565e-13)
(2764.5 3.32479e-07 2.47007e-13)
(2764.5 5.71332e-07 2.50044e-13)
(2764.5 9.83346e-07 2.45501e-13)
(2764.5 1.69494e-06 2.38356e-13)
(2764.5 2.92575e-06 2.4534e-13)
(2764.5 5.05888e-06 2.50595e-13)
(2764.5 8.76414e-06 2.44943e-13)
(2764.5 1.52116e-05 2.44746e-13)
(2764.5 2.64399e-05 2.44586e-13)
(2764.5 4.5998e-05 2.4624e-13)
(2764.5 8.00938e-05 2.44e-13)
(2764.5 0.000139663 2.4541e-13)
(2764.5 0.00024403 2.50421e-13)
(2764.5 0.000427134 2.49064e-13)
(2764.5 0.000747938 2.5125e-13)
(2764.5 0.00131078 2.50241e-13)
(2764.5 0.00228827 2.47186e-13)
(2764.5 0.00405508 2.49547e-13)
(2764.49 0.00697051 2.54202e-13)
(2764.49 0.0127061 2.49462e-13)
(2764.47 0.0230742 2.48185e-13)
(2764.5 -9.72539e-10 2.75789e-13)
(2764.5 -1.04967e-09 2.74806e-13)
(2764.5 -1.17685e-09 2.64399e-13)
(2764.5 -1.36071e-09 2.63173e-13)
(2764.5 -1.35016e-09 2.67613e-13)
(2764.5 -1.16221e-09 2.65466e-13)
(2764.5 -3.72825e-10 2.68649e-13)
(2764.5 4.45933e-10 2.73125e-13)
(2764.5 1.35022e-09 2.71845e-13)
(2764.5 2.20853e-09 2.72105e-13)
(2764.5 4.01399e-09 2.71322e-13)
(2764.5 6.83998e-09 2.64249e-13)
(2764.5 1.17842e-08 2.63988e-13)
(2764.5 2.00927e-08 2.64257e-13)
(2764.5 3.42161e-08 2.63759e-13)
(2764.5 5.82571e-08 2.6515e-13)
(2764.5 9.91667e-08 2.67143e-13)
(2764.5 1.69018e-07 2.62182e-13)
(2764.5 2.88562e-07 2.58299e-13)
(2764.5 4.9357e-07 2.57538e-13)
(2764.5 8.45672e-07 2.58872e-13)
(2764.5 1.45118e-06 2.59945e-13)
(2764.5 2.49401e-06 2.58056e-13)
(2764.5 4.29334e-06 2.56831e-13)
(2764.5 7.40463e-06 2.59818e-13)
(2764.5 1.27951e-05 2.61578e-13)
(2764.5 2.2146e-05 2.6064e-13)
(2764.5 3.8376e-05 2.59122e-13)
(2764.5 6.65639e-05 2.58587e-13)
(2764.5 0.0001156 2.56731e-13)
(2764.5 0.000201124 2.59441e-13)
(2764.5 0.000350597 2.65144e-13)
(2764.5 0.000611878 2.59615e-13)
(2764.5 0.00106809 2.53466e-13)
(2764.5 0.00186442 2.5625e-13)
(2764.5 0.00325785 2.58315e-13)
(2764.49 0.00570982 2.5874e-13)
(2764.49 0.00998667 2.58288e-13)
(2764.48 0.0176713 2.62375e-13)
(2764.46 0.0302385 2.63018e-13)
(2764.44 0.0547937 2.59056e-13)
(2764.38 0.09909 2.59095e-13)
(2764.5 -1.1517e-09 2.84185e-13)
(2764.5 -1.35666e-09 2.81374e-13)
(2764.5 -1.38222e-09 2.80005e-13)
(2764.5 -1.2456e-09 2.82458e-13)
(2764.5 -4.97826e-10 2.88236e-13)
(2764.5 2.76634e-10 2.87648e-13)
(2764.5 1.18491e-09 2.86188e-13)
(2764.5 1.93883e-09 2.86033e-13)
(2764.5 3.57914e-09 2.84787e-13)
(2764.5 6.11543e-09 2.84001e-13)
(2764.5 1.05191e-08 2.83856e-13)
(2764.5 1.78731e-08 2.79664e-13)
(2764.5 3.02544e-08 2.75195e-13)
(2764.5 5.12651e-08 2.76963e-13)
(2764.5 8.69013e-08 2.76979e-13)
(2764.5 1.47492e-07 2.76016e-13)
(2764.5 2.50651e-07 2.76992e-13)
(2764.5 4.26667e-07 2.73154e-13)
(2764.5 7.27566e-07 2.71058e-13)
(2764.5 1.24274e-06 2.69051e-13)
(2764.5 2.12609e-06 2.71619e-13)
(2764.5 3.64343e-06 2.74709e-13)
(2764.5 6.25506e-06 2.72249e-13)
(2764.5 1.07594e-05 2.68814e-13)
(2764.5 1.85402e-05 2.72088e-13)
(2764.5 3.19934e-05 2.72688e-13)
(2764.5 5.52702e-05 2.71014e-13)
(2764.5 9.55951e-05 2.68765e-13)
(2764.5 0.000165607 2.69403e-13)
(2764.5 0.000287444 2.67356e-13)
(2764.5 0.000499708 2.68423e-13)
(2764.5 0.000869327 2.72588e-13)
(2764.5 0.00151252 2.70563e-13)
(2764.5 0.00263315 2.65693e-13)
(2764.49 0.00459219 2.6842e-13)
(2764.49 0.00802483 2.69492e-13)
(2764.48 0.0140301 2.68702e-13)
(2764.47 0.024514 2.71781e-13)
(2764.45 0.0426454 2.71063e-13)
(2764.41 0.0750545 2.7233e-13)
(2764.34 0.128776 2.72733e-13)
(2764.23 0.232832 2.70553e-13)
(2764.01 0.417193 2.70388e-13)
(2764.5 -1.24947e-09 2.95819e-13)
(2764.5 -6.33788e-10 3.03196e-13)
(2764.5 1.43533e-10 3.07067e-13)