/*--------------------------------*- C++ -*----------------------------------*\
| =========                 |                                                 |
| \\      /  F ield         | OpenFOAM: The Open Source CFD Toolbox           |
|  \\    /   O peration     | Version:  v1706                                 |
|   \\  /    A nd           | Web:      www.OpenFOAM.com                      |
|    \\/     M anipulation  |                                                 |
\*---------------------------------------------------------------------------*/
FoamFile
{
    version     2.0;
    format      ascii;
    class       volScalarField;
    location    "4e-06";
    object      wallHeatFlux;
}
// * * * * * * * * * * * * * * * * * * * * * * * * * * * * * * * * * * * * * //

dimensions      [1 0 -3 0 0 0 0];


internalField   uniform 0;

boundaryField
{
    cone
    {
        type            calculated;
        value           nonuniform List<scalar> 
153
(
1.70792e+06
1.72678e+06
1.74615e+06
1.76603e+06
1.78644e+06
1.80739e+06
1.82888e+06
1.85094e+06
1.87356e+06
1.89676e+06
1.92057e+06
1.94499e+06
1.97006e+06
1.99581e+06
2.02227e+06
2.04953e+06
2.07763e+06
2.10662e+06
2.13659e+06
2.16762e+06
2.19976e+06
2.23309e+06
2.26775e+06
2.30381e+06
2.34147e+06
2.38089e+06
2.42213e+06
2.46556e+06
2.5114e+06
2.56005e+06
2.61168e+06
2.66686e+06
2.72537e+06
2.78638e+06
2.84722e+06
2.90069e+06
2.93183e+06
2.91418e+06
2.81077e+06
2.58948e+06
2.25136e+06
1.84345e+06
1.43351e+06
1.07324e+06
781150
556225
389244
268391
179901
116780
74516.8
46592
28345
16550.4
9004.53
4220.29
1209.13
-674.024
-1844.91
-2568.35
-3011.93
-3281.59
-3444.43
-3541.91
-3599.83
-3633.93
-3653.87
-3665.42
-3672.02
-3675.71
-3677.7
-3678.69
-3679.11
-3679.18
-3679.06
-3678.82
-3678.52
-3678.19
-3677.84
-3677.48
-3677.12
-3676.77
-3676.42
-3676.08
-3675.74
-3675.41
-3675.08
-3674.76
-3674.44
-3674.13
-3673.82
-3673.51
-3673.2
-3672.9
-3672.6
-3672.3
-3672
-3671.7
-3671.41
-3671.11
-3670.82
-3670.52
-3670.23
-3669.94
-3669.65
-3669.35
-3669.06
-3668.77
-3668.48
-3668.19
-3667.9
-3667.61
-3667.33
-3667.04
-3666.75
-3666.46
-3666.18
-3665.89
-3665.61
-3665.32
-3665.04
-3664.76
-3664.47
-3664.19
-3663.91
-3663.63
-3663.35
-3663.07
-3662.79
-3662.51
-3662.23
-3661.95
-3661.67
-3661.39
-3661.12
-3660.84
-3660.57
-3660.3
-3660.04
-3659.78
-3659.53
-3659.29
-3659.05
-3658.83
-3658.61
-3658.41
-3658.22
-3658.05
-3657.89
-3657.76
-3657.65
-3657.54
-3657.27
)
;
    }
    inlet
    {
        type            calculated;
        value           uniform 0;
    }
    rWedge
    {
        type            wedge;
    }
    lWedge
    {
        type            wedge;
    }
    outlet
    {
        type            calculated;
        value           nonuniform 0();
    }
    procBoundary2to0
    {
        type            processor;
        value           uniform 0;
    }
    procBoundary2to1
    {
        type            processor;
        value           uniform 0;
    }
    procBoundary2to3
    {
        type            processor;
        value           uniform 0;
    }
}


// ************************************************************************* //
