/*--------------------------------*- C++ -*----------------------------------*\
| =========                 |                                                 |
| \\      /  F ield         | OpenFOAM: The Open Source CFD Toolbox           |
|  \\    /   O peration     | Version:  v1706                                 |
|   \\  /    A nd           | Web:      www.OpenFOAM.com                      |
|    \\/     M anipulation  |                                                 |
\*---------------------------------------------------------------------------*/
FoamFile
{
    version     2.0;
    format      ascii;
    class       volScalarField;
    location    "9e-06";
    object      alpha;
}
// * * * * * * * * * * * * * * * * * * * * * * * * * * * * * * * * * * * * * //

dimensions      [1 -1 -1 0 0 0 0];


internalField   nonuniform List<scalar> 
30038
(
1.40478e-05
1.40478e-05
1.40478e-05
1.40478e-05
1.40478e-05
1.40478e-05
1.40478e-05
1.40478e-05
1.40478e-05
1.40478e-05
1.40478e-05
1.40478e-05
1.40478e-05
1.40478e-05
1.40478e-05
1.40478e-05
1.40478e-05
1.40478e-05
1.40478e-05
1.40478e-05
1.40478e-05
1.40478e-05
1.40478e-05
1.40478e-05
1.40478e-05
1.40478e-05
1.40478e-05
1.40478e-05
1.40478e-05
1.40478e-05
1.40478e-05
1.40478e-05
1.40478e-05
1.40478e-05
1.40478e-05
1.40478e-05
1.40478e-05
1.40478e-05
1.40478e-05
1.40478e-05
1.40478e-05
1.40478e-05
1.40478e-05
1.40478e-05
1.40478e-05
1.40478e-05
1.40478e-05
1.40478e-05
1.40478e-05
1.40478e-05
1.40478e-05
1.40478e-05
1.40478e-05
1.40478e-05
1.40478e-05
1.40478e-05
1.40478e-05
1.40478e-05
1.40478e-05
1.40478e-05
1.40478e-05
1.40478e-05
1.40478e-05
1.40478e-05
1.40478e-05
1.40478e-05
1.40478e-05
1.40478e-05
1.40478e-05
1.40478e-05
1.40478e-05
1.40478e-05
1.40478e-05
1.40478e-05
1.40478e-05
1.40478e-05
1.40478e-05
1.40478e-05
1.40478e-05
1.40478e-05
1.40478e-05
1.40478e-05
1.40478e-05
1.40478e-05
1.40478e-05
1.40478e-05
1.40478e-05
1.40478e-05
1.40478e-05
1.40478e-05
1.40478e-05
1.40478e-05
1.40478e-05
1.40478e-05
1.40478e-05
1.40478e-05
1.40478e-05
1.40478e-05
1.40478e-05
1.40478e-05
1.40478e-05
1.40478e-05
1.40478e-05
1.40478e-05
1.40478e-05
1.40478e-05
1.40478e-05
1.40478e-05
1.40478e-05
1.40478e-05
1.40478e-05
1.40478e-05
1.40478e-05
1.40478e-05
1.40478e-05
1.40478e-05
1.40478e-05
1.40478e-05
1.40478e-05
1.40478e-05
1.40478e-05
1.40478e-05
1.40478e-05
1.40478e-05
1.40478e-05
1.40478e-05
1.40478e-05
1.40478e-05
1.40478e-05
1.40478e-05
1.40478e-05
1.40478e-05
1.40478e-05
1.40478e-05
1.40478e-05
1.40478e-05
1.40478e-05
1.40478e-05
1.40478e-05
1.40478e-05
1.40478e-05
1.40478e-05
1.40478e-05
1.40478e-05
1.40478e-05
1.40478e-05
1.40478e-05
1.40478e-05
1.40478e-05
1.40478e-05
1.40478e-05
1.40478e-05
1.40478e-05
1.40478e-05
1.40478e-05
1.40478e-05
1.40478e-05
1.40478e-05
1.40478e-05
1.40478e-05
1.40478e-05
1.40478e-05
1.40478e-05
1.40478e-05
1.40478e-05
1.40478e-05
1.40478e-05
1.40478e-05
1.40478e-05
1.40478e-05
1.40478e-05
1.40478e-05
1.40478e-05
1.40478e-05
1.40478e-05
1.40478e-05
1.40478e-05
1.40478e-05
1.40478e-05
1.40478e-05
1.40478e-05
1.40478e-05
1.40478e-05
1.40478e-05
1.40478e-05
1.40478e-05
1.40478e-05
1.40478e-05
1.40478e-05
1.40478e-05
1.40478e-05
1.40478e-05
1.40478e-05
1.40478e-05
1.40478e-05
1.40478e-05
1.40478e-05
1.40478e-05
1.40478e-05
1.40478e-05
1.40478e-05
1.40478e-05
1.40478e-05
1.40478e-05
1.40478e-05
1.40478e-05
1.40478e-05
1.40478e-05
1.40478e-05
1.40478e-05
1.40478e-05
1.40478e-05
1.40478e-05
1.40478e-05
1.40478e-05
1.40478e-05
1.40478e-05
1.40478e-05
1.40478e-05
1.40478e-05
1.40478e-05
1.40478e-05
1.40478e-05
1.40478e-05
1.40478e-05
1.40478e-05
1.40478e-05
1.40478e-05
1.40478e-05
1.40478e-05
1.40478e-05
1.40478e-05
1.40478e-05
1.40478e-05
1.40478e-05
1.40478e-05
1.40478e-05
1.40478e-05
1.40478e-05
1.40478e-05
1.40478e-05
1.40478e-05
1.40478e-05
1.40478e-05
1.40478e-05
1.40478e-05
1.40478e-05
1.40478e-05
1.40478e-05
1.40478e-05
1.40478e-05
1.40478e-05
1.40478e-05
1.40478e-05
1.40478e-05
1.40478e-05
1.40478e-05
1.40478e-05
1.40478e-05
1.40478e-05
1.40478e-05
1.40478e-05
1.40478e-05
1.40478e-05
1.40478e-05
1.40478e-05
1.40478e-05
1.40478e-05
1.40478e-05
1.40478e-05
1.40478e-05
1.40478e-05
1.40478e-05
1.40478e-05
1.40478e-05
1.40478e-05
1.40478e-05
1.40478e-05
1.40478e-05
1.40478e-05
1.40478e-05
1.40478e-05
1.40478e-05
1.40478e-05
1.40478e-05
1.40478e-05
1.40478e-05
1.40478e-05
1.40478e-05
1.40478e-05
1.40478e-05
1.40478e-05
1.40478e-05
1.40478e-05
1.40478e-05
1.40478e-05
1.40478e-05
1.40478e-05
1.40478e-05
1.40478e-05
1.40478e-05
1.40478e-05
1.40478e-05
1.40478e-05
1.40478e-05
1.40478e-05
1.40478e-05
1.40478e-05
1.40478e-05
1.40478e-05
1.40478e-05
1.40478e-05
1.40478e-05
1.40478e-05
1.40478e-05
1.40478e-05
1.40478e-05
1.40478e-05
1.40478e-05
1.40478e-05
1.40478e-05
1.40478e-05
1.40478e-05
1.40478e-05
1.40478e-05
1.40478e-05
1.40478e-05
1.40478e-05
1.40478e-05
1.40478e-05
1.40478e-05
1.40478e-05
1.40478e-05
1.40478e-05
1.40478e-05
1.40478e-05
1.40478e-05
1.40478e-05
1.40478e-05
1.40478e-05
1.40478e-05
1.40478e-05
1.40478e-05
1.40478e-05
1.40478e-05
1.40478e-05
1.40478e-05
1.40478e-05
1.40478e-05
1.40478e-05
1.40478e-05
1.40478e-05
1.40478e-05
1.40478e-05
1.40478e-05
1.40478e-05
1.40478e-05
1.40478e-05
1.40478e-05
1.40478e-05
1.40478e-05
1.40478e-05
1.40478e-05
1.40478e-05
1.40478e-05
1.40478e-05
1.40478e-05
1.40478e-05
1.40478e-05
1.40478e-05
1.40478e-05
1.40478e-05
1.40478e-05
1.40478e-05
1.40478e-05
1.40478e-05
1.40478e-05
1.40478e-05
1.40478e-05
1.40478e-05
1.40478e-05
1.40478e-05
1.40478e-05
1.40478e-05
1.40478e-05
1.40478e-05
1.40478e-05
1.40478e-05
1.40478e-05
1.40478e-05
1.40478e-05
1.40478e-05
1.40478e-05
1.40478e-05
1.40478e-05
1.40478e-05
1.40478e-05
1.40478e-05
1.40478e-05
1.40478e-05
1.40478e-05
1.40478e-05
1.40478e-05
1.40478e-05
1.40478e-05
1.40478e-05
1.40478e-05
1.40478e-05
1.40478e-05
1.40478e-05
1.40478e-05
1.40478e-05
1.40478e-05
1.40478e-05
1.40478e-05
1.40478e-05
1.40478e-05
1.40478e-05
1.40478e-05
1.40478e-05
1.40478e-05
1.40478e-05
1.40478e-05
1.40478e-05
1.40478e-05
1.40478e-05
1.40478e-05
1.40478e-05
1.40478e-05
1.40478e-05
1.40478e-05
1.40478e-05
1.40478e-05
1.40478e-05
1.40478e-05
1.40478e-05
1.40478e-05
1.40478e-05
1.40478e-05
1.40478e-05
1.40478e-05
1.40478e-05
1.40478e-05
1.40478e-05
1.40478e-05
1.40478e-05
1.40478e-05
1.40478e-05
1.40478e-05
1.40478e-05
1.40478e-05
1.40478e-05
1.40478e-05
1.40478e-05
1.40478e-05
1.40478e-05
1.40478e-05
1.40478e-05
1.40478e-05
1.40478e-05
1.40478e-05
1.40478e-05
1.40478e-05
1.40478e-05
1.40478e-05
1.40478e-05
1.40478e-05
1.40478e-05
1.40478e-05
1.40478e-05
1.40478e-05
1.40478e-05
1.40478e-05
1.40478e-05
1.40478e-05
1.40478e-05
1.40478e-05
1.40478e-05
1.40478e-05
1.40478e-05
1.40478e-05
1.40478e-05
1.40478e-05
1.40478e-05
1.40478e-05
1.40478e-05
1.40478e-05
1.40478e-05
1.40478e-05
1.40478e-05
1.40478e-05
1.40478e-05
1.40478e-05
1.40478e-05
1.40478e-05
1.40478e-05
1.40478e-05
1.40478e-05
1.40478e-05
1.40478e-05
1.40478e-05
1.40478e-05
1.40478e-05
1.40478e-05
1.40478e-05
1.40478e-05
1.40478e-05
1.40478e-05
1.40478e-05
1.40478e-05
1.40478e-05
1.40478e-05
1.40478e-05
1.40478e-05
1.40478e-05
1.40478e-05
1.40478e-05
1.40478e-05
1.40478e-05
1.40478e-05
1.40478e-05
1.40478e-05
1.40478e-05
1.40478e-05
1.40478e-05
1.40478e-05
1.40478e-05
1.40478e-05
1.40478e-05
1.40478e-05
1.40478e-05
1.40478e-05
1.40478e-05
1.40478e-05
1.40478e-05
1.40478e-05
1.40478e-05
1.40478e-05
1.40478e-05
1.40478e-05
1.40478e-05
1.40478e-05
1.40478e-05
1.40478e-05
1.40478e-05
1.40478e-05
1.40478e-05
1.40478e-05
1.40478e-05
1.40478e-05
1.40478e-05
1.40478e-05
1.40478e-05
1.40478e-05
1.40478e-05
1.40478e-05
1.40478e-05
1.40478e-05
1.40478e-05
1.40478e-05
1.40478e-05
1.40478e-05
1.40478e-05
1.40478e-05
1.40478e-05
1.40478e-05
1.40478e-05
1.40478e-05
1.40478e-05
1.40478e-05
1.40478e-05
1.40478e-05
1.40478e-05
1.40478e-05
1.40478e-05
1.40478e-05
1.40478e-05
1.40478e-05
1.40478e-05
1.40478e-05
1.40478e-05
1.40478e-05
1.40478e-05
1.40478e-05
1.40478e-05
1.40478e-05
1.40478e-05
1.40478e-05
1.40478e-05
1.40478e-05
1.40478e-05
1.40478e-05
1.40478e-05
1.40478e-05
1.40478e-05
1.40478e-05
1.40478e-05
1.40478e-05
1.40478e-05
1.40478e-05
1.40478e-05
1.40478e-05
1.40478e-05
1.40478e-05
1.40478e-05
1.40478e-05
1.40478e-05
1.40478e-05
1.40478e-05
1.40478e-05
1.40478e-05
1.40478e-05
1.40478e-05
1.40478e-05
1.40478e-05
1.40478e-05
1.40478e-05
1.40478e-05
1.40478e-05
1.40478e-05
1.40478e-05
1.40478e-05
1.40478e-05
1.40478e-05
1.40478e-05
1.40478e-05
1.40478e-05
1.40478e-05
1.40478e-05
1.40478e-05
1.40478e-05
1.40478e-05
1.40478e-05
1.40478e-05
1.40478e-05
1.40478e-05
1.40478e-05
1.40478e-05
1.40478e-05
1.40478e-05
1.40478e-05
1.40478e-05
1.40478e-05
1.40478e-05
1.40478e-05
1.40478e-05
1.40478e-05
1.40478e-05
1.40478e-05
1.40478e-05
1.40478e-05
1.40478e-05
1.40478e-05
1.40478e-05
1.40478e-05
1.40478e-05
1.40478e-05
1.40478e-05
1.40478e-05
1.40478e-05
1.40478e-05
1.40478e-05
1.40478e-05
1.40478e-05
1.40478e-05
1.40478e-05
1.40478e-05
1.40478e-05
1.40478e-05
1.40478e-05
1.40478e-05
1.40478e-05
1.40478e-05
1.40478e-05
1.40478e-05
1.40478e-05
1.40478e-05
1.40478e-05
1.40478e-05
1.40478e-05
1.40478e-05
1.40478e-05
1.40478e-05
1.40478e-05
1.40478e-05
1.40478e-05
1.40478e-05
1.40478e-05
1.40478e-05
1.40478e-05
1.40478e-05
1.40478e-05
1.40478e-05
1.40478e-05
1.40478e-05
1.40478e-05
1.40478e-05
1.40478e-05
1.40478e-05
1.40478e-05
1.40478e-05
1.40478e-05
1.40478e-05
1.40478e-05
1.40478e-05
1.40478e-05
1.40478e-05
1.40478e-05
1.40478e-05
1.40478e-05
1.40478e-05
1.40478e-05
1.40478e-05
1.40478e-05
1.40478e-05
1.40478e-05
1.40478e-05
1.40478e-05
1.40478e-05
1.40478e-05
1.40478e-05
1.40478e-05
1.40478e-05
1.40478e-05
1.40478e-05
1.40478e-05
1.40478e-05
1.40478e-05
1.40478e-05
1.40478e-05
1.40478e-05
1.40478e-05
1.40478e-05
1.40478e-05
1.40478e-05
1.40478e-05
1.40478e-05
1.40478e-05
1.40478e-05
1.40478e-05
1.40478e-05
1.40478e-05
1.40478e-05
1.40478e-05
1.40478e-05
1.40478e-05
1.40478e-05
1.40478e-05
1.40478e-05
1.40478e-05
1.40478e-05
1.40478e-05
1.40478e-05
1.40478e-05
1.40478e-05
1.40478e-05
1.40478e-05
1.40478e-05
1.40478e-05
1.40478e-05
1.40478e-05
1.40478e-05
1.40478e-05
1.40478e-05
1.40478e-05
1.40478e-05
1.40478e-05
1.40478e-05
1.40478e-05
1.40478e-05
1.40478e-05
1.40478e-05
1.40478e-05
1.40478e-05
1.40478e-05
1.40478e-05
1.40478e-05
1.40478e-05
1.40478e-05
1.40478e-05
1.40478e-05
1.40478e-05
1.40478e-05
1.40478e-05
1.40478e-05
1.40478e-05
1.40478e-05
1.40478e-05
1.40478e-05
1.40478e-05
1.40478e-05
1.40478e-05
1.40478e-05
1.40478e-05
1.40478e-05
1.40478e-05
1.40478e-05
1.40478e-05
1.40478e-05
1.40478e-05
1.40478e-05
1.40478e-05
1.40478e-05
1.40478e-05
1.40478e-05
1.40478e-05
1.40478e-05
1.40478e-05
1.40478e-05
1.40478e-05
1.40478e-05
1.40478e-05
1.40478e-05
1.40478e-05
1.40478e-05
1.40478e-05
1.40478e-05
1.40478e-05
1.40478e-05
1.40478e-05
1.40478e-05
1.40478e-05
1.40478e-05
1.40478e-05
1.40478e-05
1.40478e-05
1.40478e-05
1.40478e-05
1.40478e-05
1.40478e-05
1.40478e-05
1.40478e-05
1.40478e-05
1.40478e-05
1.40478e-05
1.40478e-05
1.40478e-05
1.40478e-05
1.40478e-05
1.40478e-05
1.40478e-05
1.40478e-05
1.40478e-05
1.40478e-05
1.40478e-05
1.40478e-05
1.40478e-05
1.40478e-05
1.40478e-05
1.40478e-05
1.40478e-05
1.40478e-05
1.40478e-05
1.40478e-05
1.40478e-05
1.40478e-05
1.40478e-05
1.40478e-05
1.40478e-05
1.40478e-05
1.40478e-05
1.40478e-05
1.40478e-05
1.40478e-05
1.40478e-05
1.40478e-05
1.40478e-05
1.40478e-05
1.40478e-05
1.40478e-05
1.40478e-05
1.40478e-05
1.40478e-05
1.40478e-05
1.40478e-05
1.40478e-05
1.40478e-05
1.40478e-05
1.40478e-05
1.40478e-05
1.40478e-05
1.40478e-05
1.40478e-05
1.40478e-05
1.40478e-05
1.40478e-05
1.40478e-05
1.40478e-05
1.40478e-05
1.40478e-05
1.40478e-05
1.40478e-05
1.40478e-05
1.40478e-05
1.40478e-05
1.40478e-05
1.40478e-05
1.40478e-05
1.40478e-05
1.40478e-05
1.40478e-05
1.40478e-05
1.40478e-05
1.40478e-05
1.40478e-05
1.40478e-05
1.40478e-05
1.40478e-05
1.40478e-05
1.40478e-05
1.40478e-05
1.40478e-05
1.40478e-05
1.40478e-05
1.40478e-05
1.40478e-05
1.40478e-05
1.40478e-05
1.40478e-05
1.40478e-05
1.40478e-05
1.40478e-05
1.40478e-05
1.40478e-05
1.40478e-05
1.40478e-05
1.40478e-05
1.40478e-05
1.40478e-05
1.40478e-05
1.40478e-05
1.40478e-05
1.40478e-05
1.40478e-05
1.40478e-05
1.40478e-05
1.40478e-05
1.40478e-05
1.40478e-05
1.40478e-05
1.40478e-05
1.40478e-05
1.40478e-05
1.40478e-05
1.40478e-05
1.40478e-05
1.40478e-05
1.40478e-05
1.40478e-05
1.40478e-05
1.40478e-05
1.40478e-05
1.40478e-05
1.40478e-05
1.40478e-05
1.40478e-05
1.40478e-05
1.40478e-05
1.40478e-05
1.40478e-05
1.40478e-05
1.40478e-05
1.40478e-05
1.40478e-05
1.40478e-05
1.40478e-05
1.40478e-05
1.40478e-05
1.40478e-05
1.40478e-05
1.40478e-05
1.40478e-05
1.40478e-05
1.40478e-05
1.40478e-05
1.40478e-05
1.40478e-05
1.40478e-05
1.40478e-05
1.40478e-05
1.40478e-05
1.40478e-05
1.40478e-05
1.40478e-05
1.40478e-05
1.40478e-05
1.40478e-05
1.40478e-05
1.40478e-05
1.40478e-05
1.40478e-05
1.40478e-05
1.40478e-05
1.40478e-05
1.40478e-05
1.40478e-05
1.40478e-05
1.40478e-05
1.40478e-05
1.40478e-05
1.40478e-05
1.40478e-05
1.40478e-05
1.40478e-05
1.40478e-05
1.40478e-05
1.40478e-05
1.40478e-05
1.40478e-05
1.40478e-05
1.40478e-05
1.40478e-05
1.40478e-05
1.40478e-05
1.40478e-05
1.40478e-05
1.40478e-05
1.40478e-05
1.40478e-05
1.40478e-05
1.40478e-05
1.40478e-05
1.40478e-05
1.40478e-05
1.40478e-05
1.40478e-05
1.40478e-05
1.40478e-05
1.40478e-05
1.40478e-05
1.40478e-05
1.40478e-05
1.40478e-05
1.40478e-05
1.40478e-05
1.40478e-05
1.40478e-05
1.40478e-05
1.40478e-05
1.40478e-05
1.40478e-05
1.40478e-05
1.40478e-05
1.40478e-05
1.40478e-05
1.40478e-05
1.40478e-05
1.40478e-05
1.40478e-05
1.40478e-05
1.40478e-05
1.40478e-05
1.40478e-05
1.40478e-05
1.40478e-05
1.40478e-05
1.40478e-05
1.40478e-05
1.40478e-05
1.40478e-05
1.40478e-05
1.40478e-05
1.40478e-05
1.40478e-05
1.40478e-05
1.40478e-05
1.40478e-05
1.40478e-05
1.40478e-05
1.40478e-05
1.40478e-05
1.40478e-05
1.40478e-05
1.40478e-05
1.40478e-05
1.40478e-05
1.40478e-05
1.40478e-05
1.40478e-05
1.40478e-05
1.40478e-05
1.40478e-05
1.40478e-05
1.40478e-05
1.40478e-05
1.40478e-05
1.40478e-05
1.40478e-05
1.40478e-05
1.40478e-05
1.40478e-05
1.40478e-05
1.40478e-05
1.40478e-05
1.40478e-05
1.40478e-05
1.40478e-05
1.40478e-05
1.40478e-05
1.40478e-05
1.40478e-05
1.40478e-05
1.40478e-05
1.40478e-05
1.40478e-05
1.40478e-05
1.40478e-05
1.40478e-05
1.40478e-05
1.40478e-05
1.40478e-05
1.40478e-05
1.40478e-05
1.40478e-05
1.40478e-05
1.40478e-05
1.40478e-05
1.40478e-05
1.40478e-05
1.40478e-05
1.40478e-05
1.40478e-05
1.40478e-05
1.40478e-05
1.40478e-05
1.40478e-05
1.40478e-05
1.40478e-05
1.40478e-05
1.40478e-05
1.40478e-05
1.40478e-05
1.40478e-05
1.40478e-05
1.40478e-05
1.40478e-05
1.40478e-05
1.40478e-05
1.40478e-05
1.40478e-05
1.40478e-05
1.40479e-05
1.40478e-05
1.40478e-05
1.40478e-05
1.40478e-05
1.40478e-05
1.40478e-05
1.40478e-05
1.40478e-05
1.40478e-05
1.40478e-05
1.40478e-05
1.40478e-05
1.40478e-05
1.40478e-05
1.40478e-05
1.40478e-05
1.40478e-05
1.40478e-05
1.40478e-05
1.40478e-05
1.40478e-05
1.40478e-05
1.40478e-05
1.40478e-05
1.40478e-05
1.40478e-05
1.40478e-05
1.40478e-05
1.40478e-05
1.40478e-05
1.40478e-05
1.40478e-05
1.40478e-05
1.40478e-05
1.40478e-05
1.40478e-05
1.40478e-05
1.40478e-05
1.40478e-05
1.40478e-05
1.40478e-05
1.40478e-05
1.40478e-05
1.40478e-05
1.40478e-05
1.40478e-05
1.40479e-05
1.40479e-05
1.40481e-05
1.40483e-05
1.40478e-05
1.40478e-05
1.40478e-05
1.40478e-05
1.40478e-05
1.40478e-05
1.40478e-05
1.40478e-05
1.40478e-05
1.40478e-05
1.40478e-05
1.40478e-05
1.40478e-05
1.40478e-05
1.40478e-05
1.40478e-05
1.40478e-05
1.40478e-05
1.40478e-05
1.40478e-05
1.40478e-05
1.40478e-05
1.40478e-05
1.40478e-05
1.40478e-05
1.40478e-05
1.40478e-05
1.40478e-05
1.40478e-05
1.40478e-05
1.40478e-05
1.40478e-05
1.40478e-05
1.40478e-05
1.40478e-05
1.40478e-05
1.40478e-05
1.40478e-05
1.40478e-05
1.40478e-05
1.40478e-05
1.40478e-05
1.40478e-05
1.40479e-05
1.40479e-05
1.4048e-05
1.40483e-05
1.40487e-05
1.40494e-05
1.4051e-05
1.40478e-05
1.40478e-05
1.40478e-05
1.40478e-05
1.40478e-05
1.40478e-05
1.40478e-05
1.40478e-05
1.40478e-05
1.40478e-05
1.40478e-05
1.40478e-05
1.40478e-05
1.40478e-05
1.40478e-05
1.40478e-05
1.40478e-05
1.40478e-05
1.40478e-05
1.40478e-05
1.40478e-05
1.40478e-05
1.40478e-05
1.40478e-05
1.40478e-05
1.40478e-05
1.40478e-05
1.40478e-05
1.40478e-05
1.40478e-05
1.40478e-05
1.40478e-05
1.40478e-05
1.40478e-05
1.40478e-05
1.40478e-05
1.40478e-05
1.40478e-05
1.40478e-05
1.40478e-05
1.40479e-05
1.40479e-05
1.4048e-05
1.40482e-05
1.40486e-05
1.40493e-05
1.40505e-05
1.40529e-05
1.40574e-05
1.40665e-05
1.40478e-05
1.40478e-05
1.40478e-05
1.40478e-05
1.40478e-05
1.40478e-05
1.40478e-05
1.40478e-05
1.40478e-05
1.40478e-05
1.40478e-05
1.40478e-05
1.40478e-05
1.40478e-05
1.40478e-05
1.40478e-05
1.40478e-05
1.40478e-05
1.40478e-05
1.40478e-05
1.40478e-05
1.40478e-05
1.40478e-05
1.40478e-05
1.40478e-05
1.40478e-05
1.40478e-05
1.40478e-05
1.40478e-05
1.40478e-05
1.40478e-05
1.40478e-05
1.40478e-05
1.40478e-05
1.40478e-05
1.40478e-05
1.40478e-05
1.40479e-05
1.40479e-05
1.4048e-05
1.40482e-05
1.40486e-05
1.40492e-05
1.40504e-05
1.40525e-05
1.40565e-05
1.40638e-05
1.40773e-05
1.41029e-05
1.41538e-05
1.40478e-05
1.40478e-05
1.40478e-05
1.40478e-05
1.40478e-05
1.40478e-05
1.40478e-05
1.40478e-05
1.40478e-05
1.40478e-05
1.40478e-05
1.40478e-05
1.40478e-05
1.40478e-05
1.40478e-05
1.40478e-05
1.40478e-05
1.40478e-05
1.40478e-05
1.40478e-05
1.40478e-05
1.40478e-05
1.40478e-05
1.40478e-05
1.40478e-05
1.40478e-05
1.40478e-05
1.40478e-05
1.40478e-05
1.40478e-05
1.40478e-05
1.40478e-05
1.40478e-05
1.40478e-05
1.40479e-05
1.40479e-05
1.4048e-05
1.40482e-05
1.40486e-05
1.40492e-05
1.40503e-05
1.40524e-05
1.4056e-05
1.40627e-05
1.40749e-05
1.40972e-05
1.41381e-05
1.42135e-05
1.43533e-05
1.46204e-05
1.40478e-05
1.40478e-05
1.40478e-05
1.40478e-05
1.40478e-05
1.40478e-05
1.40478e-05
1.40478e-05
1.40478e-05
1.40478e-05
1.40478e-05
1.40478e-05
1.40478e-05
1.40478e-05
1.40478e-05
1.40478e-05
1.40478e-05
1.40478e-05
1.40478e-05
1.40478e-05
1.40478e-05
1.40478e-05
1.40478e-05
1.40478e-05
1.40478e-05
1.40478e-05
1.40478e-05
1.40478e-05
1.40478e-05
1.40478e-05
1.40478e-05
1.40479e-05
1.40479e-05
1.40481e-05
1.40483e-05
1.40486e-05
1.40492e-05
1.40503e-05
1.40523e-05
1.40558e-05
1.40622e-05
1.40736e-05
1.40941e-05
1.41312e-05
1.41984e-05
1.43199e-05
1.45383e-05
1.49274e-05
1.56095e-05
1.67838e-05
1.40478e-05
1.40478e-05
1.40478e-05
1.40478e-05
1.40478e-05
1.40478e-05
1.40478e-05
1.40478e-05
1.40478e-05
1.40478e-05
1.40478e-05
1.40478e-05
1.40478e-05
1.40478e-05
1.40478e-05
1.40478e-05
1.40478e-05
1.40478e-05
1.40478e-05
1.40478e-05
1.40478e-05
1.40478e-05
1.40478e-05
1.40478e-05
1.40478e-05
1.40478e-05
1.40478e-05
1.40478e-05
1.40479e-05
1.4048e-05
1.40481e-05
1.40483e-05
1.40487e-05
1.40493e-05
1.40504e-05
1.40524e-05
1.40559e-05
1.40621e-05
1.40731e-05
1.40926e-05
1.41274e-05
1.41895e-05
1.43002e-05
1.44968e-05
1.48422e-05
1.54377e-05
1.64323e-05
1.80174e-05
2.03972e-05
2.37322e-05
1.40478e-05
1.40478e-05
1.40478e-05
1.40478e-05
1.40478e-05
1.40478e-05
1.40478e-05
1.40478e-05
1.40478e-05
1.40478e-05
1.40478e-05
1.40478e-05
1.40478e-05
1.40478e-05
1.40478e-05
1.40478e-05
1.40478e-05
1.40478e-05
1.40478e-05
1.40478e-05
1.40478e-05
1.40478e-05
1.40478e-05
1.40478e-05
1.40479e-05
1.40479e-05
1.4048e-05
1.40481e-05
1.40484e-05
1.40487e-05
1.40494e-05
1.40506e-05
1.40527e-05
1.40562e-05
1.40625e-05
1.40733e-05
1.40924e-05
1.41261e-05
1.41852e-05
1.42893e-05
1.44718e-05
1.47888e-05
1.53299e-05
1.62275e-05
1.7653e-05
1.97888e-05
2.27762e-05
2.66625e-05
3.13866e-05
3.67874e-05
1.40478e-05
1.40478e-05
1.40478e-05
1.40478e-05
1.40478e-05
1.40478e-05
1.40478e-05
1.40478e-05
1.40478e-05
1.40478e-05
1.40478e-05
1.40478e-05
1.40478e-05
1.40478e-05
1.40478e-05
1.40478e-05
1.40478e-05
1.40478e-05
1.40478e-05
1.40478e-05
1.40478e-05
1.40479e-05
1.40479e-05
1.4048e-05
1.40482e-05
1.40484e-05
1.40489e-05
1.40496e-05
1.40509e-05
1.40531e-05
1.40568e-05
1.40633e-05
1.40744e-05
1.40937e-05
1.41271e-05
1.41851e-05
1.4286e-05
1.44604e-05
1.47596e-05
1.52651e-05
1.60966e-05
1.74109e-05
1.93793e-05
2.21417e-05
2.57563e-05
3.0175e-05
3.52599e-05
4.08254e-05
4.66862e-05
5.26616e-05
1.40478e-05
1.40478e-05
1.40478e-05
1.40478e-05
1.40478e-05
1.40478e-05
1.40478e-05
1.40478e-05
1.40478e-05
1.40478e-05
1.40478e-05
1.40478e-05
1.40478e-05
1.40478e-05
1.40478e-05
1.40478e-05
1.40478e-05
1.40479e-05
1.40479e-05
1.4048e-05
1.40481e-05
1.40482e-05
1.40485e-05
1.4049e-05
1.40499e-05
1.40513e-05
1.40537e-05
1.40577e-05
1.40646e-05
1.40763e-05
1.40963e-05
1.41305e-05
1.41891e-05
1.42896e-05
1.44611e-05
1.47516e-05
1.52364e-05
1.6026e-05
1.7265e-05
1.91133e-05
2.17073e-05
2.51133e-05
2.93012e-05
3.41531e-05
3.94979e-05
4.51512e-05
5.09439e-05
5.6734e-05
6.23925e-05
6.78223e-05
1.40478e-05
1.40478e-05
1.40478e-05
1.40478e-05
1.40478e-05
1.40478e-05
1.40478e-05
1.40478e-05
1.40478e-05
1.40478e-05
1.40478e-05
1.40478e-05
1.40478e-05
1.40478e-05
1.40479e-05
1.40479e-05
1.4048e-05
1.40481e-05
1.40483e-05
1.40487e-05
1.40493e-05
1.40503e-05
1.40519e-05
1.40546e-05
1.4059e-05
1.40666e-05
1.40792e-05
1.41006e-05
1.41366e-05
1.41975e-05
1.43005e-05
1.44738e-05
1.47636e-05
1.5241e-05
1.60094e-05
1.72033e-05
1.89718e-05
2.14447e-05
2.46904e-05
2.86907e-05
3.33456e-05
3.85016e-05
4.39871e-05
4.96391e-05
5.53173e-05
6.08967e-05
6.62663e-05
7.13431e-05
7.60448e-05
8.0294e-05
1.40478e-05
1.40478e-05
1.40478e-05
1.40478e-05
1.40478e-05
1.40478e-05
1.40478e-05
1.40478e-05
1.40478e-05
1.40478e-05
1.40479e-05
1.40479e-05
1.4048e-05
1.40481e-05
1.40482e-05
1.40485e-05
1.40489e-05
1.40496e-05
1.40508e-05
1.40527e-05
1.40558e-05
1.40609e-05
1.40694e-05
1.40835e-05
1.41069e-05
1.41459e-05
1.42109e-05
1.43194e-05
1.44995e-05
1.47963e-05
1.52787e-05
1.60447e-05
1.72204e-05
1.89448e-05
2.13388e-05
2.44686e-05
2.8322e-05
3.28116e-05
3.77994e-05
4.31273e-05
4.86424e-05
5.42105e-05
5.97169e-05
6.50537e-05
7.01312e-05
7.48747e-05
7.91992e-05
8.29996e-05
8.61733e-05
8.87151e-05
1.40478e-05
1.40478e-05
1.40478e-05
1.40478e-05
1.40478e-05
1.40478e-05
1.40478e-05
1.40479e-05
1.40479e-05
1.4048e-05
1.40482e-05
1.40484e-05
1.40487e-05
1.40492e-05
1.40501e-05
1.40515e-05
1.40538e-05
1.40575e-05
1.40635e-05
1.40733e-05
1.40894e-05
1.41158e-05
1.41592e-05
1.42306e-05
1.4348e-05
1.45402e-05
1.48522e-05
1.53518e-05
1.61334e-05
1.73161e-05
1.9029e-05
2.13827e-05
2.44373e-05
2.8182e-05
3.25378e-05
3.73792e-05
4.25613e-05
4.79416e-05
5.33937e-05
5.88106e-05
6.40943e-05
6.91553e-05
7.39211e-05
7.83222e-05
8.22685e-05
8.56587e-05
8.84214e-05
9.05557e-05
9.21199e-05
9.32452e-05
1.40478e-05
1.40478e-05
1.40478e-05
1.40479e-05
1.40479e-05
1.4048e-05
1.40481e-05
1.40483e-05
1.40486e-05
1.4049e-05
1.40497e-05
1.40508e-05
1.40526e-05
1.40554e-05
1.40599e-05
1.40671e-05
1.40788e-05
1.40977e-05
1.41283e-05
1.41779e-05
1.42584e-05
1.43888e-05
1.45992e-05
1.49357e-05
1.54657e-05
1.62812e-05
1.74954e-05
1.92273e-05
2.15759e-05
2.45926e-05
2.8264e-05
3.2516e-05
3.7233e-05
4.22824e-05
4.75325e-05
5.28655e-05
5.81812e-05
6.3392e-05
6.84125e-05
7.3171e-05
7.76058e-05
8.16456e-05
8.51986e-05
8.8181e-05
9.05537e-05
9.23465e-05
9.36382e-05
9.45381e-05
9.51465e-05
9.55651e-05
1.40479e-05
1.4048e-05
1.40481e-05
1.40482e-05
1.40485e-05
1.40489e-05
1.40495e-05
1.40504e-05
1.40518e-05
1.40541e-05
1.40577e-05
1.40633e-05
1.40723e-05
1.40865e-05
1.41093e-05
1.41457e-05
1.42039e-05
1.4297e-05
1.44458e-05
1.4682e-05
1.50535e-05
1.56287e-05
1.64979e-05
1.77682e-05
1.95484e-05
2.19246e-05
2.49369e-05
2.85667e-05
3.27423e-05
3.7356e-05
4.22859e-05
4.74119e-05
5.26253e-05
5.78326e-05
6.29547e-05
6.79142e-05
7.26405e-05
7.70754e-05
8.11607e-05
8.48202e-05
8.79687e-05
9.05476e-05
9.25523e-05
9.40378e-05
9.50904e-05
9.58133e-05
9.62964e-05
9.6618e-05
9.68327e-05
9.69763e-05
1.40482e-05
1.40485e-05
1.40488e-05
1.40493e-05
1.40501e-05
1.40514e-05
1.40533e-05
1.40563e-05
1.40609e-05
1.40682e-05
1.40796e-05
1.40975e-05
1.41257e-05
1.41701e-05
1.42402e-05
1.43507e-05
1.45246e-05
1.47962e-05
1.5216e-05
1.58536e-05
1.67979e-05
1.815e-05
2.0007e-05
2.24408e-05
2.54786e-05
2.90946e-05
3.32175e-05
3.77464e-05
4.25695e-05
4.75777e-05
5.26718e-05
5.7766e-05
6.27874e-05
6.76683e-05
7.23415e-05
7.67503e-05
8.08439e-05
8.45608e-05
8.78238e-05
9.05648e-05
9.27548e-05
9.44198e-05
9.56296e-05
9.64744e-05
9.70477e-05
9.74249e-05
9.76722e-05
9.78316e-05
9.79274e-05
9.79937e-05
9.80583e-05
1.405e-05
1.40512e-05
1.40529e-05
1.40555e-05
1.40596e-05
1.40658e-05
1.40754e-05
1.40903e-05
1.41133e-05
1.41491e-05
1.42047e-05
1.42912e-05
1.44257e-05
1.46337e-05
1.49531e-05
1.54375e-05
1.6158e-05
1.72017e-05
1.86622e-05
2.06238e-05
2.31426e-05
2.62313e-05
2.98565e-05
3.39462e-05
3.84057e-05
4.31326e-05
4.80285e-05
5.3004e-05
5.79812e-05
6.28935e-05
6.76813e-05
7.2283e-05
7.66438e-05
8.07168e-05
8.44518e-05
8.77828e-05
9.06401e-05
9.298e-05
9.48043e-05
9.61629e-05
9.71312e-05
9.7797e-05
9.8241e-05
9.85301e-05
9.87157e-05
9.88273e-05
9.88859e-05
9.89329e-05
9.89704e-05
9.89709e-05
9.89557e-05
1.40552e-05
1.40589e-05
1.40646e-05
1.40731e-05
1.40861e-05
1.4106e-05
1.41364e-05
1.41829e-05
1.42543e-05
1.43638e-05
1.45311e-05
1.47856e-05
1.51691e-05
1.57385e-05
1.65663e-05
1.77363e-05
1.93328e-05
2.14254e-05
2.40527e-05
2.72132e-05
3.0865e-05
3.4936e-05
3.93372e-05
4.39758e-05
4.87636e-05
5.3621e-05
5.84781e-05
6.32744e-05
6.79571e-05
7.24716e-05
7.67656e-05
8.07946e-05
8.45157e-05
8.78741e-05
9.08051e-05
9.32572e-05
9.52143e-05
9.67046e-05
9.77907e-05
9.85509e-05
9.90657e-05
9.94007e-05
9.96144e-05
9.97452e-05
9.9813e-05
9.98481e-05
9.98803e-05
9.98838e-05
9.98628e-05
9.98254e-05
9.97767e-05
9.97301e-05
1.40843e-05
1.41024e-05
1.41296e-05
1.41706e-05
1.42327e-05
1.43265e-05
1.44681e-05
1.46809e-05
1.49985e-05
1.54672e-05
1.61471e-05
1.71108e-05
1.84365e-05
2.01966e-05
2.24438e-05
2.51986e-05
2.84454e-05
3.21352e-05
3.61964e-05
4.05461e-05
4.51009e-05
4.97827e-05
5.45216e-05
5.92552e-05
6.39297e-05
6.84975e-05
7.29113e-05
7.71219e-05
8.10869e-05
8.47683e-05
8.8121e-05
9.10875e-05
9.36137e-05
9.56719e-05
9.72733e-05
9.84657e-05
9.93162e-05
9.98995e-05
0.000100286
0.000100531
0.000100682
0.000100762
0.000100794
0.000100812
0.000100819
0.000100799
0.000100757
0.000100702
0.000100638
0.000100575
0.000100519
0.000100471
1.42224e-05
1.43071e-05
1.4433e-05
1.462e-05
1.48957e-05
1.52989e-05
1.588e-05
1.67015e-05
1.78333e-05
1.93451e-05
2.12945e-05
2.37151e-05
2.66101e-05
2.99508e-05
3.36832e-05
3.77375e-05
4.20377e-05
4.65099e-05
5.10858e-05
5.57044e-05
6.03111e-05
6.4858e-05
6.93025e-05
7.36035e-05
7.77159e-05
8.15999e-05
8.52206e-05
8.85398e-05
9.15079e-05
9.40729e-05
9.62005e-05
9.78884e-05
9.91695e-05
0.000100101
0.00010075
0.000101187
0.000101466
0.000101636
0.000101731
0.000101769
0.000101775
0.000101774
0.000101757
0.000101714
0.000101653
0.00010158
0.000101505
0.00010143
0.000101361
0.000101298
0.000101241
0.000101192
1.48435e-05
1.52065e-05
1.57247e-05
1.64522e-05
1.74512e-05
1.87856e-05
2.05125e-05
2.26718e-05
2.52779e-05
2.83174e-05
3.17517e-05
3.55243e-05
3.95688e-05
4.38171e-05
4.82044e-05
5.2672e-05
5.71673e-05
6.16428e-05
6.60562e-05
7.03697e-05
7.45473e-05
7.85488e-05
8.23366e-05
8.58783e-05
8.9141e-05
9.20825e-05
9.46547e-05
9.682e-05
9.8567e-05
9.99171e-05
0.000100917
0.000101625
0.000102107
0.000102421
0.000102611
0.00010272
0.000102767
0.000102766
0.000102755
0.000102735
0.000102691
0.000102625
0.000102548
0.000102462
0.000102375
0.00010229
0.00010221
0.000102135
0.000102064
0.000102
0.000101941
0.000101889
1.72431e-05
1.84585e-05
2.00286e-05
2.19943e-05
2.43758e-05
2.71696e-05
3.03486e-05
3.3868e-05
3.76713e-05
4.16978e-05
4.58874e-05
5.01846e-05
5.45393e-05
5.89067e-05
6.32459e-05
6.75199e-05
7.16953e-05
7.57403e-05
7.96193e-05
8.32973e-05
8.67442e-05
8.99311e-05
9.28217e-05
9.53726e-05
9.75465e-05
9.93262e-05
0.000100724
0.000101775
0.000102532
0.000103054
0.000103399
0.000103609
0.000103729
0.000103786
0.000103784
0.000103763
0.000103735
0.00010369
0.000103621
0.000103538
0.000103445
0.000103346
0.000103247
0.000103152
0.000103062
0.000102976
0.000102894
0.000102817
0.000102744
0.000102677
0.000102615
0.00010256
2.38468e-05
2.64512e-05
2.94232e-05
3.27269e-05
3.63146e-05
4.01331e-05
4.41284e-05
4.82489e-05
5.24479e-05
5.66834e-05
6.09174e-05
6.51147e-05
6.92433e-05
7.32737e-05
7.71777e-05
8.09238e-05
8.44799e-05
8.78179e-05
9.09122e-05
9.37312e-05
9.62367e-05
9.83927e-05
0.000100179
0.000101601
0.000102686
0.000103479
0.000104034
0.000104404
0.000104632
0.000104762
0.000104826
0.000104825
0.000104799
0.000104759
0.000104709
0.000104638
0.000104549
0.000104451
0.000104342
0.000104232
0.000104123
0.000104019
0.000103917
0.00010382
0.000103727
0.000103639
0.000103554
0.000103474
0.000103398
0.000103326
0.000103261
0.000103201
3.54672e-05
3.90996e-05
4.29128e-05
4.68602e-05
5.08988e-05
5.49897e-05
5.90982e-05
6.31922e-05
6.72416e-05
7.12185e-05
7.5097e-05
7.88524e-05
8.24561e-05
8.58792e-05
8.9096e-05
9.20831e-05
9.48132e-05
9.72521e-05
9.93665e-05
0.000101135
0.000102559
0.00010366
0.000104474
0.000105051
0.00010544
0.000105683
0.000105822
0.000105888
0.000105891
0.00010586
0.000105809
0.000105749
0.000105677
0.000105583
0.000105477
0.000105362
0.000105241
0.00010512
0.000105002
0.000104887
0.000104776
0.000104668
0.000104564
0.000104464
0.000104368
0.000104275
0.000104187
0.000104103
0.000104023
0.000103947
0.000103877
0.000103812
5.38304e-05
5.78023e-05
6.17751e-05
6.57218e-05
6.96165e-05
7.34352e-05
7.71552e-05
8.07545e-05
8.42075e-05
8.74878e-05
9.05722e-05
9.34395e-05
9.60655e-05
9.84198e-05
0.000100472
0.000102201
0.000103606
0.000104703
0.000105524
0.000106112
0.000106513
0.000106764
0.000106908
0.000106977
0.00010698
0.000106945
0.000106885
0.000106813
0.000106735
0.000106636
0.000106523
0.000106402
0.000106273
0.000106141
0.00010601
0.000105882
0.000105757
0.000105636
0.000105518
0.000105404
0.000105293
0.000105185
0.000105081
0.000104981
0.000104884
0.000104791
0.000104702
0.000104618
0.000104537
0.000104462
0.000104391
6.84937e-05
7.2227e-05
7.58811e-05
7.94363e-05
8.28727e-05
8.61672e-05
8.92959e-05
9.2238e-05
9.49743e-05
9.7483e-05
9.97371e-05
0.000101709
0.00010338
0.000104746
0.000105822
0.000106635
0.000107222
0.000107624
0.000107878
0.000108024
0.000108091
0.000108091
0.000108054
0.000107987
0.000107902
0.000107813
0.000107713