/*--------------------------------*- C++ -*----------------------------------*\
| =========                 |                                                 |
| \\      /  F ield         | OpenFOAM: The Open Source CFD Toolbox           |
|  \\    /   O peration     | Version:  v1706                                 |
|   \\  /    A nd           | Web:      www.OpenFOAM.com                      |
|    \\/     M anipulation  |                                                 |
\*---------------------------------------------------------------------------*/
FoamFile
{
    version     2.0;
    format      ascii;
    class       volScalarField;
    location    "9e-06";
    object      kappatr;
}
// * * * * * * * * * * * * * * * * * * * * * * * * * * * * * * * * * * * * * //

dimensions      [1 1 -3 -1 0 0 0];


internalField   nonuniform List<scalar> 
30038
(
0.014593
0.014593
0.014593
0.014593
0.014593
0.014593
0.014593
0.014593
0.014593
0.014593
0.014593
0.014593
0.014593
0.014593
0.014593
0.014593
0.014593
0.014593
0.014593
0.014593
0.014593
0.014593
0.014593
0.014593
0.014593
0.014593
0.014593
0.014593
0.014593
0.014593
0.014593
0.014593
0.014593
0.014593
0.014593
0.014593
0.014593
0.014593
0.014593
0.014593
0.014593
0.014593
0.014593
0.014593
0.014593
0.014593
0.014593
0.014593
0.014593
0.014593
0.014593
0.014593
0.014593
0.014593
0.014593
0.014593
0.014593
0.014593
0.014593
0.014593
0.014593
0.014593
0.014593
0.014593
0.014593
0.014593
0.014593
0.014593
0.014593
0.014593
0.014593
0.014593
0.014593
0.014593
0.014593
0.014593
0.014593
0.014593
0.014593
0.014593
0.014593
0.014593
0.014593
0.014593
0.014593
0.014593
0.014593
0.014593
0.014593
0.014593
0.014593
0.014593
0.014593
0.014593
0.014593
0.014593
0.014593
0.014593
0.014593
0.014593
0.014593
0.014593
0.014593
0.014593
0.014593
0.014593
0.014593
0.014593
0.014593
0.014593
0.014593
0.014593
0.014593
0.014593
0.014593
0.014593
0.014593
0.014593
0.014593
0.014593
0.014593
0.014593
0.014593
0.014593
0.014593
0.014593
0.014593
0.014593
0.014593
0.014593
0.014593
0.014593
0.014593
0.014593
0.014593
0.014593
0.014593
0.014593
0.014593
0.014593
0.014593
0.014593
0.014593
0.014593
0.014593
0.014593
0.014593
0.014593
0.014593
0.014593
0.014593
0.014593
0.014593
0.014593
0.014593
0.014593
0.014593
0.014593
0.014593
0.014593
0.014593
0.014593
0.014593
0.014593
0.014593
0.014593
0.014593
0.014593
0.014593
0.014593
0.014593
0.014593
0.014593
0.014593
0.014593
0.014593
0.014593
0.014593
0.014593
0.014593
0.014593
0.014593
0.014593
0.014593
0.014593
0.014593
0.014593
0.014593
0.014593
0.014593
0.014593
0.014593
0.014593
0.014593
0.014593
0.014593
0.014593
0.014593
0.014593
0.014593
0.014593
0.014593
0.014593
0.014593
0.014593
0.014593
0.014593
0.014593
0.014593
0.014593
0.014593
0.014593
0.014593
0.014593
0.014593
0.014593
0.014593
0.014593
0.014593
0.014593
0.014593
0.014593
0.014593
0.014593
0.014593
0.014593
0.014593
0.014593
0.014593
0.014593
0.014593
0.014593
0.014593
0.014593
0.014593
0.014593
0.014593
0.014593
0.014593
0.014593
0.014593
0.014593
0.014593
0.014593
0.014593
0.014593
0.014593
0.014593
0.014593
0.014593
0.014593
0.014593
0.014593
0.014593
0.014593
0.014593
0.014593
0.014593
0.014593
0.014593
0.014593
0.014593
0.014593
0.014593
0.014593
0.014593
0.014593
0.014593
0.014593
0.014593
0.014593
0.014593
0.014593
0.014593
0.014593
0.014593
0.014593
0.014593
0.014593
0.014593
0.014593
0.014593
0.014593
0.014593
0.014593
0.014593
0.014593
0.014593
0.014593
0.014593
0.014593
0.014593
0.014593
0.014593
0.014593
0.014593
0.014593
0.014593
0.014593
0.014593
0.014593
0.014593
0.014593
0.014593
0.014593
0.014593
0.014593
0.014593
0.014593
0.014593
0.014593
0.014593
0.014593
0.014593
0.014593
0.014593
0.014593
0.014593
0.014593
0.014593
0.014593
0.014593
0.014593
0.014593
0.014593
0.014593
0.014593
0.014593
0.014593
0.014593
0.014593
0.014593
0.014593
0.014593
0.014593
0.014593
0.014593
0.014593
0.014593
0.014593
0.014593
0.014593
0.014593
0.014593
0.014593
0.014593
0.014593
0.014593
0.014593
0.014593
0.014593
0.014593
0.014593
0.014593
0.014593
0.014593
0.014593
0.014593
0.014593
0.014593
0.014593
0.014593
0.014593
0.014593
0.014593
0.014593
0.014593
0.014593
0.014593
0.014593
0.014593
0.014593
0.014593
0.014593
0.014593
0.014593
0.014593
0.014593
0.014593
0.014593
0.014593
0.014593
0.014593
0.014593
0.014593
0.014593
0.014593
0.014593
0.014593
0.014593
0.014593
0.014593
0.014593
0.014593
0.014593
0.014593
0.014593
0.014593
0.014593
0.014593
0.014593
0.014593
0.014593
0.014593
0.014593
0.014593
0.014593
0.014593
0.014593
0.014593
0.014593
0.014593
0.014593
0.014593
0.014593
0.014593
0.014593
0.014593
0.014593
0.014593
0.014593
0.014593
0.014593
0.014593
0.014593
0.014593
0.014593
0.014593
0.014593
0.014593
0.014593
0.014593
0.014593
0.014593
0.014593
0.014593
0.014593
0.014593
0.014593
0.014593
0.014593
0.014593
0.014593
0.014593
0.014593
0.014593
0.014593
0.014593
0.014593
0.014593
0.014593
0.014593
0.014593
0.014593
0.014593
0.014593
0.014593
0.014593
0.014593
0.014593
0.014593
0.014593
0.014593
0.014593
0.014593
0.014593
0.014593
0.014593
0.014593
0.014593
0.014593
0.014593
0.014593
0.014593
0.014593
0.014593
0.014593
0.014593
0.014593
0.014593
0.014593
0.014593
0.014593
0.014593
0.014593
0.014593
0.014593
0.014593
0.014593
0.014593
0.014593
0.014593
0.014593
0.014593
0.014593
0.014593
0.014593
0.014593
0.014593
0.014593
0.014593
0.014593
0.014593
0.014593
0.014593
0.014593
0.014593
0.014593
0.014593
0.014593
0.014593
0.014593
0.014593
0.014593
0.014593
0.014593
0.014593
0.014593
0.014593
0.014593
0.014593
0.014593
0.014593
0.014593
0.014593
0.014593
0.014593
0.014593
0.014593
0.014593
0.014593
0.014593
0.014593
0.014593
0.014593
0.014593
0.014593
0.014593
0.014593
0.014593
0.014593
0.014593
0.014593
0.014593
0.014593
0.014593
0.014593
0.014593
0.014593
0.014593
0.014593
0.014593
0.014593
0.014593
0.014593
0.014593
0.014593
0.014593
0.014593
0.014593
0.014593
0.014593
0.014593
0.014593
0.014593
0.014593
0.014593
0.014593
0.014593
0.014593
0.014593
0.014593
0.014593
0.014593
0.014593
0.014593
0.014593
0.014593
0.014593
0.014593
0.014593
0.014593
0.014593
0.014593
0.014593
0.014593
0.014593
0.014593
0.014593
0.014593
0.014593
0.014593
0.014593
0.014593
0.014593
0.014593
0.014593
0.014593
0.014593
0.014593
0.014593
0.014593
0.014593
0.014593
0.014593
0.014593
0.014593
0.014593
0.014593
0.014593
0.014593
0.014593
0.014593
0.014593
0.014593
0.014593
0.014593
0.014593
0.014593
0.014593
0.014593
0.014593
0.014593
0.014593
0.014593
0.014593
0.014593
0.014593
0.014593
0.014593
0.014593
0.014593
0.014593
0.014593
0.014593
0.014593
0.014593
0.014593
0.014593
0.014593
0.014593
0.014593
0.014593
0.014593
0.014593
0.014593
0.014593
0.014593
0.014593
0.014593
0.014593
0.014593
0.014593
0.014593
0.014593
0.014593
0.014593
0.014593
0.014593
0.014593
0.014593
0.014593
0.014593
0.014593
0.014593
0.014593
0.014593
0.014593
0.014593
0.014593
0.014593
0.014593
0.014593
0.014593
0.014593
0.014593
0.014593
0.014593
0.014593
0.014593
0.014593
0.014593
0.014593
0.014593
0.014593
0.014593
0.014593
0.014593
0.014593
0.014593
0.014593
0.014593
0.014593
0.014593
0.014593
0.014593
0.014593
0.014593
0.014593
0.014593
0.014593
0.014593
0.014593
0.014593
0.014593
0.014593
0.014593
0.014593
0.014593
0.014593
0.014593
0.014593
0.014593
0.014593
0.014593
0.014593
0.014593
0.014593
0.014593
0.014593
0.014593
0.014593
0.014593
0.014593
0.014593
0.014593
0.014593
0.014593
0.014593
0.014593
0.014593
0.014593
0.014593
0.014593
0.014593
0.014593
0.014593
0.014593
0.014593
0.014593
0.014593
0.014593
0.014593
0.014593
0.014593
0.014593
0.014593
0.014593
0.014593
0.014593
0.014593
0.014593
0.014593
0.014593
0.014593
0.014593
0.014593
0.014593
0.014593
0.014593
0.014593
0.014593
0.014593
0.014593
0.014593
0.014593
0.014593
0.014593
0.014593
0.014593
0.014593
0.014593
0.014593
0.014593
0.014593
0.014593
0.014593
0.014593
0.014593
0.014593
0.014593
0.014593
0.014593
0.014593
0.014593
0.014593
0.014593
0.014593
0.014593
0.014593
0.014593
0.014593
0.014593
0.014593
0.014593
0.014593
0.014593
0.014593
0.014593
0.014593
0.014593
0.014593
0.014593
0.014593
0.014593
0.014593
0.014593
0.014593
0.014593
0.014593
0.014593
0.014593
0.014593
0.014593
0.014593
0.014593
0.014593
0.014593
0.014593
0.014593
0.014593
0.014593
0.014593
0.014593
0.014593
0.014593
0.014593
0.014593
0.014593
0.014593
0.014593
0.014593
0.014593
0.014593
0.014593
0.014593
0.014593
0.014593
0.014593
0.014593
0.014593
0.014593
0.014593
0.014593
0.014593
0.014593
0.014593
0.014593
0.014593
0.014593
0.014593
0.014593
0.014593
0.014593
0.014593
0.014593
0.014593
0.014593
0.014593
0.014593
0.014593
0.014593
0.014593
0.014593
0.014593
0.014593
0.014593
0.014593
0.014593
0.014593
0.014593
0.014593
0.014593
0.014593
0.014593
0.014593
0.014593
0.014593
0.014593
0.014593
0.014593
0.014593
0.014593
0.014593
0.014593
0.014593
0.014593
0.014593
0.014593
0.014593
0.014593
0.014593
0.014593
0.014593
0.014593
0.014593
0.014593
0.014593
0.014593
0.014593
0.014593
0.014593
0.014593
0.014593
0.014593
0.014593
0.014593
0.014593
0.014593
0.014593
0.014593
0.014593
0.014593
0.014593
0.014593
0.014593
0.014593
0.014593
0.014593
0.014593
0.014593
0.014593
0.014593
0.014593
0.014593
0.014593
0.014593
0.014593
0.014593
0.014593
0.014593
0.014593
0.014593
0.014593
0.014593
0.014593
0.014593
0.014593
0.014593
0.014593
0.014593
0.014593
0.014593
0.014593
0.014593
0.014593
0.014593
0.014593
0.014593
0.014593
0.014593
0.014593
0.014593
0.014593
0.014593
0.014593
0.014593
0.014593
0.014593
0.014593
0.014593
0.014593
0.014593
0.014593
0.014593
0.014593
0.014593
0.014593
0.014593
0.014593
0.014593
0.014593
0.014593
0.014593
0.014593
0.014593
0.014593
0.014593
0.014593
0.014593
0.014593
0.014593
0.014593
0.014593
0.014593
0.014593
0.014593
0.014593
0.014593
0.014593
0.014593
0.014593
0.014593
0.014593
0.014593
0.014593
0.014593
0.014593
0.014593
0.014593
0.014593
0.014593
0.014593
0.014593
0.014593
0.014593
0.014593
0.014593
0.014593
0.014593
0.014593
0.014593
0.014593
0.014593
0.014593
0.014593
0.014593
0.014593
0.014593
0.014593
0.014593
0.014593
0.014593
0.014593
0.014593
0.014593
0.014593
0.014593
0.014593
0.014593
0.014593
0.014593
0.014593
0.014593
0.014593
0.014593
0.014593
0.014593
0.014593
0.014593
0.014593
0.014593
0.014593
0.014593
0.014593
0.014593
0.014593
0.014593
0.014593
0.014593
0.014593
0.014593
0.014593
0.014593
0.014593
0.014593
0.014593
0.014593
0.014593
0.014593
0.014593
0.014593
0.014593
0.014593
0.014593
0.014593
0.014593
0.014593
0.014593
0.014593
0.014593
0.014593
0.014593
0.014593
0.014593
0.014593
0.014593
0.014593
0.014593
0.014593
0.014593
0.014593
0.014593
0.014593
0.014593
0.014593
0.014593
0.014593
0.014593
0.014593
0.014593
0.014593
0.014593
0.014593
0.014593
0.014593
0.014593
0.014593
0.014593
0.014593
0.014593
0.014593
0.014593
0.014593
0.014593
0.014593
0.014593
0.014593
0.014593
0.014593
0.014593
0.014593
0.014593
0.014593
0.014593
0.014593
0.014593
0.014593
0.014593
0.014593
0.014593
0.014593
0.014593
0.014593
0.014593
0.014593
0.014593
0.014593
0.014593
0.014593
0.014593
0.014593
0.014593
0.014593
0.014593
0.014593
0.014593
0.014593
0.014593
0.014593
0.0145931
0.0145931
0.014593
0.014593
0.014593
0.014593
0.014593
0.014593
0.014593
0.014593
0.014593
0.014593
0.014593
0.014593
0.014593
0.014593
0.014593
0.014593
0.014593
0.014593
0.014593
0.014593
0.014593
0.014593
0.014593
0.014593
0.014593
0.014593
0.014593
0.014593
0.014593
0.014593
0.014593
0.014593
0.014593
0.014593
0.014593
0.014593
0.014593
0.014593
0.014593
0.014593
0.014593
0.014593
0.014593
0.014593
0.014593
0.014593
0.0145931
0.0145932
0.0145933
0.0145936
0.014593
0.014593
0.014593
0.014593
0.014593
0.014593
0.014593
0.014593
0.014593
0.014593
0.014593
0.014593
0.014593
0.014593
0.014593
0.014593
0.014593
0.014593
0.014593
0.014593
0.014593
0.014593
0.014593
0.014593
0.014593
0.014593
0.014593
0.014593
0.014593
0.014593
0.014593
0.014593
0.014593
0.014593
0.014593
0.014593
0.014593
0.014593
0.014593
0.014593
0.014593
0.014593
0.014593
0.0145931
0.0145931
0.0145933
0.0145935
0.0145939
0.0145947
0.0145964
0.014593
0.014593
0.014593
0.014593
0.014593
0.014593
0.014593
0.014593
0.014593
0.014593
0.014593
0.014593
0.014593
0.014593
0.014593
0.014593
0.014593
0.014593
0.014593
0.014593
0.014593
0.014593
0.014593
0.014593
0.014593
0.014593
0.014593
0.014593
0.014593
0.014593
0.014593
0.014593
0.014593
0.014593
0.014593
0.014593
0.014593
0.014593
0.014593
0.014593
0.0145931
0.0145931
0.0145933
0.0145935
0.0145939
0.0145946
0.0145959
0.0145983
0.014603
0.0146125
0.014593
0.014593
0.014593
0.014593
0.014593
0.014593
0.014593
0.014593
0.014593
0.014593
0.014593
0.014593
0.014593
0.014593
0.014593
0.014593
0.014593
0.014593
0.014593
0.014593
0.014593
0.014593
0.014593
0.014593
0.014593
0.014593
0.014593
0.014593
0.014593
0.014593
0.014593
0.014593
0.014593
0.014593
0.014593
0.014593
0.0145931
0.0145931
0.0145931
0.0145933
0.0145935
0.0145938
0.0145945
0.0145957
0.0145979
0.014602
0.0146096
0.0146237
0.0146503
0.0147031
0.014593
0.014593
0.014593
0.014593
0.014593
0.014593
0.014593
0.014593
0.014593
0.014593
0.014593
0.014593
0.014593
0.014593
0.014593
0.014593
0.014593
0.014593
0.014593
0.014593
0.014593
0.014593
0.014593
0.014593
0.014593
0.014593
0.014593
0.014593
0.014593
0.014593
0.014593
0.014593
0.014593
0.0145931
0.0145931
0.0145932
0.0145933
0.0145935
0.0145938
0.0145945
0.0145956
0.0145977
0.0146016
0.0146085
0.0146212
0.0146443
0.0146869
0.0147652
0.0149104
0.0151879
0.014593
0.014593
0.014593
0.014593
0.014593
0.014593
0.014593
0.014593
0.014593
0.014593
0.014593
0.014593
0.014593
0.014593
0.014593
0.014593
0.014593
0.014593
0.014593
0.014593
0.014593
0.014593
0.014593
0.014593
0.014593
0.014593
0.014593
0.014593
0.014593
0.014593
0.0145931
0.0145931
0.0145932
0.0145933
0.0145935
0.0145939
0.0145945
0.0145957
0.0145977
0.0146014
0.014608
0.0146198
0.0146411
0.0146797
0.0147495
0.0148756
0.0151026
0.0155068
0.0162153
0.0174352
0.014593
0.014593
0.014593
0.014593
0.014593
0.014593
0.014593
0.014593
0.014593
0.014593
0.014593
0.014593
0.014593
0.014593
0.014593
0.014593
0.014593
0.014593
0.014593
0.014593
0.014593
0.014593
0.014593
0.014593
0.014593
0.014593
0.014593
0.0145931
0.0145931
0.0145932
0.0145933
0.0145935
0.0145939
0.0145946
0.0145958
0.0145978
0.0146014
0.0146079
0.0146193
0.0146395
0.0146757
0.0147402
0.0148552
0.0150594
0.0154182
0.0160368
0.01707
0.0187167
0.0211889
0.0246533
0.014593
0.014593
0.014593
0.014593
0.014593
0.014593
0.014593
0.014593
0.014593
0.014593
0.014593
0.014593
0.014593
0.014593
0.014593
0.014593
0.014593
0.014593
0.014593
0.014593
0.014593
0.014593
0.014593
0.014593
0.0145931
0.0145931
0.0145932
0.0145933
0.0145936
0.014594
0.0145947
0.0145959
0.0145981
0.0146018
0.0146082
0.0146195
0.0146394
0.0146743
0.0147358
0.0148439
0.0150335
0.0153628
0.0159249
0.0168573
0.0183381
0.0205568
0.0236601
0.0276973
0.0326048
0.0382153
0.014593
0.014593
0.014593
0.014593
0.014593
0.014593
0.014593
0.014593
0.014593
0.014593
0.014593
0.014593
0.014593
0.014593
0.014593
0.014593
0.014593
0.014593
0.014593
0.014593
0.0145931
0.0145931
0.0145931
0.0145932
0.0145934
0.0145937
0.0145941
0.0145949
0.0145962
0.0145985
0.0146024
0.0146091
0.0146206
0.0146406
0.0146754
0.0147357
0.0148404
0.0150216
0.0153325
0.0158575
0.0167213
0.0180867
0.0201315
0.0230011
0.026756
0.0313462
0.0366284
0.04241
0.0484983
0.0547057
0.014593
0.014593
0.014593
0.014593
0.014593
0.014593
0.014593
0.014593
0.014593
0.014593
0.014593
0.014593
0.014593
0.014593
0.014593
0.014593
0.014593
0.0145931
0.0145931
0.0145932
0.0145933
0.0145935
0.0145938
0.0145943
0.0145952
0.0145967
0.0145991
0.0146033
0.0146105
0.0146226
0.0146434
0.0146789
0.0147398
0.0148442
0.0150223
0.0153241
0.0158278
0.016648
0.017935
0.0198551
0.0225499
0.026088
0.0304384
0.0354787
0.041031
0.0469037
0.0529213
0.0589362
0.0648144
0.0704551
0.014593
0.014593
0.014593
0.014593
0.014593
0.014593
0.014593
0.014593
0.014593
0.014593
0.014593
0.014593
0.014593
0.0145931
0.0145931
0.0145931
0.0145932
0.0145934
0.0145936
0.014594
0.0145946
0.0145956
0.0145973
0.0146
0.0146047
0.0146125
0.0146257
0.0146478
0.0146853
0.0147485
0.0148555
0.0150356
0.0153366
0.0158326
0.0166308
0.0178709
0.0197081
0.022277
0.0256487
0.0298043
0.0346398
0.039996
0.0456944
0.0515658
0.0574645
0.0632605
0.0688387
0.0741127
0.078997
0.0834113
0.014593
0.014593
0.014593
0.014593
0.014593
0.014593
0.014593
0.014593
0.014593
0.0145931
0.0145931
0.0145931
0.0145932
0.0145933
0.0145935
0.0145937
0.0145942
0.0145949
0.0145961
0.0145981
0.0146013
0.0146066
0.0146154
0.0146301
0.0146544
0.0146949
0.0147625
0.0148751
0.0150622
0.0153706
0.0158717
0.0166674
0.0178887
0.0196801
0.022167
0.0254183
0.0294213
0.0340851
0.0392665
0.0448013
0.0505304
0.0563148
0.062035
0.067579
0.0728537
0.0777814
0.0822739
0.0862221
0.0895191
0.0921599
0.014593
0.014593
0.014593
0.014593
0.014593
0.014593
0.0145931
0.0145931
0.0145932
0.0145932
0.0145934
0.0145936
0.014594
0.0145945
0.0145954
0.0145969
0.0145993
0.0146031
0.0146093
0.0146195
0.0146362
0.0146637
0.0147087
0.0147829
0.0149049
0.0151045
0.0154287
0.0159476
0.0167596
0.0179882
0.0197676
0.0222126
0.0253858
0.0292758
0.0338007
0.03883
0.0442132
0.0498025
0.0554662
0.0610935
0.0665824
0.0718399
0.0767908
0.0813629
0.0854625
0.0889846
0.0918548
0.0940722
0.0956973
0.0968667
0.014593
0.014593
0.0145931
0.0145931
0.0145931
0.0145932
0.0145933
0.0145935
0.0145938
0.0145943
0.014595
0.0145961
0.014598
0.0146009
0.0146056
0.0146131
0.0146252
0.0146449
0.0146766
0.0147282
0.0148118
0.0149473
0.0151658
0.0155153
0.0160659
0.0169131
0.0181744
0.0199735
0.0224133
0.0255471
0.029361
0.033778
0.0386782
0.0439235
0.0493774
0.0549175
0.0604397
0.0658528
0.0710683
0.0760116
0.0806187
0.0848155
0.0885066
0.091605
0.0940701
0.0959327
0.0972749
0.0982101
0.0988424
0.0992777
0.0145931
0.0145932
0.0145933
0.0145935
0.0145937
0.0145941
0.0145947
0.0145957
0.0145972
0.0145995
0.0146033
0.0146091
0.0146184
0.0146333
0.0146569
0.0146947
0.0147552
0.0148519
0.0150064
0.0152518
0.0156378
0.0162353
0.0171382
0.0184578
0.0203071
0.0227755
0.0259047
0.0296755
0.0340131
0.0388059
0.0439272
0.0492522
0.054668
0.0600775
0.0653985
0.0705506
0.0754605
0.0800677
0.0843118
0.0881136
0.0913845
0.0940638
0.0961466
0.09769
0.0987838
0.0995351
0.100037
0.100372
0.100595
0.100745
0.0145935
0.0145937
0.014594
0.0145946
0.0145954
0.0145967
0.0145987
0.0146018
0.0146067
0.0146142
0.0146261
0.0146447
0.0146739
0.0147201
0.0147929
0.0149077
0.0150883
0.0153704
0.0158065
0.0164689
0.0174499
0.0188544
0.0207835
0.0233118
0.0264674
0.0302239
0.0345068
0.0392115
0.0442218
0.0494245
0.0547164
0.0600083
0.0652247
0.0702952
0.0751499
0.07973
0.0839827
0.0878441
0.091234
0.0940816
0.0963569
0.0980869
0.099344
0.100222
0.100818
0.10121
0.101467
0.101633
0.101733
0.101803
0.10187
0.0145953
0.0145965
0.0145983
0.014601
0.0146053
0.0146117
0.0146217
0.0146371
0.0146611
0.0146982
0.014756
0.0148459
0.0149856
0.0152017
0.0155335
0.0160366
0.0167852
0.0178694
0.0193865
0.0214243
0.0240408
0.0272494
0.0310153
0.0352638
0.0398963
0.0448067
0.0498928
0.0550615
0.0602319
0.0653349
0.0703087
0.0750892
0.0796194
0.0838507
0.0877309
0.0911914
0.0941599
0.0965909
0.0984864
0.099898
0.100904
0.101596
0.102058
0.102359
0.102552
0.102668
0.10273
0.102779
0.102818
0.102819
0.102804
0.0146007
0.0146046
0.0146104
0.0146193
0.0146328
0.0146535
0.014685
0.0147334
0.0148076
0.0149213
0.0150951
0.0153595
0.0157578
0.0163493
0.0172093
0.0184247
0.0200832
0.022257
0.0249863
0.0282694
0.032063
0.036292
0.0408641
0.0456827
0.0506564
0.0557024
0.0607481
0.0657307
0.0705952
0.0752852
0.079746
0.0839316
0.0877973
0.0912864
0.0943314
0.0968789
0.0989123
0.100461
0.101589
0.102379
0.102915
0.103263
0.103485
0.103622
0.103693
0.10373
0.103764
0.103768
0.103746
0.103708
0.103658
0.10361
0.0146309
0.0146497
0.014678
0.0147206
0.0147851
0.0148826
0.0150296
0.0152507
0.0155806
0.0160675
0.0167738
0.0177749
0.019152
0.0209805
0.0233149
0.0261767
0.0295494
0.0333825
0.0376013
0.0421199
0.0468515
0.0517151
0.056638
0.0615555
0.0664115
0.0711567
0.075742
0.0801161
0.0842352
0.0880598
0.0915428
0.0946248
0.0972494
0.0993878
0.101052
0.102291
0.103175
0.103781
0.104182
0.104438
0.104595
0.104679
0.104713
0.104731
0.104739
0.104719
0.104676
0.104619
0.104553
0.104489
0.104431
0.104382
0.0147744
0.0148624
0.0149932
0.0151874
0.0154739
0.0158927
0.0164963
0.0173497
0.0185254
0.0200959
0.0221209
0.0246356
0.0276429
0.0311132
0.0349905
0.0392022
0.0436694
0.0483152
0.0530688
0.0578667
0.0626523
0.0673758
0.071993
0.076461
0.0807333
0.0847682
0.0885297
0.091978
0.0950617
0.0977265
0.099937
0.101691
0.103022
0.10399
0.104665
0.105119
0.105409
0.105586
0.105686
0.105726
0.105732
0.105731
0.105715
0.10567
0.105607
0.105532
0.105454
0.105377
0.105307
0.105242
0.105183
0.105133
0.0154196
0.0157967
0.016335
0.0170908
0.0181285
0.0195147
0.0213087
0.0235517
0.026259
0.0294165
0.0329841
0.0369031
0.0411047
0.0455179
0.0500755
0.0547166
0.0593865
0.0640358
0.0686206
0.0731017
0.0774417
0.0815986
0.0855336
0.089213
0.0926027
0.0956586
0.098331
0.100581
0.102396
0.103799
0.104838
0.105574
0.106075
0.106401
0.106599
0.106713
0.106762
0.106762
0.10675
0.106731
0.106686
0.106618
0.106538
0.106449
0.106359
0.106271
0.10619
0.106112
0.10604
0.105973
0.105913
0.10586
0.0179123
0.0191749
0.020806
0.022848
0.0253219
0.0282241
0.0315265
0.0351825
0.0391335
0.0433163
0.0476686
0.0521326
0.0566564
0.0611935
0.0657012
0.0701412
0.0744788
0.0786811
0.0827108
0.0865318
0.0901127
0.0934236
0.0964267
0.099077
0.101336
0.103185
0.104637
0.105729
0.106516
0.107059
0.107418
0.107636
0.107761
0.107821
0.107819
0.107798
0.107769
0.107724
0.107653
0.107567
0.107471
0.107368
0.107266
0.107169
0.107076
0.106986
0.106902
0.106823
0.106748
0.106679
0.106615
0.106559
0.0247724
0.0274779
0.0305653
0.0339971
0.0377241
0.0416909
0.0458413
0.0501218
0.0544839
0.0588838
0.0632822
0.0676426
0.0719316
0.0761186
0.0801744
0.0840661
0.0877604
0.0912283
0.0944429
0.0973717
0.0999747
0.102215
0.104071
0.105548
0.106676
0.1075
0.108077
0.108462
0.108699
0.108835
0.108901
0.108901
0.108874
0.108834
0.108782
0.108709
0.108618
0.108516
0.108404
0.10829
0.108177
0.10807
0.107965
0.107865
0.107769
0.107677
0.10759
0.107508
0.107429
0.107356
0.107289
0.107228
0.0368438
0.0406173
0.0445785
0.0486792
0.0528746
0.0571244
0.0613924
0.0656454
0.0698522
0.0739836
0.0780129
0.0819141
0.085658
0.0892142
0.0925561
0.0956595
0.0984959
0.10103
0.103227
0.105064
0.106544
0.107688
0.108534
0.109134
0.109539
0.109792
0.109936
0.110005
0.110009
0.109977
0.109924
0.109863
0.109788
0.109691
0.109582
0.109463
0.109338
0.109213
0.109091
0.108973
0.108857
0.108746
0.108639
0.108536
0.108436
0.108341
0.10825
0.108163
0.108081
0.108003
0.107931
0.107865
0.0559201
0.0600463
0.0641733
0.0682733
0.0723194
0.0762865
0.0801511
0.0838902
0.0874775
0.0908855
0.0940899
0.0970688
0.0997971
0.102243
0.104375
0.106172
0.107632
0.108772
0.109625
0.110237
0.110653
0.110915
0.111065
0.111136
0.11114
0.111105
0.111043
0.110969
0.110888
0.110786
0.110669
0.110544
0.110411
0.110274
0.110139
0.110007
0.109878
0.109752
0.10963
0.109512
0.109398
0.109287
0.109179
0.109076
0.108976
0.108881
0.108789
0.108702
0.108619
0.108541
0.108469
0.071153
0.0750314
0.0788276
0.0825209
0.0860909
0.0895136
0.092764
0.0958206
0.0986634
0.10127
0.103612
0.105661
0.107397
0.108817
0.109935
0.110779
0.11139
0.111808
0.112072
0.112225
0.112295
0.112295
0.112258
0.112188
0.1121
0.112009
0.111905
0.11178
0.111647
0.111505
0.111357
0.11121
0.111066
0.110924
0.110785
0.110649
0.110517
0.110388
0.110262
0.11014
0.110021
0.109906
0.109794
0.109685
0.109581
0.10948
0.109383
0.109291
0.109202
0.109118
0.109039
0.0851078
0.0885021
0.0917526
0.0948372
0.0977367
0.100433
0.102906
0.10513
0.107079
0.108737
0.110099
0.111178
0.111999
0.112595
0.113006
0.113267
0.113417
0.113481
0.113477
0.113436
0.113356
0.113257
0.113154
0.113042
0.11291
0.112768
0.112621
0.112464
0.112306
0.112149
0.111994
0.111842
0.111693
0.111548
0.111405
0.111266
0.111129
0.110996
0.110865
0.110738
0.110615
0.110494
0.110377
0.110264
0.110154
0.110047
0.109945
0.109846
0.10975
0.109659
0.109572
0.0998238
0.102365
0.104694
0.106788
0.108624
0.110188
0.111477
0.112501
0.113284
0.113855
0.114249
0.114499
0.11464
0.114696
0.114685
0.114637
0.114549
0.114439
0.114323
0.1142
0.114064
0.113912
0.113755
0.113591
0.113421
0.113253
0.113087
0.112924
0.112762
0.112603
0.112447
0.112294
0.112145
0.111998
0.111854
0.111713
0.111574
0.111439
0.111307
0.111178
0.111052
0.11093
0.11081
0.110694
0.110581
0.110472
0.110366
0.110263
0.110164
0.110068
0.108573
0.110285
0.111743
0.112945
0.113901
0.114634
0.115169
0.115536
0.115769
0.115896
0.115939
0.11592
0.115861
0.115765
0.115643
0.115514
0.11538
0.115236
0.115075
0.114909
0.114738
0.114559
0.114379
0.114201
0.114026
0.113852
0.113681
0.113513
0.113348
0.113185
0.113025
0.112868
0.112714
0.112562
0.112413
0.112267
0.112123
0.111983
0.111845
0.11171
0.111578
0.11145
0.111324
0.111201
0.111081
0.110964
0.11085
0.110738
0.11063
0.110525
0.114494
0.115373
0.116045
0.116535
0.116866
0.117075
0.117183
0.117209
0.117179
0.117109
0.117002
0.116868
0.116728
0.116582
0.116427
0.116259
0.116082
0.115902
0.115715
0.115524
0.115336
0.115149
0.114964
0.114781
0.114601
0.114423
0.114248
0.114076
0.113907
0.11374
0.113575
0.113413
0.113253
0.113096
0.112942
0.11279
0.112641
0.112494
0.112351
0.11221
0.112071
0.111936
0.111802
0.111672
0.111544
0.111419
0.111296
0.111175
0.111057
0.110942
0.117945
0.118237
0.118416
0.118501
0.118505
0.118463
0.118379
0.118259
0.118114
0.117962
0.117803
0.117636
0.117462
0.117274
0.117083
0.116889
0.116688
0.116489
0.116291
0.116095
0.115901
0.115709
0.115521
0.115334
0.115149
0.114968
0.114788
0.114611
0.114437
0.114264
0.114095
0.113927
0.113762
0.1136
0.113439
0.113282
0.113127
0.112974
0.112823
0.112675
0.11253
0.112387
0.112246
0.112107
0.11197
0.111836
0.111703
0.111572
0.111443
0.111316
0.119843
0.119827
0.119769
0.119669
0.119535
0.119378
0.119213
0.119042
0.118864
0.118681
0.118484
0.118282
0.118079
0.11787
0.117659
0.117451
0.117245
0.117039
0.116837
0.116637
0.116438
0.116243
0.11605
0.115859
0.11567
0.115483
0.115299
0.115117
0.114937
0.11476
0.114584
0.114411
0.11424
0.114072
0.113905
0.113741
0.113579
0.11342
0.113262
0.113107
0.112953
0.112802
0.112652
0.112504
0.112358
0.112213
0.11207
0.111928
0.111788
0.111649
0.120976
0.120827
0.120659
0.120481
0.120298
0.120108
0.119913
0.119708
0.119497
0.119285
0.119067
0.118846
0.118628
0.118411
0.118195
0.117982
0.117771
0.117562
0.117355
0.117151
0.116949
0.116749
0.116551
0.116355
0.116161
0.115969
0.11578
0.115593
0.115407
0.115224
0.115043
0.114864
0.114687
0.114512
0.114339
0.114168
0.113999
0.113831
0.113666
0.113502
0.11334
0.113179
0.11302
0.112863
0.112706
0.11255
0.112396
0.112242
0.11209
0.111938
0.121763
0.121568
0.121366
0.12116
0.120947
0.120726
0.120503
0.120277
0.120047
0.119819
0.119593
0.119367
0.119143
0.118922
0.118702
0.118485
0.11827
0.118057
0.117846
0.117637
0.11743
0.117226
0.117023
0.116822
0.116623
0.116426
0.116231
0.116038
0.115846
0.115657
0.11547
0.115284
0.115101
0.114919
0.114738
0.11456
0.114383
0.114207
0.114033
0.113861
0.113689
0.113519
0.11335
0.113181
0.113014
0.112847
0.11268
0.112514
0.112349
0.112183
0.122197
0.121967
0.121735
0.1215
0.121262
0.121023
0.120788
0.120553
0.120319
0.120088
0.119859
0.119631
0.119406
0.119182
0.118961
0.118742
0.118524
0.118308
0.118095
0.117883
0.117673
0.117465
0.117259
0.117054
0.116852
0.116651
0.116451
0.116254
0.116058
0.115864
0.115672
0.115481
0.115291
0.115103
0.114917
0.114731
0.114547
0.114364
0.114182
0.114
0.113819
0.113639
0.11346
0.11328
0.113101
0.112922
0.112743
0.112564
0.112384
0.122734
0.122487
0.12224
0.121995
0.121751
0.121507
0.121267
0.121028
0.120791
0.120556
0.120323
0.120091
0.119862
0.119634
0.119408
0.119184
0.118962
0.118742
0.118523
0.118306
0.118091
0.117877
0.117665
0.117455
0.117246
0.117039
0.116833
0.116629
0.116427
0.116225
0.116025
0.115827
0.115629
0.115433
0.115237
0.115043
0.114849
0.114656
0.114464
0.114272
0.11408
0.113888
0.113697
0.113505
0.113313
0.11312
0.112928
0.112734
0.11254
0.123212
0.12296
0.122707
0.122457
0.12221
0.121963
0.121719
0.121476
0.121235
0.120996
0.120759
0.120523
0.120289
0.120057
0.119827
0.119598
0.119371
0.119145
0.118921
0.118699
0.118478
0.118258
0.11804
0.117824
0.117609
0.117395
0.117183
0.116971
0.116761
0.116552
0.116344
0.116138
0.115931
0.115726
0.115521
0.115317
0.115113
0.11491
0.114706
0.114503
0.1143
0.114096
0.113892
0.113687
0.113482
0.113276
0.113069
0.112861
0.112651
0.123402
0.123146
0.122893
0.122642
0.122391
0.122143
0.121897
0.121652
0.121408
0.121167
0.120927
0.120688
0.120451
0.120216
0.119982
0.119749
0.119518
0.119289
0.119061
0.118834
0.118608
0.118384
0.118161
0.117939
0.117718
0.117498
0.117279
0.117061
0.116844
0.116628
0.116412
0.116197
0.115982
0.115767
0.115553
0.115339
0.115124
0.114909
0.114694
0.114478
0.114262
0.114045
0.113827
0.113608
0.113387
0.113166
0.112943
0.112717
0.123817
0.123558
0.123301
0.123046
0.122792
0.12254
0.122289
0.12204
0.121792
0.121546
0.121301
0.121058
0.120816
0.120575
0.120336
0.120098
0.119861
0.119625
0.119391
0.119158
0.118926
0.118695
0.118465
0.118236
0.118007
0.11778
0.117553
0.117326
0.117101
0.116875
0.11665
0.116425
0.1162
0.115975
0.11575
0.115524
0.115298
0.115072
0.114844
0.114616
0.114386
0.114156
0.113924
0.11369
0.113455
0.113219
0.11298
0.11274
0.123942
0.123682
0.123422
0.123165
0.122908
0.122653
0.122399
0.122147
0.121896
0.121646
0.121397
0.12115
0.120904
0.120659
0.120415
0.120172
0.11993
0.11969
0.11945
0.119211
0.118973
0.118735
0.118498
0.118262
0.118026
0.117791
0.117556
0.117321
0.117086
0.116851
0.116616
0.11638
0.116144
0.115908
0.11567
0.115432
0.115193
0.114953
0.114711
0.114469
0.114224
0.113978
0.11373
0.113481
0.11323
0.112977
0.112722
0.124299
0.124034
0.12377
0.123508
0.123247
0.122988
0.122729
0.122472
0.122216
0.121961
0.121707
0.121454
0.121202
0.120951
0.120701
0.120452
0.120203
0.119956
0.119709
0.119462
0.119217
0.118971
0.118726
0.118482
0.118237
0.117993