/*--------------------------------*- C++ -*----------------------------------*\
| =========                 |                                                 |
| \\      /  F ield         | OpenFOAM: The Open Source CFD Toolbox           |
|  \\    /   O peration     | Version:  v1706                                 |
|   \\  /    A nd           | Web:      www.OpenFOAM.com                      |
|    \\/     M anipulation  |                                                 |
\*---------------------------------------------------------------------------*/
FoamFile
{
    version     2.0;
    format      ascii;
    class       volScalarField;
    location    "9e-06";
    object      kappave;
}
// * * * * * * * * * * * * * * * * * * * * * * * * * * * * * * * * * * * * * //

dimensions      [1 1 -3 -1 0 0 0];


internalField   nonuniform List<scalar> 
30038
(
1.46038e-10
1.46038e-10
1.46038e-10
1.46038e-10
1.46038e-10
1.46038e-10
1.46038e-10
1.46038e-10
1.46038e-10
1.46038e-10
1.46038e-10
1.46038e-10
1.46038e-10
1.46038e-10
1.46038e-10
1.46038e-10
1.46038e-10
1.46038e-10
1.46038e-10
1.46038e-10
1.46038e-10
1.46038e-10
1.46038e-10
1.46038e-10
1.46038e-10
1.46038e-10
1.46038e-10
1.46038e-10
1.46038e-10
1.46038e-10
1.46038e-10
1.46038e-10
1.46038e-10
1.46038e-10
1.46038e-10
1.46038e-10
1.46038e-10
1.46038e-10
1.46038e-10
1.46038e-10
1.46038e-10
1.46038e-10
1.46038e-10
1.46038e-10
1.46038e-10
1.46038e-10
1.46038e-10
1.46038e-10
1.46038e-10
1.46038e-10
1.46038e-10
1.46038e-10
1.46038e-10
1.46038e-10
1.46038e-10
1.46038e-10
1.46038e-10
1.46038e-10
1.46038e-10
1.46038e-10
1.46038e-10
1.46038e-10
1.46038e-10
1.46038e-10
1.46038e-10
1.46038e-10
1.46038e-10
1.46038e-10
1.46038e-10
1.46038e-10
1.46038e-10
1.46038e-10
1.46038e-10
1.46038e-10
1.46038e-10
1.46038e-10
1.46038e-10
1.46038e-10
1.46038e-10
1.46038e-10
1.46038e-10
1.46038e-10
1.46038e-10
1.46038e-10
1.46038e-10
1.46038e-10
1.46038e-10
1.46038e-10
1.46038e-10
1.46038e-10
1.46038e-10
1.46038e-10
1.46038e-10
1.46038e-10
1.46038e-10
1.46038e-10
1.46038e-10
1.46038e-10
1.46038e-10
1.46038e-10
1.46038e-10
1.46038e-10
1.46038e-10
1.46038e-10
1.46038e-10
1.46038e-10
1.46038e-10
1.46038e-10
1.46038e-10
1.46038e-10
1.46038e-10
1.46038e-10
1.46038e-10
1.46038e-10
1.46038e-10
1.46038e-10
1.46038e-10
1.46038e-10
1.46038e-10
1.46038e-10
1.46038e-10
1.46038e-10
1.46038e-10
1.46038e-10
1.46038e-10
1.46038e-10
1.46038e-10
1.46038e-10
1.46038e-10
1.46038e-10
1.46038e-10
1.46038e-10
1.46038e-10
1.46038e-10
1.46038e-10
1.46038e-10
1.46038e-10
1.46038e-10
1.46038e-10
1.46038e-10
1.46038e-10
1.46038e-10
1.46038e-10
1.46038e-10
1.46038e-10
1.46038e-10
1.46038e-10
1.46038e-10
1.46038e-10
1.46038e-10
1.46038e-10
1.46038e-10
1.46038e-10
1.46038e-10
1.46038e-10
1.46038e-10
1.46038e-10
1.46038e-10
1.46038e-10
1.46038e-10
1.46038e-10
1.46038e-10
1.46038e-10
1.46038e-10
1.46038e-10
1.46038e-10
1.46038e-10
1.46038e-10
1.46038e-10
1.46038e-10
1.46038e-10
1.46038e-10
1.46038e-10
1.46038e-10
1.46038e-10
1.46038e-10
1.46038e-10
1.46038e-10
1.46038e-10
1.46038e-10
1.46038e-10
1.46038e-10
1.46038e-10
1.46038e-10
1.46038e-10
1.46038e-10
1.46038e-10
1.46038e-10
1.46038e-10
1.46038e-10
1.46038e-10
1.46038e-10
1.46038e-10
1.46038e-10
1.46038e-10
1.46038e-10
1.46038e-10
1.46038e-10
1.46038e-10
1.46038e-10
1.46038e-10
1.46038e-10
1.46038e-10
1.46038e-10
1.46038e-10
1.46038e-10
1.46038e-10
1.46038e-10
1.46038e-10
1.46038e-10
1.46038e-10
1.46038e-10
1.46038e-10
1.46038e-10
1.46038e-10
1.46038e-10
1.46038e-10
1.46038e-10
1.46038e-10
1.46038e-10
1.46038e-10
1.46038e-10
1.46038e-10
1.46038e-10
1.46038e-10
1.46038e-10
1.46038e-10
1.46038e-10
1.46038e-10
1.46038e-10
1.46038e-10
1.46038e-10
1.46038e-10
1.46038e-10
1.46038e-10
1.46038e-10
1.46038e-10
1.46038e-10
1.46038e-10
1.46038e-10
1.46038e-10
1.46038e-10
1.46038e-10
1.46038e-10
1.46038e-10
1.46038e-10
1.46038e-10
1.46038e-10
1.46038e-10
1.46038e-10
1.46038e-10
1.46038e-10
1.46038e-10
1.46038e-10
1.46038e-10
1.46038e-10
1.46038e-10
1.46038e-10
1.46038e-10
1.46038e-10
1.46038e-10
1.46038e-10
1.46038e-10
1.46038e-10
1.46038e-10
1.46038e-10
1.46038e-10
1.46038e-10
1.46038e-10
1.46038e-10
1.46038e-10
1.46038e-10
1.46038e-10
1.46038e-10
1.46038e-10
1.46038e-10
1.46038e-10
1.46038e-10
1.46038e-10
1.46038e-10
1.46038e-10
1.46038e-10
1.46038e-10
1.46038e-10
1.46038e-10
1.46038e-10
1.46038e-10
1.46038e-10
1.46038e-10
1.46038e-10
1.46038e-10
1.46038e-10
1.46038e-10
1.46038e-10
1.46038e-10
1.46038e-10
1.46038e-10
1.46038e-10
1.46038e-10
1.46038e-10
1.46038e-10
1.46038e-10
1.46038e-10
1.46038e-10
1.46038e-10
1.46038e-10
1.46038e-10
1.46038e-10
1.46038e-10
1.46038e-10
1.46038e-10
1.46038e-10
1.46038e-10
1.46038e-10
1.46038e-10
1.46038e-10
1.46038e-10
1.46038e-10
1.46038e-10
1.46038e-10
1.46038e-10
1.46038e-10
1.46038e-10
1.46038e-10
1.46038e-10
1.46038e-10
1.46038e-10
1.46038e-10
1.46038e-10
1.46038e-10
1.46038e-10
1.46038e-10
1.46038e-10
1.46038e-10
1.46038e-10
1.46038e-10
1.46038e-10
1.46038e-10
1.46038e-10
1.46038e-10
1.46038e-10
1.46038e-10
1.46038e-10
1.46038e-10
1.46038e-10
1.46038e-10
1.46038e-10
1.46038e-10
1.46038e-10
1.46038e-10
1.46038e-10
1.46038e-10
1.46038e-10
1.46038e-10
1.46038e-10
1.46038e-10
1.46038e-10
1.46038e-10
1.46038e-10
1.46038e-10
1.46038e-10
1.46038e-10
1.46038e-10
1.46038e-10
1.46038e-10
1.46038e-10
1.46038e-10
1.46038e-10
1.46038e-10
1.46038e-10
1.46038e-10
1.46038e-10
1.46038e-10
1.46038e-10
1.46038e-10
1.46038e-10
1.46038e-10
1.46038e-10
1.46038e-10
1.46038e-10
1.46038e-10
1.46038e-10
1.46038e-10
1.46038e-10
1.46038e-10
1.46038e-10
1.46038e-10
1.46038e-10
1.46038e-10
1.46038e-10
1.46038e-10
1.46038e-10
1.46038e-10
1.46038e-10
1.46038e-10
1.46038e-10
1.46038e-10
1.46038e-10
1.46038e-10
1.46038e-10
1.46038e-10
1.46038e-10
1.46038e-10
1.46038e-10
1.46038e-10
1.46038e-10
1.46038e-10
1.46038e-10
1.46038e-10
1.46038e-10
1.46038e-10
1.46038e-10
1.46038e-10
1.46038e-10
1.46038e-10
1.46038e-10
1.46038e-10
1.46038e-10
1.46038e-10
1.46038e-10
1.46038e-10
1.46038e-10
1.46038e-10
1.46038e-10
1.46038e-10
1.46038e-10
1.46038e-10
1.46038e-10
1.46038e-10
1.46038e-10
1.46038e-10
1.46038e-10
1.46038e-10
1.46038e-10
1.46038e-10
1.46038e-10
1.46038e-10
1.46038e-10
1.46038e-10
1.46038e-10
1.46038e-10
1.46038e-10
1.46038e-10
1.46038e-10
1.46038e-10
1.46038e-10
1.46038e-10
1.46038e-10
1.46038e-10
1.46038e-10
1.46038e-10
1.46038e-10
1.46038e-10
1.46038e-10
1.46038e-10
1.46038e-10
1.46038e-10
1.46038e-10
1.46038e-10
1.46038e-10
1.46038e-10
1.46038e-10
1.46038e-10
1.46038e-10
1.46038e-10
1.46038e-10
1.46038e-10
1.46038e-10
1.46038e-10
1.46038e-10
1.46038e-10
1.46038e-10
1.46038e-10
1.46038e-10
1.46038e-10
1.46038e-10
1.46038e-10
1.46038e-10
1.46038e-10
1.46038e-10
1.46038e-10
1.46038e-10
1.46038e-10
1.46038e-10
1.46038e-10
1.46038e-10
1.46038e-10
1.46038e-10
1.46038e-10
1.46038e-10
1.46038e-10
1.46038e-10
1.46038e-10
1.46038e-10
1.46038e-10
1.46038e-10
1.46038e-10
1.46038e-10
1.46038e-10
1.46038e-10
1.46038e-10
1.46038e-10
1.46038e-10
1.46038e-10
1.46038e-10
1.46038e-10
1.46038e-10
1.46038e-10
1.46038e-10
1.46038e-10
1.46038e-10
1.46038e-10
1.46038e-10
1.46038e-10
1.46038e-10
1.46038e-10
1.46038e-10
1.46038e-10
1.46038e-10
1.46038e-10
1.46038e-10
1.46038e-10
1.46038e-10
1.46038e-10
1.46038e-10
1.46038e-10
1.46038e-10
1.46038e-10
1.46038e-10
1.46038e-10
1.46038e-10
1.46038e-10
1.46038e-10
1.46038e-10
1.46038e-10
1.46038e-10
1.46038e-10
1.46038e-10
1.46038e-10
1.46038e-10
1.46038e-10
1.46038e-10
1.46038e-10
1.46038e-10
1.46038e-10
1.46038e-10
1.46038e-10
1.46038e-10
1.46038e-10
1.46038e-10
1.46038e-10
1.46038e-10
1.46038e-10
1.46038e-10
1.46038e-10
1.46038e-10
1.46038e-10
1.46038e-10
1.46038e-10
1.46038e-10
1.46038e-10
1.46038e-10
1.46038e-10
1.46038e-10
1.46038e-10
1.46038e-10
1.46038e-10
1.46038e-10
1.46038e-10
1.46038e-10
1.46038e-10
1.46038e-10
1.46038e-10
1.46038e-10
1.46038e-10
1.46038e-10
1.46038e-10
1.46038e-10
1.46038e-10
1.46038e-10
1.46038e-10
1.46038e-10
1.46038e-10
1.46038e-10
1.46038e-10
1.46038e-10
1.46038e-10
1.46038e-10
1.46038e-10
1.46038e-10
1.46038e-10
1.46038e-10
1.46038e-10
1.46038e-10
1.46038e-10
1.46038e-10
1.46038e-10
1.46038e-10
1.46038e-10
1.46038e-10
1.46038e-10
1.46038e-10
1.46038e-10
1.46038e-10
1.46038e-10
1.46038e-10
1.46038e-10
1.46038e-10
1.46038e-10
1.46038e-10
1.46038e-10
1.46038e-10
1.46038e-10
1.46038e-10
1.46038e-10
1.46038e-10
1.46038e-10
1.46038e-10
1.46038e-10
1.46038e-10
1.46038e-10
1.46038e-10
1.46038e-10
1.46038e-10
1.46038e-10
1.46038e-10
1.46038e-10
1.46038e-10
1.46038e-10
1.46038e-10
1.46038e-10
1.46038e-10
1.46038e-10
1.46038e-10
1.46038e-10
1.46038e-10
1.46038e-10
1.46038e-10
1.46038e-10
1.46038e-10
1.46038e-10
1.46038e-10
1.46038e-10
1.46038e-10
1.46038e-10
1.46038e-10
1.46038e-10
1.46038e-10
1.46038e-10
1.46038e-10
1.46038e-10
1.46038e-10
1.46038e-10
1.46038e-10
1.46038e-10
1.46038e-10
1.46038e-10
1.46038e-10
1.46038e-10
1.46038e-10
1.46038e-10
1.46038e-10
1.46038e-10
1.46038e-10
1.46038e-10
1.46038e-10
1.46038e-10
1.46038e-10
1.46038e-10
1.46038e-10
1.46038e-10
1.46038e-10
1.46038e-10
1.46038e-10
1.46038e-10
1.46038e-10
1.46038e-10
1.46038e-10
1.46038e-10
1.46038e-10
1.46038e-10
1.46038e-10
1.46038e-10
1.46038e-10
1.46038e-10
1.46038e-10
1.46038e-10
1.46038e-10
1.46038e-10
1.46038e-10
1.46038e-10
1.46038e-10
1.46038e-10
1.46038e-10
1.46038e-10
1.46038e-10
1.46038e-10
1.46038e-10
1.46038e-10
1.46038e-10
1.46038e-10
1.46038e-10
1.46038e-10
1.46038e-10
1.46038e-10
1.46038e-10
1.46038e-10
1.46038e-10
1.46038e-10
1.46038e-10
1.46038e-10
1.46038e-10
1.46038e-10
1.46038e-10
1.46038e-10
1.46038e-10
1.46038e-10
1.46038e-10
1.46038e-10
1.46038e-10
1.46038e-10
1.46038e-10
1.46038e-10
1.46038e-10
1.46038e-10
1.46038e-10
1.46038e-10
1.46038e-10
1.46038e-10
1.46038e-10
1.46038e-10
1.46038e-10
1.46038e-10
1.46038e-10
1.46038e-10
1.46038e-10
1.46038e-10
1.46038e-10
1.46038e-10
1.46038e-10
1.46038e-10
1.46038e-10
1.46038e-10
1.46038e-10
1.46038e-10
1.46038e-10
1.46038e-10
1.46038e-10
1.46038e-10
1.46038e-10
1.46038e-10
1.46038e-10
1.46038e-10
1.46038e-10
1.46038e-10
1.46038e-10
1.46038e-10
1.46038e-10
1.46038e-10
1.46038e-10
1.46038e-10
1.46038e-10
1.46038e-10
1.46038e-10
1.46038e-10
1.46038e-10
1.46038e-10
1.46038e-10
1.46038e-10
1.46038e-10
1.46038e-10
1.46038e-10
1.46038e-10
1.46038e-10
1.46038e-10
1.46038e-10
1.46038e-10
1.46038e-10
1.46038e-10
1.46038e-10
1.46038e-10
1.46038e-10
1.46038e-10
1.46038e-10
1.46038e-10
1.46038e-10
1.46038e-10
1.46038e-10
1.46038e-10
1.46038e-10
1.46038e-10
1.46038e-10
1.46038e-10
1.46038e-10
1.46038e-10
1.46038e-10
1.46038e-10
1.46038e-10
1.46038e-10
1.46038e-10
1.46038e-10
1.46038e-10
1.46038e-10
1.46038e-10
1.46038e-10
1.46038e-10
1.46038e-10
1.46038e-10
1.46038e-10
1.46038e-10
1.46038e-10
1.46038e-10
1.46038e-10
1.46038e-10
1.46038e-10
1.46038e-10
1.46038e-10
1.46038e-10
1.46038e-10
1.46038e-10
1.46038e-10
1.46038e-10
1.46038e-10
1.46038e-10
1.46038e-10
1.46038e-10
1.46038e-10
1.46038e-10
1.46038e-10
1.46038e-10
1.46038e-10
1.46038e-10
1.46038e-10
1.46038e-10
1.46038e-10
1.46038e-10
1.46038e-10
1.46038e-10
1.46038e-10
1.46038e-10
1.46038e-10
1.46038e-10
1.46038e-10
1.46038e-10
1.46038e-10
1.46038e-10
1.46038e-10
1.46038e-10
1.46038e-10
1.46038e-10
1.46038e-10
1.46038e-10
1.46038e-10
1.46038e-10
1.46038e-10
1.46038e-10
1.46038e-10
1.46038e-10
1.46038e-10
1.46038e-10
1.46038e-10
1.46038e-10
1.46038e-10
1.46038e-10
1.46038e-10
1.46038e-10
1.46038e-10
1.46038e-10
1.46038e-10
1.46038e-10
1.46038e-10
1.46038e-10
1.46038e-10
1.46038e-10
1.46038e-10
1.46038e-10
1.46038e-10
1.46038e-10
1.46038e-10
1.46038e-10
1.46038e-10
1.46038e-10
1.46038e-10
1.46038e-10
1.46038e-10
1.46038e-10
1.46038e-10
1.46038e-10
1.46038e-10
1.46038e-10
1.46038e-10
1.46038e-10
1.46038e-10
1.46038e-10
1.46038e-10
1.46038e-10
1.46038e-10
1.46038e-10
1.46038e-10
1.46038e-10
1.46038e-10
1.46038e-10
1.46038e-10
1.46038e-10
1.46038e-10
1.46038e-10
1.46038e-10
1.46038e-10
1.46038e-10
1.46038e-10
1.46038e-10
1.46038e-10
1.46038e-10
1.46038e-10
1.46038e-10
1.46038e-10
1.46038e-10
1.46038e-10
1.46038e-10
1.46038e-10
1.46038e-10
1.46038e-10
1.46038e-10
1.46038e-10
1.46038e-10
1.46038e-10
1.46038e-10
1.46038e-10
1.46038e-10
1.46038e-10
1.46038e-10
1.46038e-10
1.46038e-10
1.46038e-10
1.46038e-10
1.46038e-10
1.46038e-10
1.46038e-10
1.46038e-10
1.46038e-10
1.46038e-10
1.46038e-10
1.46038e-10
1.46038e-10
1.46038e-10
1.46038e-10
1.46038e-10
1.46038e-10
1.46038e-10
1.46038e-10
1.46038e-10
1.46038e-10
1.46038e-10
1.46038e-10
1.46038e-10
1.46038e-10
1.46038e-10
1.46038e-10
1.46038e-10
1.46038e-10
1.46038e-10
1.46038e-10
1.46038e-10
1.46038e-10
1.46038e-10
1.46038e-10
1.46038e-10
1.46038e-10
1.46038e-10
1.46038e-10
1.46038e-10
1.46038e-10
1.46038e-10
1.46038e-10
1.46038e-10
1.46038e-10
1.46038e-10
1.46038e-10
1.46038e-10
1.46038e-10
1.46038e-10
1.46038e-10
1.46038e-10
1.46038e-10
1.46038e-10
1.46038e-10
1.46038e-10
1.46038e-10
1.46038e-10
1.46038e-10
1.46038e-10
1.46038e-10
1.46038e-10
1.46038e-10
1.46038e-10
1.46038e-10
1.46038e-10
1.46038e-10
1.46038e-10
1.46038e-10
1.46038e-10
1.46038e-10
1.46038e-10
1.46038e-10
1.46038e-10
1.46038e-10
1.46038e-10
1.46038e-10
1.46038e-10
1.46038e-10
1.46038e-10
1.46038e-10
1.46038e-10
1.46038e-10
1.46038e-10
1.46038e-10
1.46038e-10
1.46038e-10
1.46038e-10
1.46038e-10
1.46038e-10
1.46038e-10
1.46038e-10
1.46038e-10
1.46038e-10
1.46038e-10
1.46038e-10
1.46038e-10
1.46038e-10
1.46038e-10
1.46038e-10
1.46038e-10
1.46038e-10
1.46038e-10
1.46038e-10
1.46038e-10
1.46038e-10
1.46038e-10
1.46038e-10
1.46038e-10
1.46038e-10
1.46038e-10
1.46038e-10
1.46038e-10
1.46038e-10
1.46038e-10
1.46038e-10
1.46038e-10
1.46038e-10
1.46038e-10
1.46038e-10
1.46038e-10
1.46038e-10
1.46038e-10
1.46038e-10
1.46038e-10
1.46038e-10
1.46038e-10
1.46038e-10
1.46038e-10
1.46038e-10
1.46038e-10
1.46038e-10
1.46038e-10
1.46038e-10
1.46038e-10
1.46038e-10
1.46038e-10
1.46038e-10
1.46038e-10
1.46038e-10
1.46038e-10
1.46038e-10
1.46038e-10
1.46038e-10
1.46038e-10
1.46038e-10
1.46038e-10
1.46038e-10
1.46038e-10
1.46038e-10
1.46038e-10
1.46038e-10
1.46038e-10
1.46038e-10
1.46038e-10
1.46038e-10
1.46038e-10
1.46038e-10
1.46038e-10
1.46038e-10
1.46038e-10
1.46039e-10
1.4604e-10
1.46038e-10
1.46038e-10
1.46038e-10
1.46038e-10
1.46038e-10
1.46038e-10
1.46038e-10
1.46038e-10
1.46038e-10
1.46038e-10
1.46038e-10
1.46038e-10
1.46038e-10
1.46038e-10
1.46038e-10
1.46038e-10
1.46038e-10
1.46038e-10
1.46038e-10
1.46038e-10
1.46038e-10
1.46038e-10
1.46038e-10
1.46038e-10
1.46038e-10
1.46038e-10
1.46038e-10
1.46038e-10
1.46038e-10
1.46038e-10
1.46038e-10
1.46038e-10
1.46038e-10
1.46038e-10
1.46038e-10
1.46038e-10
1.46038e-10
1.46038e-10
1.46038e-10
1.46038e-10
1.46038e-10
1.46038e-10
1.46038e-10
1.46039e-10
1.46039e-10
1.46042e-10
1.46047e-10
1.4606e-10
1.46038e-10
1.46038e-10
1.46038e-10
1.46038e-10
1.46038e-10
1.46038e-10
1.46038e-10
1.46038e-10
1.46038e-10
1.46038e-10
1.46038e-10
1.46038e-10
1.46038e-10
1.46038e-10
1.46038e-10
1.46038e-10
1.46038e-10
1.46038e-10
1.46038e-10
1.46038e-10
1.46038e-10
1.46038e-10
1.46038e-10
1.46038e-10
1.46038e-10
1.46038e-10
1.46038e-10
1.46038e-10
1.46038e-10
1.46038e-10
1.46038e-10
1.46038e-10
1.46038e-10
1.46038e-10
1.46038e-10
1.46038e-10
1.46038e-10
1.46038e-10
1.46038e-10
1.46038e-10
1.46038e-10
1.46038e-10
1.46039e-10
1.4604e-10
1.46042e-10
1.46046e-10
1.46056e-10
1.46077e-10
1.46126e-10
1.46258e-10
1.46038e-10
1.46038e-10
1.46038e-10
1.46038e-10
1.46038e-10
1.46038e-10
1.46038e-10
1.46038e-10
1.46038e-10
1.46038e-10
1.46038e-10
1.46038e-10
1.46038e-10
1.46038e-10
1.46038e-10
1.46038e-10
1.46038e-10
1.46038e-10
1.46038e-10
1.46038e-10
1.46038e-10
1.46038e-10
1.46038e-10
1.46038e-10
1.46038e-10
1.46038e-10
1.46038e-10
1.46038e-10
1.46038e-10
1.46038e-10
1.46038e-10
1.46038e-10
1.46038e-10
1.46038e-10
1.46038e-10
1.46038e-10
1.46038e-10
1.46038e-10
1.46038e-10
1.46039e-10
1.4604e-10
1.46042e-10
1.46046e-10
1.46056e-10
1.46076e-10
1.46121e-10
1.46216e-10
1.46426e-10
1.46903e-10
1.48173e-10
1.46038e-10
1.46038e-10
1.46038e-10
1.46038e-10
1.46038e-10
1.46038e-10
1.46038e-10
1.46038e-10
1.46038e-10
1.46038e-10
1.46038e-10
1.46038e-10
1.46038e-10
1.46038e-10
1.46038e-10
1.46038e-10
1.46038e-10
1.46038e-10
1.46038e-10
1.46038e-10
1.46038e-10
1.46038e-10
1.46038e-10
1.46038e-10
1.46038e-10
1.46038e-10
1.46038e-10
1.46038e-10
1.46038e-10
1.46038e-10
1.46038e-10
1.46038e-10
1.46038e-10
1.46038e-10
1.46038e-10
1.46038e-10
1.46039e-10
1.4604e-10
1.46042e-10
1.46047e-10
1.46057e-10
1.46078e-10
1.46122e-10
1.46215e-10
1.46415e-10
1.46845e-10
1.47774e-10
1.49803e-10
1.54371e-10
1.66191e-10
1.46038e-10
1.46038e-10
1.46038e-10
1.46038e-10
1.46038e-10
1.46038e-10
1.46038e-10
1.46038e-10
1.46038e-10
1.46038e-10
1.46038e-10
1.46038e-10
1.46038e-10
1.46038e-10
1.46038e-10
1.46038e-10
1.46038e-10
1.46038e-10
1.46038e-10
1.46038e-10
1.46038e-10
1.46038e-10
1.46038e-10
1.46038e-10
1.46038e-10
1.46038e-10
1.46038e-10
1.46038e-10
1.46038e-10
1.46038e-10
1.46038e-10
1.46038e-10
1.46038e-10
1.46039e-10
1.4604e-10
1.46043e-10
1.46048e-10
1.46059e-10
1.46081e-10
1.46126e-10
1.46222e-10
1.46422e-10
1.46844e-10
1.47739e-10
1.49648e-10
1.53735e-10
1.62525e-10
1.81521e-10
2.23353e-10
3.26037e-10
1.46038e-10
1.46038e-10
1.46038e-10
1.46038e-10
1.46038e-10
1.46038e-10
1.46038e-10
1.46038e-10
1.46038e-10
1.46038e-10
1.46038e-10
1.46038e-10
1.46038e-10
1.46038e-10
1.46038e-10
1.46038e-10
1.46038e-10
1.46038e-10
1.46038e-10
1.46038e-10
1.46038e-10
1.46038e-10
1.46038e-10
1.46038e-10
1.46038e-10
1.46038e-10
1.46038e-10
1.46038e-10
1.46038e-10
1.46038e-10
1.46039e-10
1.46041e-10
1.46044e-10
1.4605e-10
1.46061e-10
1.46086e-10
1.46135e-10
1.46236e-10
1.46444e-10
1.46876e-10
1.47776e-10
1.49659e-10
1.53618e-10
1.61971e-10
1.7962e-10
2.1687e-10
2.95176e-10
4.5908e-10
8.05049e-10
1.59816e-09
1.46038e-10
1.46038e-10
1.46038e-10
1.46038e-10
1.46038e-10
1.46038e-10
1.46038e-10
1.46038e-10
1.46038e-10
1.46038e-10
1.46038e-10
1.46038e-10
1.46038e-10
1.46038e-10
1.46038e-10
1.46038e-10
1.46038e-10
1.46038e-10
1.46038e-10
1.46038e-10
1.46038e-10
1.46038e-10
1.46038e-10
1.46038e-10
1.46038e-10
1.46038e-10
1.46039e-10
1.4604e-10
1.46041e-10
1.46045e-10
1.46052e-10
1.46066e-10
1.46093e-10
1.46148e-10
1.4626e-10
1.46485e-10
1.46944e-10
1.47884e-10
1.49818e-10
1.53811e-10
1.62084e-10
1.79255e-10
2.14849e-10
2.88317e-10
4.38951e-10
7.45953e-10
1.37022e-09
2.64445e-09
5.28555e-09
1.10818e-08
1.46038e-10
1.46038e-10
1.46038e-10
1.46038e-10
1.46038e-10
1.46038e-10
1.46038e-10
1.46038e-10
1.46038e-10
1.46038e-10
1.46038e-10
1.46038e-10
1.46038e-10
1.46038e-10
1.46038e-10
1.46038e-10
1.46038e-10
1.46038e-10
1.46038e-10
1.46038e-10
1.46038e-10
1.46038e-10
1.46038e-10
1.46039e-10
1.4604e-10
1.46042e-10
1.46047e-10
1.46055e-10
1.46072e-10
1.46104e-10
1.46169e-10
1.46296e-10
1.46549e-10
1.47056e-10
1.48077e-10
1.5014e-10
1.54326e-10
1.62847e-10
1.80219e-10
2.15599e-10
2.87355e-10
4.31973e-10
7.21703e-10
1.30039e-09
2.45741e-09
4.78167e-09
9.48018e-09
1.90108e-08
3.82704e-08
7.69202e-08
1.46038e-10
1.46038e-10
1.46038e-10
1.46038e-10
1.46038e-10
1.46038e-10
1.46038e-10
1.46038e-10
1.46038e-10
1.46038e-10
1.46038e-10
1.46038e-10
1.46038e-10
1.46038e-10
1.46038e-10
1.46038e-10
1.46038e-10
1.46038e-10
1.46038e-10
1.46039e-10
1.46039e-10
1.46041e-10
1.46044e-10
1.4605e-10
1.4606e-10
1.46081e-10
1.46121e-10
1.46198e-10
1.46349e-10
1.46645e-10
1.47226e-10
1.48377e-10
1.50662e-10
1.55219e-10
1.64335e-10
1.82592e-10
2.19118e-10
2.91896e-10
4.36045e-10
7.19976e-10
1.27763e-09
2.37383e-09
4.53763e-09
8.83239e-09
1.73775e-08
3.42511e-08
6.6765e-08
1.26768e-07
2.31586e-07
4.0461e-07
1.46038e-10
1.46038e-10
1.46038e-10
1.46038e-10
1.46038e-10
1.46038e-10
1.46038e-10
1.46038e-10
1.46038e-10
1.46038e-10
1.46038e-10
1.46038e-10
1.46038e-10
1.46038e-10
1.46038e-10
1.46038e-10
1.46039e-10
1.4604e-10
1.46042e-10
1.46046e-10
1.46054e-10
1.46068e-10
1.46095e-10
1.46146e-10
1.46242e-10
1.46428e-10
1.46785e-10
1.47477e-10
1.48822e-10
1.51449e-10
1.56597e-10
1.66718e-10
1.8663e-10
2.25756e-10
3.02325e-10
4.51331e-10
7.39837e-10
1.29706e-09
2.37434e-09
4.46544e-09
8.54655e-09
1.65354e-08
3.20852e-08
6.17175e-08
1.15985e-07
2.10046e-07
3.6319e-07
5.97595e-07
9.37739e-07
1.40997e-06
1.46038e-10
1.46038e-10
1.46038e-10
1.46038e-10
1.46038e-10
1.46038e-10
1.46038e-10
1.46038e-10
1.46038e-10
1.46038e-10
1.46038e-10
1.46038e-10
1.46039e-10
1.4604e-10
1.46042e-10
1.46045e-10
1.4605e-10
1.46061e-10
1.4608e-10
1.46116e-10
1.46182e-10
1.46308e-10
1.46544e-10
1.46992e-10
1.47845e-10
1.49476e-10
1.52606e-10
1.58639e-10
1.7029e-10
1.92808e-10
2.36255e-10
3.19742e-10
4.79325e-10
7.83007e-10
1.3598e-09
2.4567e-09
4.55122e-09
8.57214e-09
1.63167e-08
3.11679e-08
5.91295e-08
1.09926e-07
1.97626e-07
3.40273e-07
5.58585e-07
8.74328e-07
1.30901e-06
1.88351e-06
2.61923e-06
3.53969e-06
1.46038e-10
1.46038e-10
1.46038e-10
1.46038e-10
1.46038e-10
1.46038e-10
1.46038e-10
1.46038e-10
1.46039e-10
1.4604e-10
1.46041e-10
1.46044e-10
1.46048e-10
1.46056e-10
1.46071e-10
1.46098e-10
1.46148e-10
1.46239e-10
1.46407e-10
1.46719e-10
1.47301e-10
1.48391e-10
1.50439e-10
1.54307e-10
1.61631e-10
1.7553e-10
2.01911e-10
2.51879e-10
3.46131e-10
5.23051e-10
8.53913e-10
1.47191e-09
2.62819e-09
4.80073e-09
8.90437e-09
1.66815e-08
3.13657e-08
5.86361e-08
1.0765e-07
1.91674e-07
3.27847e-07
5.3604e-07
8.37289e-07
1.25236e-06
1.80084e-06
2.50056e-06
3.36677e-06
4.41361e-06
5.65669e-06
7.11748e-06
1.46038e-10
1.46038e-10
1.46038e-10
1.46038e-10
1.46039e-10
1.46039e-10
1.46041e-10
1.46043e-10
1.46047e-10
1.46054e-10
1.46066e-10
1.46088e-10
1.46128e-10
1.46199e-10
1.46328e-10
1.46562e-10
1.46988e-10
1.47771e-10
1.49212e-10
1.51878e-10
1.56826e-10
1.66036e-10
1.83205e-10
2.15198e-10
2.74663e-10
3.84736e-10
5.87606e-10
9.60435e-10
1.64533e-09
2.90633e-09
5.2383e-09
9.57337e-09
1.76575e-08
3.26786e-08
6.01563e-08
1.08903e-07
1.91624e-07
3.24744e-07
5.274e-07
8.19979e-07
1.2228e-06
1.7551e-06
2.43453e-06
3.2763e-06
4.29312e-06
5.49511e-06
6.88843e-06
8.47278e-06
1.02471e-05
1.22366e-05
1.46039e-10
1.46039e-10
1.46041e-10
1.46043e-10
1.46047e-10
1.46053e-10
1.46064e-10
1.46083e-10
1.46117e-10
1.46177e-10
1.46282e-10
1.4647e-10
1.46807e-10
1.47411e-10
1.48501e-10
1.50475e-10
1.54066e-10
1.60619e-10
1.72605e-10
1.94547e-10
2.3467e-10
3.0783e-10
4.40692e-10
6.81112e-10
1.11534e-09
1.9e-09
3.32192e-09
5.91069e-09
1.06479e-08
1.93405e-08
3.52268e-08
6.38158e-08
1.13771e-07
1.97452e-07
3.30751e-07
5.32177e-07
8.21513e-07
1.21854e-06
1.74211e-06
2.4096e-06
3.23652e-06
4.2355e-06
5.41717e-06
6.78872e-06
8.3515e-06
1.00989e-05
1.20192e-05
1.41018e-05
1.63478e-05
1.88127e-05
1.46047e-10
1.46053e-10
1.46063e-10
1.46081e-10
1.46113e-10
1.46166e-10
1.46259e-10
1.46422e-10
1.46706e-10
1.47207e-10
1.48091e-10
1.49662e-10
1.5246e-10
1.57466e-10
1.66444e-10
1.82573e-10
2.11555e-10
2.63541e-10
3.56493e-10
5.22097e-10
8.1635e-10
1.33878e-09
2.2676e-09
3.92469e-09
6.89553e-09
1.22476e-08
2.19095e-08
3.92671e-08
6.99584e-08
1.22676e-07
2.09628e-07
3.46338e-07
5.50789e-07
8.42177e-07
1.23971e-06
1.76181e-06
2.42548e-06
3.24612e-06
4.23659e-06
5.40752e-06
6.7669e-06
8.31853e-06
1.00588e-05
1.19772e-05
1.40602e-05
1.62969e-05
1.86809e-05
2.12115e-05
2.38985e-05
2.68196e-05
1.46113e-10
1.46165e-10
1.46253e-10
1.46403e-10
1.46661e-10
1.47106e-10
1.47876e-10
1.49216e-10
1.51556e-10
1.55658e-10
1.62872e-10
1.75584e-10
1.98007e-10
2.37529e-10
3.07031e-10
4.28871e-10
6.41844e-10
1.01354e-09
1.66245e-09
2.79796e-09
4.793e-09
8.31583e-09
1.45641e-08
2.56581e-08
4.52342e-08
7.91972e-08
1.36433e-07
2.29163e-07
3.72686e-07
5.84542e-07
8.83367e-07
1.28779e-06
1.81568e-06
2.48359e-06
3.30659e-06
4.29774e-06
5.46743e-06
6.82416e-06
8.37302e-06
1.01133e-05
1.20366e-05
1.41297e-05
1.63791e-05
1.87759e-05
2.13138e-05
2.39924e-05
2.68117e-05
2.97761e-05
3.28995e-05
3.62703e-05
1.46411e-10
1.46661e-10
1.47084e-10
1.47803e-10
1.49029e-10
1.51126e-10
1.5473e-10
1.60944e-10
1.71681e-10
1.90262e-10
2.22418e-10
2.77982e-10
3.73747e-10
5.38349e-10
8.2074e-10
1.30504e-09
2.13685e-09
3.57004e-09
6.05054e-09
1.03652e-08
1.78986e-08
3.10466e-08
5.38108e-08
9.25025e-08
1.56351e-07
2.5773e-07
4.11822e-07
6.35784e-07
9.47701e-07
1.36559e-06
1.9067e-06
2.58709e-06
3.42138e-06
4.42246e-06
5.60075e-06
6.96472e-06
8.52004e-06
1.02681e-05
1.22032e-05
1.43132e-05
1.65836e-05
1.90022e-05
2.1561e-05
2.42557e-05
2.70864e-05
3.0052e-05
3.31565e-05
3.6403e-05
3.97939e-05
4.33517e-05
4.71816e-05
1.49054e-10
1.51067e-10
1.54459e-10
1.60191e-10
1.69903e-10
1.86389e-10
2.14383e-10
2.61877e-10
3.42291e-10
4.78119e-10
7.07115e-10
1.09294e-09
1.74358e-09
2.84358e-09
4.71055e-09
7.89456e-09
1.33504e-08
2.27235e-08
3.87895e-08
6.60444e-08
1.11347e-07
1.84402e-07
2.97842e-07
4.668e-07
7.08085e-07
1.03922e-06
1.47756e-06
2.03969e-06
2.74106e-06
3.59576e-06
4.61637e-06
5.81327e-06
7.19459e-06
8.76647e-06
1.05315e-05
1.24862e-05
1.46202e-05
1.69188e-05
1.93679e-05
2.19574e-05
2.46801e-05
2.7533e-05
3.05156e-05
3.36287e-05
3.68762e-05
4.02585e-05
4.37773e-05
4.74513e-05
5.12804e-05
5.52648e-05
5.95163e-05
1.60432e-10
1.69832e-10
1.85477e-10
2.11538e-10
2.54922e-10
3.27035e-10
4.4666e-10
6.44768e-10
9.72622e-10
1.51556e-09
2.41655e-09
3.91687e-09
6.42635e-09
1.06443e-08
1.77621e-08
2.9785e-08
4.99963e-08
8.35303e-08
1.3793e-07
2.23479e-07
3.53131e-07
5.41997e-07
8.06525e-07
1.16364e-06
1.63001e-06
2.22148e-06
2.95281e-06
3.8375e-06
4.88763e-06
6.11346e-06
7.52281e-06
9.12186e-06
1.09137e-05
1.28967e-05
1.50624e-05
1.73969e-05
1.98849e-05
2.25137e-05
2.52743e-05
2.81612e-05
3.11731e-05
3.43079e-05
3.7568e-05
4.09564e-05
4.44721e-05
4.81261e-05
5.19294e-05
5.58686e-05
5.99485e-05
6.41741e-05
6.85619e-05
7.32276e-05
2.55513e-10
3.24525e-10
4.36893e-10
6.19604e-10
9.16532e-10
1.39939e-09
2.18609e-09
3.47184e-09
5.58193e-09
9.06137e-09
1.48246e-08
2.43964e-08
4.02715e-08
6.63938e-08
1.08689e-07
1.75501e-07
2.77758e-07
4.28743e-07
6.43509e-07
9.38102e-07
1.3288e-06
1.8315e-06
2.46128e-06
3.23215e-06
4.15693e-06
5.24714e-06
6.51269e-06
7.96113e-06
9.59833e-06
1.14277e-05
1.34488e-05
1.5655e-05
1.80332e-05
2.0568e-05
2.32447e-05
2.60529e-05
2.89845e-05
3.20353e-05
3.52041e-05
3.84902e-05
4.18972e-05
4.54237e-05
4.90727e-05
5.28601e-05
5.6785e-05
6.08404e-05
6.50274e-05
6.93522e-05
7.3818e-05
7.84354e-05
8.32245e-05
8.82994e-05
9.12263e-10
1.36947e-09
2.10089e-09
3.27452e-09
5.16509e-09
8.22452e-09
1.31984e-08
2.13131e-08
3.45596e-08
5.60869e-08
9.06733e-08
1.45179e-07
2.2883e-07
3.532e-07
5.31846e-07
7.7968e-07
1.11226e-06
1.54514e-06
2.09339e-06
2.77126e-06
3.59194e-06
4.56754e-06
5.70893e-06
7.02553e-06
8.52458e-06
1.02115e-05
1.20899e-05
1.41598e-05
1.64158e-05
1.88464e-05
2.14362e-05
2.41695e-05
2.70336e-05
3.00191e-05
3.31196e-05
3.63332e-05
3.96571e-05
4.30922e-05
4.66419e-05
5.03041e-05
5.40882e-05
5.8005e-05
6.20483e-05
6.62145e-05
7.05064e-05
7.49296e-05
7.9489e-05
8.4191e-05
8.90413e-05
9.40437e-05
9.9216e-05
0.000104673
5.0837e-09
7.94766e-09
1.25188e-08
1.98426e-08
3.15961e-08
5.04135e-08
8.0293e-08
1.27021e-07
1.98501e-07
3.04853e-07
4.58222e-07
6.72309e-07
9.61756e-07
1.34151e-06
1.82634e-06
2.43041e-06
3.16708e-06
4.04869e-06
5.08656e-06
6.29086e-06
7.67041e-06
9.23215e-06
1.0981e-05
1.29202e-05
1.50502e-05
1.73666e-05
1.98591e-05
2.25125e-05
2.53106e-05
2.82391e-05
3.12877e-05
3.44475e-05
3.77147e-05
4.10868e-05
4.45617e-05
4.81446e-05
5.18326e-05
5.5626e-05
5.95443e-05
6.35858e-05
6.77425e-05
7.20143e-05
7.64087e-05
8.09273e-05
8.55771e-05
9.03637e-05
9.52909e-05
0.000100359
0.000105571
0.000110931
0.000116454
0.000122255
3.07515e-08
4.82136e-08
7.55447e-08
1.17797e-07
1.81904e-07
2.76842e-07
4.13542e-07
6.04557e-07
8.63546e-07
1.20471e-06
1.64226e-06
2.19007e-06
2.86137e-06
3.66858e-06
4.62315e-06
5.73556e-06
7.01523e-06
8.47034e-06
1.01073e-05
1.19306e-05
1.39431e-05
1.61452e-05
1.85332e-05
2.10975e-05
2.38237e-05
2.66952e-05
2.9697e-05
3.28167e-05
3.60442e-05
3.93743e-05
4.28043e-05
4.63291e-05
4.99531e-05
5.36772e-05
5.74946e-05
6.14243e-05
6.5471e-05
6.96278e-05
7.38916e-05
7.82666e-05
8.27579e-05
8.73676e-05
9.21036e-05
9.69705e-05
0.00010197
0.000107104
0.000112374
0.000117779
0.00012332
0.000129
0.000134834
0.000140934
1.76378e-07
2.65169e-07
3.92202e-07
5.69024e-07
8.08347e-07
1.12355e-06
1.52821e-06
2.03568e-06
2.65887e-06
3.41003e-06
4.3006e-06
5.34112e-06
6.5412e-06
7.90946e-06
9.4534e-06
1.11789e-05
1.30897e-05
1.51883e-05
1.74749e-05
1.9946e-05
2.25929e-05
2.54016e-05
2.83555e-05
3.14385e-05
3.46375e-05
3.79414e-05
4.13432e-05
4.48382e-05
4.84219e-05
5.20967e-05
5.58648e-05
5.97168e-05
6.36687e-05
6.77278e-05
7.18926e-05
7.61577e-05
8.05243e-05
8.4998e-05
8.95798e-05
9.4276e-05
9.90929e-05
0.000104034
0.000109101
0.000114294
0.000119617
0.000125067
0.000130645
0.000136349
0.000142179
0.000148134
0.00015423
0.000160577
7.90922e-07
1.09141e-06
1.47611e-06
1.9578e-06
2.54889e-06
3.26125e-06
4.10613e-06
5.09397e-06
6.23436e-06
7.53607e-06
9.00688e-06
1.06535e-05
1.24812e-05
1.44931e-05
1.66911e-05
1.90751e-05
2.16416e-05
2.43822e-05
2.72832e-05
3.03282e-05
3.35009e-05
3.67872e-05
4.01749e-05
4.36555e-05
4.72238e-05
5.08747e-05
5.46084e-05
5.84262e-05
6.23223e-05
6.63068e-05
7.03856e-05
7.45641e-05
7.88392e-05
8.32059e-05
8.76691e-05
9.22331e-05
9.68997e-05
0.000101677
0.000106569
0.000111578
0.000116705
0.000121953
0.000127321
0.00013281
0.000138419
0.000144147
0.000149992
0.00015595
0.000162019
0.000168198
0.000174502
0.000181035
3.21611e-06
4.03281e-06
4.98647e-06
6.08655e-06
7.34167e-06
8.75971e-06
1.03476e-05
1.21114e-05
1.40555e-05
1.61823e-05
1.84934e-05
2.09878e-05
2.36621e-05
2.65077e-05
2.95114e-05
3.26569e-05
3.59274e-05
3.93082e-05
4.27864e-05
4.63529e-05
5.00018e-05
5.37258e-05
5.75251e-05
6.14008e-05
6.53473e-05
6.93718e-05
7.34787e-05
7.76766e-05
8.19663e-05
8.63401e-05
9.08008e-05
9.53545e-05
0.000100001
0.000104746
0.000109597
0.000114556
0.000119624
0.000124805
0.0001301
0.000135507
0.000141028
0.000146662
0.000152407
0.00015826
0.00016422
0.000170283
0.000176443
0.000182698
0.000189043
0.000195493
0.000202149
7.32431e-06
8.70985e-06
1.02597e-05
1.19799e-05
1.38757e-05
1.59507e-05
1.82066e-05
2.06443e-05
2.32623e-05
2.60567e-05
2.90189e-05
3.21355e-05
3.53904e-05
3.87667e-05
4.22492e-05
4.58249e-05
4.94836e-05
5.32176e-05
5.70202e-05
6.08914e-05
6.4831e-05
6.88315e-05
7.29039e-05
7.70469e-05
8.12685e-05
8.55762e-05
8.99646e-05