/*--------------------------------*- C++ -*----------------------------------*\
| =========                 |                                                 |
| \\      /  F ield         | OpenFOAM: The Open Source CFD Toolbox           |
|  \\    /   O peration     | Version:  v1706                                 |
|   \\  /    A nd           | Web:      www.OpenFOAM.com                      |
|    \\/     M anipulation  |                                                 |
\*---------------------------------------------------------------------------*/
FoamFile
{
    version     2.0;
    format      ascii;
    class       volScalarField;
    location    "9e-06";
    object      Mach;
}
// * * * * * * * * * * * * * * * * * * * * * * * * * * * * * * * * * * * * * //

dimensions      [0 0 0 0 0 0 0];


internalField   nonuniform List<scalar> 
30038
(
11.2859
11.2859
11.2859
11.2859
11.2859
11.2859
11.2859
11.2859
11.2859
11.2859
11.2859
11.2859
11.2859
11.2859
11.2859
11.2859
11.2859
11.2859
11.2859
11.2859
11.2859
11.2859
11.2859
11.2859
11.2859
11.2859
11.2859
11.2859
11.2859
11.2859
11.2859
11.2859
11.2859
11.2859
11.2859
11.2859
11.2859
11.2859
11.2859
11.2859
11.2859
11.2859
11.2859
11.2859
11.2859
11.2859
11.2859
11.2859
11.2859
11.2859
11.2859
11.2859
11.2859
11.2859
11.2859
11.2859
11.2859
11.2859
11.2859
11.2859
11.2859
11.2859
11.2859
11.2859
11.2859
11.2859
11.2859
11.2859
11.2859
11.2859
11.2859
11.2859
11.2859
11.2859
11.2859
11.2859
11.2859
11.2859
11.2859
11.2859
11.2859
11.2859
11.2859
11.2859
11.2859
11.2859
11.2859
11.2859
11.2859
11.2859
11.2859
11.2859
11.2859
11.2859
11.2859
11.2859
11.2859
11.2859
11.2859
11.2859
11.2859
11.2859
11.2859
11.2859
11.2859
11.2859
11.2859
11.2859
11.2859
11.2859
11.2859
11.2859
11.2859
11.2859
11.2859
11.2859
11.2859
11.2859
11.2859
11.2859
11.2859
11.2859
11.2859
11.2859
11.2859
11.2859
11.2859
11.2859
11.2859
11.2859
11.2859
11.2859
11.2859
11.2859
11.2859
11.2859
11.2859
11.2859
11.2859
11.2859
11.2859
11.2859
11.2859
11.2859
11.2859
11.2859
11.2859
11.2859
11.2859
11.2859
11.2859
11.2859
11.2859
11.2859
11.2859
11.2859
11.2859
11.2859
11.2859
11.2859
11.2859
11.2859
11.2859
11.2859
11.2859
11.2859
11.2859
11.2859
11.2859
11.2859
11.2859
11.2859
11.2859
11.2859
11.2859
11.2859
11.2859
11.2859
11.2859
11.2859
11.2859
11.2859
11.2859
11.2859
11.2859
11.2859
11.2859
11.2859
11.2859
11.2859
11.2859
11.2859
11.2859
11.2859
11.2859
11.2859
11.2859
11.2859
11.2859
11.2859
11.2859
11.2859
11.2859
11.2859
11.2859
11.2859
11.2859
11.2859
11.2859
11.2859
11.2859
11.2859
11.2859
11.2859
11.2859
11.2859
11.2859
11.2859
11.2859
11.2859
11.2859
11.2859
11.2859
11.2859
11.2859
11.2859
11.2859
11.2859
11.2859
11.2859
11.2859
11.2859
11.2859
11.2859
11.2859
11.2859
11.2859
11.2859
11.2859
11.2859
11.2859
11.2859
11.2859
11.2859
11.2859
11.2859
11.2859
11.2859
11.2859
11.2859
11.2859
11.2859
11.2859
11.2859
11.2859
11.2859
11.2859
11.2859
11.2859
11.2859
11.2859
11.2859
11.2859
11.2859
11.2859
11.2859
11.2859
11.2859
11.2859
11.2859
11.2859
11.2859
11.2859
11.2859
11.2859
11.2859
11.2859
11.2859
11.2859
11.2859
11.2859
11.2859
11.2859
11.2859
11.2859
11.2859
11.2859
11.2859
11.2859
11.2859
11.2859
11.2859
11.2859
11.2859
11.2859
11.2859
11.2859
11.2859
11.2859
11.2859
11.2859
11.2859
11.2859
11.2859
11.2859
11.2859
11.2859
11.2859
11.2859
11.2859
11.2859
11.2859
11.2859
11.2859
11.2859
11.2859
11.2859
11.2859
11.2859
11.2859
11.2859
11.2859
11.2859
11.2859
11.2859
11.2859
11.2859
11.2859
11.2859
11.2859
11.2859
11.2859
11.2859
11.2859
11.2859
11.2859
11.2859
11.2859
11.2859
11.2859
11.2859
11.2859
11.2859
11.2859
11.2859
11.2859
11.2859
11.2859
11.2859
11.2859
11.2859
11.2859
11.2859
11.2859
11.2859
11.2859
11.2859
11.2859
11.2859
11.2859
11.2859
11.2859
11.2859
11.2859
11.2859
11.2859
11.2859
11.2859
11.2859
11.2859
11.2859
11.2859
11.2859
11.2859
11.2859
11.2859
11.2859
11.2859
11.2859
11.2859
11.2859
11.2859
11.2859
11.2859
11.2859
11.2859
11.2859
11.2859
11.2859
11.2859
11.2859
11.2859
11.2859
11.2859
11.2859
11.2859
11.2859
11.2859
11.2859
11.2859
11.2859
11.2859
11.2859
11.2859
11.2859
11.2859
11.2859
11.2859
11.2859
11.2859
11.2859
11.2859
11.2859
11.2859
11.2859
11.2859
11.2859
11.2859
11.2859
11.2859
11.2859
11.2859
11.2859
11.2859
11.2859
11.2859
11.2859
11.2859
11.2859
11.2859
11.2859
11.2859
11.2859
11.2859
11.2859
11.2859
11.2859
11.2859
11.2859
11.2859
11.2859
11.2859
11.2859
11.2859
11.2859
11.2859
11.2859
11.2859
11.2859
11.2859
11.2859
11.2859
11.2859
11.2859
11.2859
11.2859
11.2859
11.2859
11.2859
11.2859
11.2859
11.2859
11.2859
11.2859
11.2859
11.2859
11.2859
11.2859
11.2859
11.2859
11.2859
11.2859
11.2859
11.2859
11.2859
11.2859
11.2859
11.2859
11.2859
11.2859
11.2859
11.2859
11.2859
11.2859
11.2859
11.2859
11.2859
11.2859
11.2859
11.2859
11.2859
11.2859
11.2859
11.2859
11.2859
11.2859
11.2859
11.2859
11.2859
11.2859
11.2859
11.2859
11.2859
11.2859
11.2859
11.2859
11.2859
11.2859
11.2859
11.2859
11.2859
11.2859
11.2859
11.2859
11.2859
11.2859
11.2859
11.2859
11.2859
11.2859
11.2859
11.2859
11.2859
11.2859
11.2859
11.2859
11.2859
11.2859
11.2859
11.2859
11.2859
11.2859
11.2859
11.2859
11.2859
11.2859
11.2859
11.2859
11.2859
11.2859
11.2859
11.2859
11.2859
11.2859
11.2859
11.2859
11.2859
11.2859
11.2859
11.2859
11.2859
11.2859
11.2859
11.2859
11.2859
11.2859
11.2859
11.2859
11.2859
11.2859
11.2859
11.2859
11.2859
11.2859
11.2859
11.2859
11.2859
11.2859
11.2859
11.2859
11.2859
11.2859
11.2859
11.2859
11.2859
11.2859
11.2859
11.2859
11.2859
11.2859
11.2859
11.2859
11.2859
11.2859
11.2859
11.2859
11.2859
11.2859
11.2859
11.2859
11.2859
11.2859
11.2859
11.2859
11.2859
11.2859
11.2859
11.2859
11.2859
11.2859
11.2859
11.2859
11.2859
11.2859
11.2859
11.2859
11.2859
11.2859
11.2859
11.2859
11.2859
11.2859
11.2859
11.2859
11.2859
11.2859
11.2859
11.2859
11.2859
11.2859
11.2859
11.2859
11.2859
11.2859
11.2859
11.2859
11.2859
11.2859
11.2859
11.2859
11.2859
11.2859
11.2859
11.2859
11.2859
11.2859
11.2859
11.2859
11.2859
11.2859
11.2859
11.2859
11.2859
11.2859
11.2859
11.2859
11.2859
11.2859
11.2859
11.2859
11.2859
11.2859
11.2859
11.2859
11.2859
11.2859
11.2859
11.2859
11.2859
11.2859
11.2859
11.2859
11.2859
11.2859
11.2859
11.2859
11.2859
11.2859
11.2859
11.2859
11.2859
11.2859
11.2859
11.2859
11.2859
11.2859
11.2859
11.2859
11.2859
11.2859
11.2859
11.2859
11.2859
11.2859
11.2859
11.2859
11.2859
11.2859
11.2859
11.2859
11.2859
11.2859
11.2859
11.2859
11.2859
11.2859
11.2859
11.2859
11.2859
11.2859
11.2859
11.2859
11.2859
11.2859
11.2859
11.2859
11.2859
11.2859
11.2859
11.2859
11.2859
11.2859
11.2859
11.2859
11.2859
11.2859
11.2859
11.2859
11.2859
11.2859
11.2859
11.2859
11.2859
11.2859
11.2859
11.2859
11.2859
11.2859
11.2859
11.2859
11.2859
11.2859
11.2859
11.2859
11.2859
11.2859
11.2859
11.2859
11.2859
11.2859
11.2859
11.2859
11.2859
11.2859
11.2859
11.2859
11.2859
11.2859
11.2859
11.2859
11.2859
11.2859
11.2859
11.2859
11.2859
11.2859
11.2859
11.2859
11.2859
11.2859
11.2859
11.2859
11.2859
11.2859
11.2859
11.2859
11.2859
11.2859
11.2859
11.2859
11.2859
11.2859
11.2859
11.2859
11.2859
11.2859
11.2859
11.2859
11.2859
11.2859
11.2859
11.2859
11.2859
11.2859
11.2859
11.2859
11.2859
11.2859
11.2859
11.2859
11.2859
11.2859
11.2859
11.2859
11.2859
11.2859
11.2859
11.2859
11.2859
11.2859
11.2859
11.2859
11.2859
11.2859
11.2859
11.2859
11.2859
11.2859
11.2859
11.2859
11.2859
11.2859
11.2859
11.2859
11.2859
11.2859
11.2859
11.2859
11.2859
11.2859
11.2859
11.2859
11.2859
11.2859
11.2859
11.2859
11.2859
11.2859
11.2859
11.2859
11.2859
11.2859
11.2859
11.2859
11.2859
11.2859
11.2859
11.2859
11.2859
11.2859
11.2859
11.2859
11.2859
11.2859
11.2859
11.2859
11.2859
11.2859
11.2859
11.2859
11.2859
11.2859
11.2859
11.2859
11.2859
11.2859
11.2859
11.2859
11.2859
11.2859
11.2859
11.2859
11.2859
11.2859
11.2859
11.2859
11.2859
11.2859
11.2859
11.2859
11.2859
11.2859
11.2859
11.2859
11.2859
11.2859
11.2859
11.2859
11.2859
11.2859
11.2859
11.2859
11.2859
11.2859
11.2859
11.2859
11.2859
11.2859
11.2859
11.2859
11.2859
11.2859
11.2859
11.2859
11.2859
11.2859
11.2859
11.2859
11.2859
11.2859
11.2859
11.2859
11.2859
11.2859
11.2859
11.2859
11.2859
11.2859
11.2859
11.2859
11.2859
11.2859
11.2859
11.2859
11.2859
11.2859
11.2859
11.2859
11.2859
11.2859
11.2859
11.2859
11.2859
11.2859
11.2859
11.2859
11.2859
11.2859
11.2859
11.2859
11.2859
11.2859
11.2859
11.2859
11.2859
11.2859
11.2859
11.2859
11.2859
11.2859
11.2859
11.2859
11.2859
11.2859
11.2859
11.2859
11.2859
11.2859
11.2859
11.2859
11.2859
11.2859
11.2859
11.2859
11.2859
11.2859
11.2859
11.2859
11.2859
11.2859
11.2859
11.2859
11.2859
11.2859
11.2859
11.2859
11.2859
11.2859
11.2859
11.2859
11.2859
11.2859
11.2859
11.2859
11.2859
11.2859
11.2859
11.2859
11.2859
11.2859
11.2859
11.2859
11.2859
11.2859
11.2859
11.2859
11.2859
11.2859
11.2859
11.2859
11.2859
11.2859
11.2859
11.2859
11.2859
11.2859
11.2859
11.2859
11.2859
11.2859
11.2859
11.2859
11.2859
11.2859
11.2859
11.2859
11.2859
11.2859
11.2859
11.2859
11.2859
11.2859
11.2859
11.2859
11.2859
11.2859
11.2859
11.2859
11.2859
11.2859
11.2859
11.2859
11.2859
11.2859
11.2859
11.2859
11.2859
11.2859
11.2859
11.2859
11.2859
11.2859
11.2859
11.2859
11.2859
11.2859
11.2859
11.2859
11.2859
11.2859
11.2859
11.2859
11.2859
11.2859
11.2859
11.2859
11.2859
11.2859
11.2859
11.2859
11.2859
11.2859
11.2859
11.2859
11.2859
11.2859
11.2859
11.2859
11.2859
11.2859
11.2859
11.2859
11.2859
11.2859
11.2859
11.2859
11.2859
11.2859
11.2859
11.2859
11.2859
11.2859
11.2859
11.2859
11.2859
11.2859
11.2859
11.2859
11.2859
11.2859
11.2859
11.2859
11.2859
11.2859
11.2859
11.2859
11.2859
11.2859
11.2859
11.2859
11.2859
11.2859
11.2859
11.2859
11.2859
11.2859
11.2859
11.2859
11.2859
11.2859
11.2859
11.2859
11.2859
11.2859
11.2859
11.2859
11.2859
11.2859
11.2859
11.2859
11.2859
11.2859
11.2859
11.2859
11.2859
11.2859
11.2859
11.2859
11.2859
11.2859
11.2859
11.2859
11.2859
11.2859
11.2859
11.2859
11.2859
11.2859
11.2859
11.2859
11.2859
11.2859
11.2859
11.2859
11.2859
11.2859
11.2859
11.2859
11.2859
11.2858
11.2858
11.2858
11.2859
11.2859
11.2859
11.2859
11.2859
11.2859
11.2859
11.2859
11.2859
11.2859
11.2859
11.2859
11.2859
11.2859
11.2859
11.2859
11.2859
11.2859
11.2859
11.2859
11.2859
11.2859
11.2859
11.2859
11.2859
11.2859
11.2859
11.2859
11.2859
11.2859
11.2859
11.2859
11.2859
11.2859
11.2859
11.2859
11.2859
11.2859
11.2859
11.2859
11.2859
11.2859
11.2859
11.2859
11.2858
11.2858
11.2858
11.2858
11.2857
11.2855
11.2859
11.2859
11.2859
11.2859
11.2859
11.2859
11.2859
11.2859
11.2859
11.2859
11.2859
11.2859
11.2859
11.2859
11.2859
11.2859
11.2859
11.2859
11.2859
11.2859
11.2859
11.2859
11.2859
11.2859
11.2859
11.2859
11.2859
11.2859
11.2859
11.2859
11.2859
11.2859
11.2859
11.2859
11.2859
11.2859
11.2859
11.2859
11.2859
11.2859
11.2859
11.2858
11.2858
11.2858
11.2858
11.2857
11.2856
11.2854
11.2849
11.284
11.2859
11.2859
11.2859
11.2859
11.2859
11.2859
11.2859
11.2859
11.2859
11.2859
11.2859
11.2859
11.2859
11.2859
11.2859
11.2859
11.2859
11.2859
11.2859
11.2859
11.2859
11.2859
11.2859
11.2859
11.2859
11.2859
11.2859
11.2859
11.2859
11.2859
11.2859
11.2859
11.2859
11.2859
11.2859
11.2859
11.2859
11.2859
11.2858
11.2858
11.2858
11.2858
11.2857
11.2856
11.2854
11.285
11.2843
11.2829
11.2804
11.2752
11.2859
11.2859
11.2859
11.2859
11.2859
11.2859
11.2859
11.2859
11.2859
11.2859
11.2859
11.2859
11.2859
11.2859
11.2859
11.2859
11.2859
11.2859
11.2859
11.2859
11.2859
11.2859
11.2859
11.2859
11.2859
11.2859
11.2859
11.2859
11.2859
11.2859
11.2859
11.2859
11.2859
11.2859
11.2859
11.2858
11.2858
11.2858
11.2858
11.2857
11.2856
11.2854
11.285
11.2844
11.2831
11.2809
11.2768
11.2691
11.2546
11.226
11.2859
11.2859
11.2859
11.2859
11.2859
11.2859
11.2859
11.2859
11.2859
11.2859
11.2859
11.2859
11.2859
11.2859
11.2859
11.2859
11.2859
11.2859
11.2859
11.2859
11.2859
11.2859
11.2859
11.2859
11.2859
11.2859
11.2859
11.2859
11.2859
11.2859
11.2859
11.2858
11.2858
11.2858
11.2858
11.2858
11.2857
11.2856
11.2854
11.285
11.2844
11.2833
11.2812
11.2774
11.2704
11.2578
11.2347
11.1926
11.1154
10.9715
11.2859
11.2859
11.2859
11.2859
11.2859
11.2859
11.2859
11.2859
11.2859
11.2859
11.2859
11.2859
11.2859
11.2859
11.2859
11.2859
11.2859
11.2859
11.2859
11.2859
11.2859
11.2859
11.2859
11.2859
11.2859
11.2859
11.2859
11.2859
11.2858
11.2858
11.2858
11.2858
11.2858
11.2857
11.2856
11.2854
11.285
11.2844
11.2833
11.2813
11.2777
11.2712
11.2596
11.2386
11.201
11.1338
11.0152
10.8114
10.4742
9.94821
11.2859
11.2859
11.2859
11.2859
11.2859
11.2859
11.2859
11.2859
11.2859
11.2859
11.2859
11.2859
11.2859
11.2859
11.2859
11.2859
11.2859
11.2859
11.2859
11.2859
11.2859
11.2859
11.2859
11.2859
11.2859
11.2858
11.2858
11.2858
11.2858
11.2858
11.2857
11.2856
11.2854
11.285
11.2843
11.2832
11.2812
11.2777
11.2715
11.2604
11.2408
11.206
11.1446
11.0376
10.8553
10.5571
10.0991
9.45682
8.64835
7.74569
11.2859
11.2859
11.2859
11.2859
11.2859
11.2859
11.2859
11.2859
11.2859
11.2859
11.2859
11.2859
11.2859
11.2859
11.2859
11.2859
11.2859
11.2859
11.2859
11.2859
11.2859
11.2859
11.2858
11.2858
11.2858
11.2858
11.2857
11.2857
11.2855
11.2853
11.2849
11.2842
11.2831
11.281
11.2775
11.2713
11.2605
11.2416
11.2084
11.1506
11.0511
10.8831
10.6097
10.1898
9.59621
8.84066
7.9826
7.10696
6.28316
5.55648
11.2859
11.2859
11.2859
11.2859
11.2859
11.2859
11.2859
11.2859
11.2859
11.2859
11.2859
11.2859
11.2859
11.2859
11.2859
11.2859
11.2859
11.2859
11.2858
11.2858
11.2858
11.2858
11.2858
11.2857
11.2856
11.2855
11.2852
11.2848
11.2841
11.2828
11.2807
11.2771
11.2707
11.2598
11.241
11.2084
11.1525
11.0573
10.8983
10.6417
10.2488
9.69157
8.97523
8.14949
7.29227
6.476
5.74472
5.11383
4.57722
4.12826
11.2859
11.2859
11.2859
11.2859
11.2859
11.2859
11.2859
11.2859
11.2859
11.2859
11.2859
11.2859
11.2859
11.2859
11.2859
11.2858
11.2858
11.2858
11.2858
11.2858
11.2857
11.2856
11.2854
11.2851
11.2847
11.2839
11.2825
11.2802
11.2763
11.2697
11.2584
11.2391
11.2062
11.1505
11.0569
10.9026
10.6559
10.2809
9.75022
9.06526
8.26836
7.43062
6.62229
5.88993
5.25231
4.70904
4.25007
3.86341
3.53482
3.25835
11.2859
11.2859
11.2859
11.2859
11.2859
11.2859
11.2859
11.2859
11.2859
11.2859
11.2859
11.2858
11.2858
11.2858
11.2858
11.2858
11.2857
11.2857
11.2855
11.2853
11.285
11.2844
11.2835
11.282
11.2794
11.2752
11.268
11.2559
11.2356
11.2016
11.1445
11.0501
10.8964
10.6538
10.2887
9.77537
9.11411
8.34227
7.52492
6.72885
6.00069
5.36144
4.81303
4.34744
3.95331
3.6194
3.33575
3.09491
2.88974
2.7189
11.2859
11.2859
11.2859
11.2859
11.2859
11.2859
11.2859
11.2858
11.2858
11.2858
11.2858
11.2858
11.2858
11.2857
11.2856
11.2855
11.2852
11.2848
11.2841
11.2831
11.2813
11.2784
11.2736
11.2656
11.2524
11.2304
11.1941
11.1341
11.0363
10.8794
10.6352
10.2727
9.76865
9.12373
8.37267
7.57562
6.7952
6.07646
5.44116
4.89271
4.42455
4.02631
3.68739
3.39844
3.15166
2.94136
2.76367
2.61695
2.49914
2.40848
11.2859
11.2859
11.2859
11.2858
11.2858
11.2858
11.2858
11.2858
11.2858
11.2857
11.2857
11.2855
11.2853
11.285
11.2845
11.2837
11.2824
11.2803
11.2769
11.2713
11.2622
11.2474
11.223
11.1832
11.1185
11.0145
10.8504
10.5994
10.2327
9.73028
9.09499
8.36057
7.58324
6.82108
6.11637
5.49019
4.94672
4.48041
4.08182
3.74105
3.44917
3.19874
2.98387
2.80054
2.6464
2.52039
2.4213
2.34691
2.29297
2.25456
11.2858
11.2858
11.2858
11.2858
11.2858
11.2857
11.2857
11.2856
11.2854
11.2852
11.2848
11.2841
11.2831
11.2815
11.279
11.2749
11.2682
11.2576
11.2403
11.2125
11.1678
11.0962
10.983
10.8076
10.5442
10.1668
9.65923
9.02777
8.30651
7.54842
6.8068
6.12016
5.50787
4.97408
4.51388
4.11868
3.77921
3.4871
3.23529
3.01803
2.83115
2.67197
2.53922
2.43216
2.34941
2.28813
2.2444
2.21403
2.19308
2.17806
11.2858
11.2857
11.2857
11.2856
11.2855
11.2852
11.2849
11.2844
11.2836
11.2823
11.2802
11.277
11.2719
11.2639
11.251
11.2306
11.198
11.1465
11.0653
10.9393
10.7478
10.4662
10.0719
9.55331
8.92114
8.21066
7.47191
6.7531
6.08824
5.4942
4.97443
4.52438
4.13609
3.801
3.51131
3.26038
3.0428
2.85437
2.69228
2.55496
2.4418
2.352
2.28376
2.23393
2.19878
2.17444
2.15769
2.14615
2.13788
2.13184
11.2856
11.2855
11.2853
11.285
11.2845
11.2838
11.2827
11.281
11.2784
11.2742
11.2678
11.2577
11.2418
11.2169
11.1779
11.117
11.0229
10.8796
10.6666
10.3609
9.94375
9.40944
8.77364
8.07306
7.35468
6.66123
6.02167
5.44986
4.94806
4.51183
4.13375
3.80595
3.52119
3.27333
3.05735
2.86922
2.7061
2.56623
2.44888
2.35361
2.27936
2.22386
2.1839
2.15597
2.13667
2.1234
2.11424
2.10785
2.10371
2.10064
2.09909
11.2846
11.2839
11.283
11.2815
11.2791
11.2756
11.2702
11.2618
11.2488
11.2287
11.1976
11.1497
11.0762
10.9648
10.7989
10.5581
10.2222
9.77715
9.224
8.5837
7.89398
7.19817
6.53303
5.9222
5.37618
4.89587
4.47673
4.11183
3.79394
3.51645
3.27373
3.06117
2.87505
2.71256
2.57189
2.45217
2.35309
2.27408
2.21363
2.16915
2.13753
2.1156
2.10052
2.0903
2.08303
2.07821
2.07515
2.07339
2.0722
2.07176
2.07161
11.2816
11.2795
11.2763
11.2715
11.2641
11.2529
11.2358
11.2097
11.1701
11.1099
11.0195
10.8852
10.69
10.4148
10.0427
9.56621
8.99343
8.35025
7.67436
7.00449
6.37104
5.79221
5.27514
4.81933
4.42008
4.07093
3.76528
3.49714
3.26145
3.054
2.87142
2.71107
2.57115
2.45069
2.3494
2.26697
2.2025
2.15407
2.11901
2.09439
2.07738
2.06578
2.05793
2.05253
2.04925
2.04686
2.04636
2.04556
2.04564
2.04609
2.04681
2.04722
11.2651
11.2549
11.2396
11.2166
11.1821
11.1303
11.0534
10.94
10.7759
10.5439
10.2273
9.81446
9.30523
8.71505
8.07341
7.41627
6.77673
6.17856
5.63473
5.14928
4.72043
4.34337
4.01209
3.72064
3.46367
3.23665
3.03581
2.85817
2.70129
2.56348
2.44372
2.34166
2.25719
2.1898
2.13814
2.1
2.07281
2.05393
2.04102
2.03234
2.02638
2.02259
2.02038
2.0192
2.01887
2.01899
2.01963
2.02053
2.02147
2.02248
2.02371
2.02472
11.1878
11.141
11.0723
10.9722
10.8284
10.6259
10.3491
9.98519
9.52942
8.98985
8.38814
7.75518
7.12328
6.519
5.95964
5.45339
5.00165
4.60162
4.24848
3.93674
3.66105
3.41672
3.19974
3.00683
2.83534
2.68311
2.54858
2.43075
2.32925
2.24403
2.17483
2.12077
2.08014
2.0507
2.03002
2.01578
2.00621
1.99985
1.99568
1.99324
1.99179
1.99178
1.99188
1.99253
1.99364
1.99497
1.99604
1.99755
1.99909
2.00054
2.00199
2.00326
10.8553
10.6716
10.4215
10.0926
9.67804
9.18148
8.61856
8.01488
7.39996
6.80063
6.23656
5.71906
5.25233
4.83569
4.46568
4.13763
3.84656
3.58779
3.35723
3.15142
2.96751
2.8032
2.65663
2.52638
2.41155
2.31174
2.22691
2.15702
2.10149
2.05902
2.02773
2.00545
1.99002
1.97962
1.97275
1.96824
1.9656
1.96428
1.96389
1.96435
1.96505
1.96626
1.9678
1.96936
1.97089
1.97271
1.97443
1.97619
1.97794
1.97962
1.98127
1.98277
9.76127
9.29795
8.76853
8.1942
7.60111
7.0147
6.45517
5.93555
5.46211
5.03599
4.65509
4.31563
4.01322
3.74349
3.50237
3.28637
3.09254
2.91847
2.76219
2.62211
2.497
2.38605
2.28889
2.2055
2.13592
2.0798
2.03621
2.00359
1.98007
1.96361
1.95242
1.94508
1.94036
1.93754
1.93613
1.93561
1.93624
1.93716
1.93841
1.94018
1.94204
1.94374
1.94574
1.94784
1.94986
1.95189
1.95388
1.95583
1.95776
1.95965
1.96151
1.96324
7.72489
7.15634
6.6085
6.0948
5.62259
5.19428
4.80892
4.46358
4.15453
3.87779
3.62957
3.40643
3.20545
3.02415
2.86052
2.7129
2.57997
2.46069
2.35436
2.26067
2.17958
2.11121
2.05538
2.0114
1.97803
1.95362
1.93635
1.92457
1.91684
1.91188
1.90892
1.90753
1.9071
1.90759
1.90884
1.91016
1.912
1.91415
1.91627
1.91832
1.92069
1.92299
1.92529
1.92758
1.92983
1.93205
1.93423
1.93639
1.93852
1.94061
1.94268
1.94462
5.72781
5.30429
4.9209
4.57546
4.2648
3.98542
3.73385
3.50691
3.30173
3.1159
2.9474
2.79458
2.65606
2.53078
2.41786
2.31675
2.22717
2.14912
2.08275
2.02798
1.98432
1.95076
1.92592
1.90819
1.89597
1.8879
1.88278
1.87981
1.87844
1.87804
1.8785
1.87988
1.88157
1.88343
1.88584
1.88824
1.8905
1.89304
1.89567
1.89822
1.90079
1.90332
1.90581
1.90827
1.91071
1.91311
1.91549
1.91785
1.92018
1.92247
1.92475
1.9269
4.06211
3.81114
3.58383
3.37755
3.18998
3.01918
2.86351
2.72165
2.5925
2.47519
2.36903
2.27359
2.18864
2.11423
2.05051
1.99749
1.9548
1.92163
1.89681
1.87891
1.86647
1.85825
1.85313
1.85013
1.84877
1.84849
1.84912
1.85049
1.85248
1.85445
1.85696
1.85972
1.86234
1.86493
1.86784
1.87067
1.8735
1.87632
1.87909
1.88182
1.88453
1.8872
1.88984
1.89246
1.89506
1.89763
1.90018
1.9027
1.90519
1.90766
1.91
3.24343
3.07287
2.91672
2.77372
2.64279
2.52309
2.41394
2.3148
2.22535
2.14543
2.07513
2.01461
1.9639
1.92276
1.89052
1.86615
1.84844
1.83607
1.82786
1.82274
1.81979
1.81859
1.81854
1.81923
1.82068
1.82278
1.82527
1.82772
1.83076
1.83367
1.83647
1.83956
1.8427
1.84576
1.84885
1.85189
1.8549
1.85787
1.86081
1.86371
1.86659
1.86944
1.87227
1.87507
1.87785
1.88061
1.88334
1.88605
1.88872
1.89137
1.89389
2.67923
2.55906
2.44876
2.34781
2.25583
2.17257
2.09798
2.03214
1.97525
1.92735
1.88824
1.85739
1.8339
1.81671
1.80467
1.79662
1.79167
1.78896
1.78789
1.78799
1.7888
1.7905
1.79269
1.79546
1.7981
1.80128
1.80461
1.8077
1.81086
1.81427
1.8176
1.82093
1.82426
1.82753
1.83076
1.83396
1.83712
1.84026
1.84336
1.84643
1.84948
1.85251
1.85551
1.8585
1.86145
1.86439
1.8673
1.87018
1.87302
1.87582
1.87851
2.1928
2.11586
2.04677
1.98567
1.93273
1.88801
1.85135
1.82229
1.80005
1.7837
1.77222
1.76455
1.75989
1.75748
1.75659
1.75694
1.75811
1.75993
1.76225
1.76513
1.76829
1.77141
1.77504
1.77846
1.78177
1.78542
1.78905
1.79261
1.79619
1.79973
1.80322
1.80668
1.8101
1.81348
1.81683
1.82015
1.82345
1.82671
1.82996
1.83317
1.83637
1.83954
1.84269
1.84582
1.84892
1.85199
1.85503
1.85803
1.86098
1.86382
1.93616
1.88742
1.84617
1.81229
1.78536
1.76468
1.74944
1.73875
1.73166
1.7274
1.72534
1.72475
1.72539
1.72689
1.72885
1.73143
1.73446
1.738
1.74124
1.74507
1.74886
1.75242
1.75618
1.76008
1.76387
1.7677
1.77151
1.77526
1.77897
1.78265
1.78628
1.78988
1.79344
1.79698
1.80048
1.80396
1.80741
1.81084
1.81424
1.81762
1.82098
1.82431
1.82762
1.83091
1.83416
1.83738
1.84057
1.8437
1.84679
1.84976
1.7713
1.74675
1.72789
1.71401
1.70432
1.69795
1.69424
1.69263
1.69242
1.69335
1.69517
1.69737
1.70021
1.70342
1.70714
1.71079
1.71467
1.71884
1.72269
1.72654
1.73071
1.7348
1.73885
1.74291
1.74691
1.75087
1.75479
1.75867
1.76251
1.76632
1.7701
1.77384
1.77754
1.78122
1.78488
1.78851
1.79211
1.79569
1.79925
1.80278
1.80629
1.80978
1.81324
1.81666
1.82006
1.82342
1.82674
1.83
1.83321
1.83629
1.67751
1.66897
1.66348
1.66043
1.65934
1.65959
1.66087
1.66303
1.66557
1.66864
1.67206
1.67596
1.68006
1.68398
1.68839
1.69259
1.69664
1.70101
1.70536
1.70962
1.71392
1.71818
1.72238
1.72655
1.73068
1.73476
1.73881
1.74281
1.74678
1.75073
1.75463
1.75851
1.76236
1.76619
1.76999
1.77376
1.77751
1.78124
1.78494
1.78862
1.79227
1.7959
1.79949
1.80305
1.80658
1.81006
1.81349
1.81686
1.82017
1.82335
1.62603
1.62552
1.62627
1.62796
1.63047
1.63338
1.63668
1.64036
1.64447
1.64893
1.65304
1.65763
1.66218
1.66647
1.67096
1.67556
1.68005
1.68457
1.68909
1.69353
1.69794
1.70231
1.70663
1.71091
1.71515
1.71936
1.72352
1.72766
1.73176
1.73583
1.73987
1.74389
1.74787
1.75184
1.75577
1.75968
1.76357
1.76744
1.77128
1.77509
1.77887
1.78262
1.78634
1.79003
1.79367
1.79726
1.80079
1.80426
1.80765
1.81091
1.59466
1.59754
1.60082
1.60438
1.60834
1.61266
1.61731
1.62183
1.62655
1.63142
1.63596
1.64056
1.64544
1.65019
1.65492
1.65966
1.66433
1.66897
1.67358
1.67814
1.68265
1.68712
1.69155
1.69594
1.7003
1.70463
1.70892
1.71317
1.7174
1.7216
1.72577
1.72992
1.73403
1.73813
1.74219
1.74624
1.75025
1.75425
1.75821
1.76215
1.76605
1.76992
1.77375
1.77754
1.78128
1.78497
1.78859
1.79213
1.7956
1.79892
1.57179
1.57601
1.58059
1.58547
1.59031
1.59519
1.60027
1.60514
1.60993
1.61501
1.62001
1.62493
1.6299
1.63483
1.63969
1.64452
1.6493
1.65403
1.65873
1.66339
1.66801
1.67259
1.67713
1.68163
1.68611
1.69055
1.69496
1.69934
1.70368
1.70801
1.7123
1.71657
1.72081
1.72503
1.72922
1.73338
1.73752
1.74163
1.74571
1.74976
1.75377
1.75774
1.76167
1.76555
1.76938
1.77315
1.77684
1.78045
1.78397
1.78733
1.55846
1.56361
1.5689
1.57404
1.57906
1.5843
1.58953
1.59467
1.59985
1.605
1.61009
1.61514
1.62015
1.62511
1.63002
1.6349
1.63973
1.64453
1.64929
1.65401
1.65869
1.66334
1.66795
1.67254
1.67709
1.68161
1.68611
1.69057
1.69501
1.69942
1.70381
1.70816
1.71249
1.7168
1.72108
1.72532
1.72954
1.73373
1.73787
1.74198
1.74605
1.75006
1.75403
1.75793
1.76176
1.76551
1.76916
1.77272
1.77612
1.54266
1.54793
1.55333
1.55879
1.56416
1.56953
1.57489
1.58019
1.58546
1.59068
1.59586
1.601
1.60609
1.61113
1.61614
1.62111
1.62603
1.63093
1.63578
1.64061
1.64539
1.65015
1.65487
1.65956
1.66422
1.66885
1.67346
1.67803
1.68258
1.6871
1.69159
1.69606
1.7005
1.70491
1.70929
1.71363
1.71795
1.72223
1.72646
1.73066
1.7348
1.73889
1.74292
1.74688
1.75076
1.75455
1.75824
1.76182
1.76523
1.52781
1.53339
1.53896
1.54453
1.55004
1.55551
1.56094
1.56633
1.57167
1.57697
1.58223
1.58744
1.59261
1.59775
1.60284
1.6079
1.61292
1.61791
1.62287
1.62778
1.63267
1.63752
1.64235
1.64714
1.65191
1.65664
1.66135
1.66602
1.67068
1.6753
1.67989
1.68446
1.68899
1.6935
1.69797
1.70241
1.70681
1.71117
1.71549
1.71975
1.72396
1.72811
1.73219
1.73619
1.74011
1.74393
1.74764
1.75123
1.75464
1.51964
1.52531
1.53094
1.53653
1.54207
1.54757
1.55303
1.55845
1.56382
1.56916
1.57445
1.57971
1.58493
1.59011
1.59526
1.60037
1.60545
1.6105
1.61551
1.62049
1.62544
1.63036
1.63525
1.64011
1.64494
1.64975
1.65452
1.65927
1.66399
1.66867
1.67333
1.67795
1.68254
1.6871
1.69162
1.69609
1.70052
1.7049
1.70923
1.71349
1.71769
1.72181
1.72584
1.72978
1.73362
1.73733
1.74092
1.74431
1.50649
1.51223
1.51792
1.52357
1.52918
1.53475
1.54028
1.54577
1.55122
1.55663
1.56201
1.56735
1.57265
1.57792
1.58315
1.58835
1.59352
1.59865
1.60375
1.60883
1.61387
1.61888
1.62386
1.62881
1.63373
1.63863
1.64349
1.64832
1.65313
1.6579
1.66263
1.66734
1.67201
1.67663
1.68122
1.68576
1.69025
1.69468
1.69905
1.70336
1.70759
1.71174
1.71579
1.71974
1.72358
1.72729
1.73086
1.73421
1.49967
1.50543
1.51114
1.51682
1.52246
1.52806
1.53362
1.53914
1.54463
1.55009
1.5555
1.56089
1.56623
1.57155
1.57683
1.58208
1.5873
1.59249
1.59764
1.60277
1.60786
1.61293
1.61797
1.62297
1.62795
1.63289
1.63781
1.64269
1.64753
1.65234
1.65712
1.66185
1.66654
1.67118
1.67577
1.68031
1.68479
1.6892
1.69353
1.69778
1.70195
1.70601
1.70996
1.71378
1.71746
1.72099
1.7243
1.48762
1.49344
1.49922
1.50496
1.51067
1.51634
1.52197
1.52756
1.53313
1.53865
1.54415
1.5496
1.55503
1.56042
1.56578
1.57111
1.57641
1.58168
1.58691
1.59212
1.59729
1.60244
1.60755
1.61263
1.61768
1.6227
1.62768
1.63263
1.63755
1.64242
1.64725
1.65204
1.65678
1.66147
1.66611
1.67068
1.67519
1.67963
1.68398
1.68825
1.69241
1.69646
1.70038
1.70417
1.70781
1.71129
1.71455
1.48193
1.48778
1.49358
1.49936
1.50509
1.51079
1.51646
1.52209
1.52769
1.53325
1.53878
1.54428
1.54975
1.55518
1.56058
1.56596
1.5713
1.57661
1.58188
1.58713
1.59235
1.59753
1.60268
1.6078
1.61288
1.61793
1.62294
1.62791
1.63283
1.63772
1.64255
1.64734
1.65206
1.65673
1.66134
1.66587
1.67031
1.67466
1.67892
1.68307
1.68709
1.69099
1.69474
1.69834
1.70176
1.70495
1.47089
1.4768
1.48267
1.4885
1.4943
1.50006
1.5058
1.51149
1.51716
1.52279
1.52839
1.53396
1.53949
1.545
1.55047
1.55591
1.56132
1.56669
1.57204
1.57735
1.58263
1.58788
1.59309
1.59827
1.60341
1.60851
1.61357
1.61858
1.62356
1.62848
1.63335
1.63817
1.64293
1.64761
1.65223
1.65676
1.6612
1.66555
1.66978
1.67391
1.67791
1.68177
1.68547
1.68901
1.69237
1.69548
1.46029
1.46625
1.47218
1.47808
1.48394
1.48976
1.49556
1.50132
1.50704
1.51274
1.5184
1.52403
1.52963
1.5352
1.54074
1.54624
1.55171
1.55715
1.56255
1.56792
1.57326
1.57856
1.58383
1.58906
1.59424
1.59939
1.60449
1.60955
1.61456
1.61952
1.62442
1.62925
1.63402
1.63871
1.64332
1.64785
1.65228
1.65661
1.66083
1.66492
1.66888
1.67269
1.67634
1.67981
1.68309
1.68611
1.45011
1.45612
1.46211
1.46806
1.47397
1.47986
1.48571
1.49153
1.49732
1.50307
1.50879
1.51448
1.52014
1.52577
1.53136
1.53692
1.54245
1.54794
1.5534
1.55882
1.56421
1.56956
1.57487
1.58014
1.58537
1.59056
1.5957
1.60078
1.60581
1.61079
1.6157
1.62054
1.62531
1.63
1.63461
1.63913
1.64354
1.64785
1.65203
1.65608
1.65999
1.66374
1.66732
1.67071
1.67391
1.67683
1.44031
1.44638
1.45242
1.45842
1.46439
1.47033
1.47624
1.48211
1.48795
1.49376
1.49954
1.50528
1.51099
1.51667
1.52232
1.52793
1.5335
1.53904
1.54455
1.55002
1.55545
1.56084
1.56619
1.5715
1.57676
1.58197
1.58713
1.59223
1.59727
1.60226
1.60717
1.61202
1.61679
1.62147
1.62607
1.63056
1.63495
1.63922
1.64336
1.64736
1.65121
1.6549
1.6584
1.6617
1.66479
1.66761
1.43089
1.43701
1.44309
1.44915
1.45517
1.46116
1.46711
1.47304
1.47893
1.48479
1.49061
1.4964
1.50216
1.50789
1.51358
1.51923
1.52485
1.53044
1.53598
1.54149
1.54695
1.55237
1.55775
1.56308
1.56836
1.57359
1.57876
1.58388
1.58893
1.59392
1.59884
1.60368
1.60843
1.6131
1.61767
1.62214
1.62649
1.63071
1.6348
1.63874
1.64252
1.64613
1.64954
1.65275
1.65573
1.65842
1.42181
1.42797
1.43411
1.4402
1.44627
1.45231
1.45831
1.46428
1.47021
1.47612
1.48199
1.48782
1.49363
1.49939
1.50512
1.51082
1.51647
1.52209
1.52766
1.5332
1.53868
1.54413
1.54952
1.55487
1.56017
1.56541
1.57059
1.57571
1.58077
1.58575
1.59066
1.59549
1.60022
1.60487
1.6094
1.61383
1.61813
1.62231
1.62634
1.63021
1.63391
1.63743
1.64074
1.64384
1.6467
1.64926
1.41926
1.42544
1.43158
1.43769
1.44376
1.44981
1.45582
1.46179
1.46774
1.47365
1.47952
1.48536
1.49116
1.49692
1.50264
1.50832
1.51396
1.51956
1.52511
1.53062
1.53608
1.5415
1.54686
1.55216
1.55741
1.56259
1.56771
1.57276
1.57773
1.58262
1.58742
1.59213
1.59674
1.60124
1.60562
1.60987
1.61398
1.61794
1.62173
1.62534
1.62876
1.63197
1.63495
1.63772
1.64018
1.41085
1.41706
1.42324
1.42939
1.4355
1.44159
1.44763
1.45364
1.45962
1.46556
1.47146
1.47732
1.48315
1.48893
1.49468
1.50038
1.50605
1.51166
1.51723
1.52276
1.52823
1.53365
1.53901
1.54432
1.54956
1.55474
1.55985
1.56488
1.56983
1.5747
1.57947
1.58414
1.58871
1.59316
1.59748
1.60167
1.60571
1.60959
1.61329
1.61681
1.62013
1.62326
1.62615
1.62881
1.63116
1.40272
1.40897
1.41518
1.42136
1.4275
1.43361
1.43969
1.44572
1.45172
1.45769
1.46361
1.4695
1.47535
1.48116
1.48692
1.49264
1.49832
1.50395
1.50953
1.51506
1.52054
1.52596
1.53132
1.53662
1.54185
1.54702
1.55211
1.55711
1.56204
1.56687
1.57161
1.57624
1.58075
1.58514
1.5894
1.59352
1.59748
1.60127
1.6049
1.60834
1.61158
1.61461
1.6174
1.61992
1.62212
1.40112
1.40736
1.41356
1.41973
1.42586
1.43196
1.43802
1.44404
1.45003
1.45598
1.46188
1.46775