/*--------------------------------*- C++ -*----------------------------------*\
| =========                 |                                                 |
| \\      /  F ield         | OpenFOAM: The Open Source CFD Toolbox           |
|  \\    /   O peration     | Version:  v1706                                 |
|   \\  /    A nd           | Web:      www.OpenFOAM.com                      |
|    \\/     M anipulation  |                                                 |
\*---------------------------------------------------------------------------*/
FoamFile
{
    version     2.0;
    format      ascii;
    class       volScalarField;
    location    "9e-06";
    object      mu;
}
// * * * * * * * * * * * * * * * * * * * * * * * * * * * * * * * * * * * * * //

dimensions      [1 -1 -1 0 0 0 0];


internalField   nonuniform List<scalar> 
30038
(
1.0351e-05
1.0351e-05
1.0351e-05
1.0351e-05
1.0351e-05
1.0351e-05
1.0351e-05
1.0351e-05
1.0351e-05
1.0351e-05
1.0351e-05
1.0351e-05
1.0351e-05
1.0351e-05
1.0351e-05
1.0351e-05
1.0351e-05
1.0351e-05
1.0351e-05
1.0351e-05
1.0351e-05
1.0351e-05
1.0351e-05
1.0351e-05
1.0351e-05
1.0351e-05
1.0351e-05
1.0351e-05
1.0351e-05
1.0351e-05
1.0351e-05
1.0351e-05
1.0351e-05
1.0351e-05
1.0351e-05
1.0351e-05
1.0351e-05
1.0351e-05
1.0351e-05
1.0351e-05
1.0351e-05
1.0351e-05
1.0351e-05
1.0351e-05
1.0351e-05
1.0351e-05
1.0351e-05
1.0351e-05
1.0351e-05
1.0351e-05
1.0351e-05
1.0351e-05
1.0351e-05
1.0351e-05
1.0351e-05
1.0351e-05
1.0351e-05
1.0351e-05
1.0351e-05
1.0351e-05
1.0351e-05
1.0351e-05
1.0351e-05
1.0351e-05
1.0351e-05
1.0351e-05
1.0351e-05
1.0351e-05
1.0351e-05
1.0351e-05
1.0351e-05
1.0351e-05
1.0351e-05
1.0351e-05
1.0351e-05
1.0351e-05
1.0351e-05
1.0351e-05
1.0351e-05
1.0351e-05
1.0351e-05
1.0351e-05
1.0351e-05
1.0351e-05
1.0351e-05
1.0351e-05
1.0351e-05
1.0351e-05
1.0351e-05
1.0351e-05
1.0351e-05
1.0351e-05
1.0351e-05
1.0351e-05
1.0351e-05
1.0351e-05
1.0351e-05
1.0351e-05
1.0351e-05
1.0351e-05
1.0351e-05
1.0351e-05
1.0351e-05
1.0351e-05
1.0351e-05
1.0351e-05
1.0351e-05
1.0351e-05
1.0351e-05
1.0351e-05
1.0351e-05
1.0351e-05
1.0351e-05
1.0351e-05
1.0351e-05
1.0351e-05
1.0351e-05
1.0351e-05
1.0351e-05
1.0351e-05
1.0351e-05
1.0351e-05
1.0351e-05
1.0351e-05
1.0351e-05
1.0351e-05
1.0351e-05
1.0351e-05
1.0351e-05
1.0351e-05
1.0351e-05
1.0351e-05
1.0351e-05
1.0351e-05
1.0351e-05
1.0351e-05
1.0351e-05
1.0351e-05
1.0351e-05
1.0351e-05
1.0351e-05
1.0351e-05
1.0351e-05
1.0351e-05
1.0351e-05
1.0351e-05
1.0351e-05
1.0351e-05
1.0351e-05
1.0351e-05
1.0351e-05
1.0351e-05
1.0351e-05
1.0351e-05
1.0351e-05
1.0351e-05
1.0351e-05
1.0351e-05
1.0351e-05
1.0351e-05
1.0351e-05
1.0351e-05
1.0351e-05
1.0351e-05
1.0351e-05
1.0351e-05
1.0351e-05
1.0351e-05
1.0351e-05
1.0351e-05
1.0351e-05
1.0351e-05
1.0351e-05
1.0351e-05
1.0351e-05
1.0351e-05
1.0351e-05
1.0351e-05
1.0351e-05
1.0351e-05
1.0351e-05
1.0351e-05
1.0351e-05
1.0351e-05
1.0351e-05
1.0351e-05
1.0351e-05
1.0351e-05
1.0351e-05
1.0351e-05
1.0351e-05
1.0351e-05
1.0351e-05
1.0351e-05
1.0351e-05
1.0351e-05
1.0351e-05
1.0351e-05
1.0351e-05
1.0351e-05
1.0351e-05
1.0351e-05
1.0351e-05
1.0351e-05
1.0351e-05
1.0351e-05
1.0351e-05
1.0351e-05
1.0351e-05
1.0351e-05
1.0351e-05
1.0351e-05
1.0351e-05
1.0351e-05
1.0351e-05
1.0351e-05
1.0351e-05
1.0351e-05
1.0351e-05
1.0351e-05
1.0351e-05
1.0351e-05
1.0351e-05
1.0351e-05
1.0351e-05
1.0351e-05
1.0351e-05
1.0351e-05
1.0351e-05
1.0351e-05
1.0351e-05
1.0351e-05
1.0351e-05
1.0351e-05
1.0351e-05
1.0351e-05
1.0351e-05
1.0351e-05
1.0351e-05
1.0351e-05
1.0351e-05
1.0351e-05
1.0351e-05
1.0351e-05
1.0351e-05
1.0351e-05
1.0351e-05
1.0351e-05
1.0351e-05
1.0351e-05
1.0351e-05
1.0351e-05
1.0351e-05
1.0351e-05
1.0351e-05
1.0351e-05
1.0351e-05
1.0351e-05
1.0351e-05
1.0351e-05
1.0351e-05
1.0351e-05
1.0351e-05
1.0351e-05
1.0351e-05
1.0351e-05
1.0351e-05
1.0351e-05
1.0351e-05
1.0351e-05
1.0351e-05
1.0351e-05
1.0351e-05
1.0351e-05
1.0351e-05
1.0351e-05
1.0351e-05
1.0351e-05
1.0351e-05
1.0351e-05
1.0351e-05
1.0351e-05
1.0351e-05
1.0351e-05
1.0351e-05
1.0351e-05
1.0351e-05
1.0351e-05
1.0351e-05
1.0351e-05
1.0351e-05
1.0351e-05
1.0351e-05
1.0351e-05
1.0351e-05
1.0351e-05
1.0351e-05
1.0351e-05
1.0351e-05
1.0351e-05
1.0351e-05
1.0351e-05
1.0351e-05
1.0351e-05
1.0351e-05
1.0351e-05
1.0351e-05
1.0351e-05
1.0351e-05
1.0351e-05
1.0351e-05
1.0351e-05
1.0351e-05
1.0351e-05
1.0351e-05
1.0351e-05
1.0351e-05
1.0351e-05
1.0351e-05
1.0351e-05
1.0351e-05
1.0351e-05
1.0351e-05
1.0351e-05
1.0351e-05
1.0351e-05
1.0351e-05
1.0351e-05
1.0351e-05
1.0351e-05
1.0351e-05
1.0351e-05
1.0351e-05
1.0351e-05
1.0351e-05
1.0351e-05
1.0351e-05
1.0351e-05
1.0351e-05
1.0351e-05
1.0351e-05
1.0351e-05
1.0351e-05
1.0351e-05
1.0351e-05
1.0351e-05
1.0351e-05
1.0351e-05
1.0351e-05
1.0351e-05
1.0351e-05
1.0351e-05
1.0351e-05
1.0351e-05
1.0351e-05
1.0351e-05
1.0351e-05
1.0351e-05
1.0351e-05
1.0351e-05
1.0351e-05
1.0351e-05
1.0351e-05
1.0351e-05
1.0351e-05
1.0351e-05
1.0351e-05
1.0351e-05
1.0351e-05
1.0351e-05
1.0351e-05
1.0351e-05
1.0351e-05
1.0351e-05
1.0351e-05
1.0351e-05
1.0351e-05
1.0351e-05
1.0351e-05
1.0351e-05
1.0351e-05
1.0351e-05
1.0351e-05
1.0351e-05
1.0351e-05
1.0351e-05
1.0351e-05
1.0351e-05
1.0351e-05
1.0351e-05
1.0351e-05
1.0351e-05
1.0351e-05
1.0351e-05
1.0351e-05
1.0351e-05
1.0351e-05
1.0351e-05
1.0351e-05
1.0351e-05
1.0351e-05
1.0351e-05
1.0351e-05
1.0351e-05
1.0351e-05
1.0351e-05
1.0351e-05
1.0351e-05
1.0351e-05
1.0351e-05
1.0351e-05
1.0351e-05
1.0351e-05
1.0351e-05
1.0351e-05
1.0351e-05
1.0351e-05
1.0351e-05
1.0351e-05
1.0351e-05
1.0351e-05
1.0351e-05
1.0351e-05
1.0351e-05
1.0351e-05
1.0351e-05
1.0351e-05
1.0351e-05
1.0351e-05
1.0351e-05
1.0351e-05
1.0351e-05
1.0351e-05
1.0351e-05
1.0351e-05
1.0351e-05
1.0351e-05
1.0351e-05
1.0351e-05
1.0351e-05
1.0351e-05
1.0351e-05
1.0351e-05
1.0351e-05
1.0351e-05
1.0351e-05
1.0351e-05
1.0351e-05
1.0351e-05
1.0351e-05
1.0351e-05
1.0351e-05
1.0351e-05
1.0351e-05
1.0351e-05
1.0351e-05
1.0351e-05
1.0351e-05
1.0351e-05
1.0351e-05
1.0351e-05
1.0351e-05
1.0351e-05
1.0351e-05
1.0351e-05
1.0351e-05
1.0351e-05
1.0351e-05
1.0351e-05
1.0351e-05
1.0351e-05
1.0351e-05
1.0351e-05
1.0351e-05
1.0351e-05
1.0351e-05
1.0351e-05
1.0351e-05
1.0351e-05
1.0351e-05
1.0351e-05
1.0351e-05
1.0351e-05
1.0351e-05
1.0351e-05
1.0351e-05
1.0351e-05
1.0351e-05
1.0351e-05
1.0351e-05
1.0351e-05
1.0351e-05
1.0351e-05
1.0351e-05
1.0351e-05
1.0351e-05
1.0351e-05
1.0351e-05
1.0351e-05
1.0351e-05
1.0351e-05
1.0351e-05
1.0351e-05
1.0351e-05
1.0351e-05
1.0351e-05
1.0351e-05
1.0351e-05
1.0351e-05
1.0351e-05
1.0351e-05
1.0351e-05
1.0351e-05
1.0351e-05
1.0351e-05
1.0351e-05
1.0351e-05
1.0351e-05
1.0351e-05
1.0351e-05
1.0351e-05
1.0351e-05
1.0351e-05
1.0351e-05
1.0351e-05
1.0351e-05
1.0351e-05
1.0351e-05
1.0351e-05
1.0351e-05
1.0351e-05
1.0351e-05
1.0351e-05
1.0351e-05
1.0351e-05
1.0351e-05
1.0351e-05
1.0351e-05
1.0351e-05
1.0351e-05
1.0351e-05
1.0351e-05
1.0351e-05
1.0351e-05
1.0351e-05
1.0351e-05
1.0351e-05
1.0351e-05
1.0351e-05
1.0351e-05
1.0351e-05
1.0351e-05
1.0351e-05
1.0351e-05
1.0351e-05
1.0351e-05
1.0351e-05
1.0351e-05
1.0351e-05
1.0351e-05
1.0351e-05
1.0351e-05
1.0351e-05
1.0351e-05
1.0351e-05
1.0351e-05
1.0351e-05
1.0351e-05
1.0351e-05
1.0351e-05
1.0351e-05
1.0351e-05
1.0351e-05
1.0351e-05
1.0351e-05
1.0351e-05
1.0351e-05
1.0351e-05
1.0351e-05
1.0351e-05
1.0351e-05
1.0351e-05
1.0351e-05
1.0351e-05
1.0351e-05
1.0351e-05
1.0351e-05
1.0351e-05
1.0351e-05
1.0351e-05
1.0351e-05
1.0351e-05
1.0351e-05
1.0351e-05
1.0351e-05
1.0351e-05
1.0351e-05
1.0351e-05
1.0351e-05
1.0351e-05
1.0351e-05
1.0351e-05
1.0351e-05
1.0351e-05
1.0351e-05
1.0351e-05
1.0351e-05
1.0351e-05
1.0351e-05
1.0351e-05
1.0351e-05
1.0351e-05
1.0351e-05
1.0351e-05
1.0351e-05
1.0351e-05
1.0351e-05
1.0351e-05
1.0351e-05
1.0351e-05
1.0351e-05
1.0351e-05
1.0351e-05
1.0351e-05
1.0351e-05
1.0351e-05
1.0351e-05
1.0351e-05
1.0351e-05
1.0351e-05
1.0351e-05
1.0351e-05
1.0351e-05
1.0351e-05
1.0351e-05
1.0351e-05
1.0351e-05
1.0351e-05
1.0351e-05
1.0351e-05
1.0351e-05
1.0351e-05
1.0351e-05
1.0351e-05
1.0351e-05
1.0351e-05
1.0351e-05
1.0351e-05
1.0351e-05
1.0351e-05
1.0351e-05
1.0351e-05
1.0351e-05
1.0351e-05
1.0351e-05
1.0351e-05
1.0351e-05
1.0351e-05
1.0351e-05
1.0351e-05
1.0351e-05
1.0351e-05
1.0351e-05
1.0351e-05
1.0351e-05
1.0351e-05
1.0351e-05
1.0351e-05
1.0351e-05
1.0351e-05
1.0351e-05
1.0351e-05
1.0351e-05
1.0351e-05
1.0351e-05
1.0351e-05
1.0351e-05
1.0351e-05
1.0351e-05
1.0351e-05
1.0351e-05
1.0351e-05
1.0351e-05
1.0351e-05
1.0351e-05
1.0351e-05
1.0351e-05
1.0351e-05
1.0351e-05
1.0351e-05
1.0351e-05
1.0351e-05
1.0351e-05
1.0351e-05
1.0351e-05
1.0351e-05
1.0351e-05
1.0351e-05
1.0351e-05
1.0351e-05
1.0351e-05
1.0351e-05
1.0351e-05
1.0351e-05
1.0351e-05
1.0351e-05
1.0351e-05
1.0351e-05
1.0351e-05
1.0351e-05
1.0351e-05
1.0351e-05
1.0351e-05
1.0351e-05
1.0351e-05
1.0351e-05
1.0351e-05
1.0351e-05
1.0351e-05
1.0351e-05
1.0351e-05
1.0351e-05
1.0351e-05
1.0351e-05
1.0351e-05
1.0351e-05
1.0351e-05
1.0351e-05
1.0351e-05
1.0351e-05
1.0351e-05
1.0351e-05
1.0351e-05
1.0351e-05
1.0351e-05
1.0351e-05
1.0351e-05
1.0351e-05
1.0351e-05
1.0351e-05
1.0351e-05
1.0351e-05
1.0351e-05
1.0351e-05
1.0351e-05
1.0351e-05
1.0351e-05
1.0351e-05
1.0351e-05
1.0351e-05
1.0351e-05
1.0351e-05
1.0351e-05
1.0351e-05
1.0351e-05
1.0351e-05
1.0351e-05
1.0351e-05
1.0351e-05
1.0351e-05
1.0351e-05
1.0351e-05
1.0351e-05
1.0351e-05
1.0351e-05
1.0351e-05
1.0351e-05
1.0351e-05
1.0351e-05
1.0351e-05
1.0351e-05
1.0351e-05
1.0351e-05
1.0351e-05
1.0351e-05
1.0351e-05
1.0351e-05
1.0351e-05
1.0351e-05
1.0351e-05
1.0351e-05
1.0351e-05
1.0351e-05
1.0351e-05
1.0351e-05
1.0351e-05
1.0351e-05
1.0351e-05
1.0351e-05
1.0351e-05
1.0351e-05
1.0351e-05
1.0351e-05
1.0351e-05
1.0351e-05
1.0351e-05
1.0351e-05
1.0351e-05
1.0351e-05
1.0351e-05
1.0351e-05
1.0351e-05
1.0351e-05
1.0351e-05
1.0351e-05
1.0351e-05
1.0351e-05
1.0351e-05
1.0351e-05
1.0351e-05
1.0351e-05
1.0351e-05
1.0351e-05
1.0351e-05
1.0351e-05
1.0351e-05
1.0351e-05
1.0351e-05
1.0351e-05
1.0351e-05
1.0351e-05
1.0351e-05
1.0351e-05
1.0351e-05
1.0351e-05
1.0351e-05
1.0351e-05
1.0351e-05
1.0351e-05
1.0351e-05
1.0351e-05
1.0351e-05
1.0351e-05
1.0351e-05
1.0351e-05
1.0351e-05
1.0351e-05
1.0351e-05
1.0351e-05
1.0351e-05
1.0351e-05
1.0351e-05
1.0351e-05
1.0351e-05
1.0351e-05
1.0351e-05
1.0351e-05
1.0351e-05
1.0351e-05
1.0351e-05
1.0351e-05
1.0351e-05
1.0351e-05
1.0351e-05
1.0351e-05
1.0351e-05
1.0351e-05
1.0351e-05
1.0351e-05
1.0351e-05
1.0351e-05
1.0351e-05
1.0351e-05
1.0351e-05
1.0351e-05
1.0351e-05
1.0351e-05
1.0351e-05
1.0351e-05
1.0351e-05
1.0351e-05
1.0351e-05
1.0351e-05
1.0351e-05
1.0351e-05
1.0351e-05
1.0351e-05
1.0351e-05
1.0351e-05
1.0351e-05
1.0351e-05
1.0351e-05
1.0351e-05
1.0351e-05
1.0351e-05
1.0351e-05
1.0351e-05
1.0351e-05
1.0351e-05
1.0351e-05
1.0351e-05
1.0351e-05
1.0351e-05
1.0351e-05
1.0351e-05
1.0351e-05
1.0351e-05
1.0351e-05
1.0351e-05
1.0351e-05
1.0351e-05
1.0351e-05
1.0351e-05
1.0351e-05
1.0351e-05
1.0351e-05
1.0351e-05
1.0351e-05
1.0351e-05
1.0351e-05
1.0351e-05
1.0351e-05
1.0351e-05
1.0351e-05
1.0351e-05
1.0351e-05
1.0351e-05
1.0351e-05
1.0351e-05
1.0351e-05
1.0351e-05
1.0351e-05
1.0351e-05
1.0351e-05
1.0351e-05
1.0351e-05
1.0351e-05
1.0351e-05
1.0351e-05
1.0351e-05
1.0351e-05
1.0351e-05
1.0351e-05
1.0351e-05
1.0351e-05
1.0351e-05
1.0351e-05
1.0351e-05
1.0351e-05
1.0351e-05
1.0351e-05
1.0351e-05
1.0351e-05
1.0351e-05
1.0351e-05
1.0351e-05
1.0351e-05
1.0351e-05
1.0351e-05
1.0351e-05
1.0351e-05
1.0351e-05
1.0351e-05
1.0351e-05
1.0351e-05
1.0351e-05
1.0351e-05
1.0351e-05
1.0351e-05
1.0351e-05
1.0351e-05
1.0351e-05
1.0351e-05
1.0351e-05
1.0351e-05
1.0351e-05
1.0351e-05
1.0351e-05
1.0351e-05
1.0351e-05
1.0351e-05
1.0351e-05
1.0351e-05
1.0351e-05
1.0351e-05
1.0351e-05
1.0351e-05
1.0351e-05
1.0351e-05
1.0351e-05
1.0351e-05
1.0351e-05
1.0351e-05
1.0351e-05
1.0351e-05
1.0351e-05
1.0351e-05
1.0351e-05
1.0351e-05
1.0351e-05
1.0351e-05
1.0351e-05
1.0351e-05
1.0351e-05
1.0351e-05
1.0351e-05
1.0351e-05
1.0351e-05
1.0351e-05
1.0351e-05
1.0351e-05
1.0351e-05
1.0351e-05
1.0351e-05
1.0351e-05
1.0351e-05
1.0351e-05
1.0351e-05
1.0351e-05
1.0351e-05
1.0351e-05
1.0351e-05
1.0351e-05
1.0351e-05
1.0351e-05
1.0351e-05
1.0351e-05
1.0351e-05
1.0351e-05
1.0351e-05
1.0351e-05
1.0351e-05
1.0351e-05
1.0351e-05
1.0351e-05
1.0351e-05
1.0351e-05
1.0351e-05
1.0351e-05
1.0351e-05
1.0351e-05
1.0351e-05
1.0351e-05
1.0351e-05
1.0351e-05
1.0351e-05
1.0351e-05
1.0351e-05
1.0351e-05
1.0351e-05
1.0351e-05
1.0351e-05
1.0351e-05
1.0351e-05
1.0351e-05
1.0351e-05
1.0351e-05
1.0351e-05
1.0351e-05
1.0351e-05
1.0351e-05
1.0351e-05
1.0351e-05
1.0351e-05
1.0351e-05
1.0351e-05
1.0351e-05
1.0351e-05
1.0351e-05
1.0351e-05
1.0351e-05
1.0351e-05
1.0351e-05
1.0351e-05
1.0351e-05
1.0351e-05
1.0351e-05
1.0351e-05
1.0351e-05
1.0351e-05
1.0351e-05
1.0351e-05
1.0351e-05
1.0351e-05
1.0351e-05
1.0351e-05
1.0351e-05
1.0351e-05
1.0351e-05
1.0351e-05
1.0351e-05
1.0351e-05
1.0351e-05
1.0351e-05
1.0351e-05
1.0351e-05
1.0351e-05
1.0351e-05
1.0351e-05
1.0351e-05
1.0351e-05
1.0351e-05
1.0351e-05
1.0351e-05
1.0351e-05
1.0351e-05
1.0351e-05
1.0351e-05
1.0351e-05
1.0351e-05
1.0351e-05
1.0351e-05
1.0351e-05
1.0351e-05
1.0351e-05
1.0351e-05
1.0351e-05
1.0351e-05
1.0351e-05
1.0351e-05
1.0351e-05
1.0351e-05
1.0351e-05
1.0351e-05
1.0351e-05
1.0351e-05
1.0351e-05
1.0351e-05
1.0351e-05
1.0351e-05
1.0351e-05
1.0351e-05
1.0351e-05
1.0351e-05
1.0351e-05
1.0351e-05
1.0351e-05
1.0351e-05
1.0351e-05
1.0351e-05
1.0351e-05
1.0351e-05
1.0351e-05
1.0351e-05
1.0351e-05
1.0351e-05
1.0351e-05
1.0351e-05
1.0351e-05
1.0351e-05
1.0351e-05
1.03511e-05
1.0351e-05
1.0351e-05
1.0351e-05
1.0351e-05
1.0351e-05
1.0351e-05
1.0351e-05
1.0351e-05
1.0351e-05
1.0351e-05
1.0351e-05
1.0351e-05
1.0351e-05
1.0351e-05
1.0351e-05
1.0351e-05
1.0351e-05
1.0351e-05
1.0351e-05
1.0351e-05
1.0351e-05
1.0351e-05
1.0351e-05
1.0351e-05
1.0351e-05
1.0351e-05
1.0351e-05
1.0351e-05
1.0351e-05
1.0351e-05
1.0351e-05
1.0351e-05
1.0351e-05
1.0351e-05
1.0351e-05
1.0351e-05
1.0351e-05
1.0351e-05
1.0351e-05
1.0351e-05
1.0351e-05
1.0351e-05
1.0351e-05
1.0351e-05
1.0351e-05
1.0351e-05
1.03511e-05
1.03511e-05
1.03512e-05
1.03514e-05
1.0351e-05
1.0351e-05
1.0351e-05
1.0351e-05
1.0351e-05
1.0351e-05
1.0351e-05
1.0351e-05
1.0351e-05
1.0351e-05
1.0351e-05
1.0351e-05
1.0351e-05
1.0351e-05
1.0351e-05
1.0351e-05
1.0351e-05
1.0351e-05
1.0351e-05
1.0351e-05
1.0351e-05
1.0351e-05
1.0351e-05
1.0351e-05
1.0351e-05
1.0351e-05
1.0351e-05
1.0351e-05
1.0351e-05
1.0351e-05
1.0351e-05
1.0351e-05
1.0351e-05
1.0351e-05
1.0351e-05
1.0351e-05
1.0351e-05
1.0351e-05
1.0351e-05
1.0351e-05
1.0351e-05
1.0351e-05
1.0351e-05
1.03511e-05
1.03511e-05
1.03512e-05
1.03513e-05
1.03516e-05
1.03522e-05
1.03534e-05
1.0351e-05
1.0351e-05
1.0351e-05
1.0351e-05
1.0351e-05
1.0351e-05
1.0351e-05
1.0351e-05
1.0351e-05
1.0351e-05
1.0351e-05
1.0351e-05
1.0351e-05
1.0351e-05
1.0351e-05
1.0351e-05
1.0351e-05
1.0351e-05
1.0351e-05
1.0351e-05
1.0351e-05
1.0351e-05
1.0351e-05
1.0351e-05
1.0351e-05
1.0351e-05
1.0351e-05
1.0351e-05
1.0351e-05
1.0351e-05
1.0351e-05
1.0351e-05
1.0351e-05
1.0351e-05
1.0351e-05
1.0351e-05
1.0351e-05
1.0351e-05
1.0351e-05
1.0351e-05
1.03511e-05
1.03511e-05
1.03512e-05
1.03513e-05
1.03516e-05
1.03521e-05
1.0353e-05
1.03548e-05
1.03581e-05
1.03648e-05
1.0351e-05
1.0351e-05
1.0351e-05
1.0351e-05
1.0351e-05
1.0351e-05
1.0351e-05
1.0351e-05
1.0351e-05
1.0351e-05
1.0351e-05
1.0351e-05
1.0351e-05
1.0351e-05
1.0351e-05
1.0351e-05
1.0351e-05
1.0351e-05
1.0351e-05
1.0351e-05
1.0351e-05
1.0351e-05
1.0351e-05
1.0351e-05
1.0351e-05
1.0351e-05
1.0351e-05
1.0351e-05
1.0351e-05
1.0351e-05
1.0351e-05
1.0351e-05
1.0351e-05
1.0351e-05
1.0351e-05
1.0351e-05
1.0351e-05
1.03511e-05
1.03511e-05
1.03512e-05
1.03513e-05
1.03516e-05
1.03521e-05
1.03529e-05
1.03545e-05
1.03574e-05
1.03628e-05
1.03728e-05
1.03916e-05
1.04291e-05
1.0351e-05
1.0351e-05
1.0351e-05
1.0351e-05
1.0351e-05
1.0351e-05
1.0351e-05
1.0351e-05
1.0351e-05
1.0351e-05
1.0351e-05
1.0351e-05
1.0351e-05
1.0351e-05
1.0351e-05
1.0351e-05
1.0351e-05
1.0351e-05
1.0351e-05
1.0351e-05
1.0351e-05
1.0351e-05
1.0351e-05
1.0351e-05
1.0351e-05
1.0351e-05
1.0351e-05
1.0351e-05
1.0351e-05
1.0351e-05
1.0351e-05
1.0351e-05
1.0351e-05
1.0351e-05
1.03511e-05
1.03511e-05
1.03512e-05
1.03513e-05
1.03516e-05
1.0352e-05
1.03529e-05
1.03544e-05
1.03571e-05
1.0362e-05
1.0371e-05
1.03874e-05
1.04176e-05
1.04731e-05
1.05761e-05
1.0773e-05
1.0351e-05
1.0351e-05
1.0351e-05
1.0351e-05
1.0351e-05
1.0351e-05
1.0351e-05
1.0351e-05
1.0351e-05
1.0351e-05
1.0351e-05
1.0351e-05
1.0351e-05
1.0351e-05
1.0351e-05
1.0351e-05
1.0351e-05
1.0351e-05
1.0351e-05
1.0351e-05
1.0351e-05
1.0351e-05
1.0351e-05
1.0351e-05
1.0351e-05
1.0351e-05
1.0351e-05
1.0351e-05
1.0351e-05
1.0351e-05
1.0351e-05
1.03511e-05
1.03511e-05
1.03512e-05
1.03513e-05
1.03516e-05
1.03521e-05
1.03529e-05
1.03543e-05
1.03569e-05
1.03616e-05
1.037e-05
1.03851e-05
1.04125e-05
1.0462e-05
1.05515e-05
1.07124e-05
1.09992e-05
1.15017e-05
1.2367e-05
1.0351e-05
1.0351e-05
1.0351e-05
1.0351e-05
1.0351e-05
1.0351e-05
1.0351e-05
1.0351e-05
1.0351e-05
1.0351e-05
1.0351e-05
1.0351e-05
1.0351e-05
1.0351e-05
1.0351e-05
1.0351e-05
1.0351e-05
1.0351e-05
1.0351e-05
1.0351e-05
1.0351e-05
1.0351e-05
1.0351e-05
1.0351e-05
1.0351e-05
1.0351e-05
1.0351e-05
1.0351e-05
1.03511e-05
1.03511e-05
1.03512e-05
1.03514e-05
1.03516e-05
1.03521e-05
1.0353e-05
1.03544e-05
1.0357e-05
1.03615e-05
1.03696e-05
1.0384e-05
1.04097e-05
1.04554e-05
1.0537e-05
1.06818e-05
1.09364e-05
1.13751e-05
1.2108e-05
1.3276e-05
1.50295e-05
1.74869e-05
1.0351e-05
1.0351e-05
1.0351e-05
1.0351e-05
1.0351e-05
1.0351e-05
1.0351e-05
1.0351e-05
1.0351e-05
1.0351e-05
1.0351e-05
1.0351e-05
1.0351e-05
1.0351e-05
1.0351e-05
1.0351e-05
1.0351e-05
1.0351e-05
1.0351e-05
1.0351e-05
1.0351e-05
1.0351e-05
1.0351e-05
1.0351e-05
1.03511e-05
1.03511e-05
1.03511e-05
1.03512e-05
1.03514e-05
1.03517e-05
1.03522e-05
1.03531e-05
1.03546e-05
1.03572e-05
1.03618e-05
1.03698e-05
1.03839e-05
1.04087e-05
1.04523e-05
1.0529e-05
1.06635e-05
1.0897e-05
1.12957e-05
1.19571e-05
1.30074e-05
1.45812e-05
1.67824e-05
1.9646e-05
2.3127e-05
2.71066e-05
1.0351e-05
1.0351e-05
1.0351e-05
1.0351e-05
1.0351e-05
1.0351e-05
1.0351e-05
1.0351e-05
1.0351e-05
1.0351e-05
1.0351e-05
1.0351e-05
1.0351e-05
1.0351e-05
1.0351e-05
1.0351e-05
1.0351e-05
1.0351e-05
1.0351e-05
1.0351e-05
1.0351e-05
1.03511e-05
1.03511e-05
1.03512e-05
1.03513e-05
1.03515e-05
1.03518e-05
1.03524e-05
1.03533e-05
1.03549e-05
1.03577e-05
1.03624e-05
1.03706e-05
1.03848e-05
1.04094e-05
1.04522e-05
1.05265e-05
1.0655e-05
1.08755e-05
1.1248e-05
1.18607e-05
1.28291e-05
1.42795e-05
1.6315e-05
1.89784e-05
2.22343e-05
2.5981e-05
3.00819e-05
3.44005e-05
3.88034e-05
1.0351e-05
1.0351e-05
1.0351e-05
1.0351e-05
1.0351e-05
1.0351e-05
1.0351e-05
1.0351e-05
1.0351e-05
1.0351e-05
1.0351e-05
1.0351e-05
1.0351e-05
1.0351e-05
1.0351e-05
1.0351e-05
1.0351e-05
1.0351e-05
1.03511e-05
1.03511e-05
1.03512e-05
1.03513e-05
1.03516e-05
1.03519e-05
1.03525e-05
1.03536e-05
1.03553e-05
1.03583e-05
1.03634e-05
1.0372e-05
1.03867e-05
1.04119e-05
1.04552e-05
1.05292e-05
1.06555e-05
1.08696e-05
1.12269e-05
1.18087e-05
1.27216e-05
1.40835e-05
1.59949e-05
1.85046e-05
2.15904e-05
2.51655e-05
2.91038e-05
3.32694e-05
3.75378e-05
4.18042e-05
4.59737e-05
4.99747e-05
1.0351e-05
1.0351e-05
1.0351e-05
1.0351e-05
1.0351e-05
1.0351e-05
1.0351e-05
1.0351e-05
1.0351e-05
1.0351e-05
1.0351e-05
1.0351e-05
1.0351e-05
1.0351e-05
1.03511e-05
1.03511e-05
1.03512e-05
1.03513e-05
1.03514e-05
1.03517e-05
1.03521e-05
1.03528e-05
1.0354e-05
1.0356e-05
1.03593e-05
1.03648e-05
1.03742e-05
1.03899e-05
1.04164e-05
1.04613e-05
1.05372e-05
1.06649e-05
1.08784e-05
1.12302e-05
1.17964e-05
1.26761e-05
1.39792e-05
1.58013e-05
1.81929e-05
2.11406e-05
2.45705e-05
2.83697e-05
3.24116e-05
3.65763e-05
4.07603e-05
4.48715e-05
4.88281e-05
5.2569e-05
5.60336e-05
5.91647e-05
1.0351e-05
1.0351e-05
1.0351e-05
1.0351e-05
1.0351e-05
1.0351e-05
1.0351e-05
1.0351e-05
1.0351e-05
1.0351e-05
1.03511e-05
1.03511e-05
1.03511e-05
1.03512e-05
1.03513e-05
1.03515e-05
1.03518e-05
1.03524e-05
1.03532e-05
1.03546e-05
1.03569e-05
1.03607e-05
1.03669e-05
1.03773e-05
1.03945e-05
1.04233e-05
1.04712e-05
1.05511e-05
1.06838e-05
1.09026e-05
1.1258e-05
1.18224e-05
1.26887e-05
1.39593e-05
1.57234e-05
1.80295e-05
2.08689e-05
2.4177e-05
2.78522e-05
3.17781e-05
3.58419e-05
3.99448e-05
4.40022e-05
4.79346e-05
5.1676e-05
5.51714e-05
5.83579e-05
6.11584e-05
6.34971e-05
6.53702e-05
1.0351e-05
1.0351e-05
1.0351e-05
1.0351e-05
1.0351e-05
1.0351e-05
1.0351e-05
1.03511e-05
1.03511e-05
1.03512e-05
1.03513e-05
1.03514e-05
1.03517e-05
1.03521e-05
1.03527e-05
1.03538e-05
1.03554e-05
1.03582e-05
1.03626e-05
1.03698e-05
1.03817e-05
1.04011e-05
1.04331e-05
1.04857e-05
1.05722e-05
1.07138e-05
1.09437e-05
1.13119e-05
1.18878e-05
1.27593e-05
1.40214e-05
1.57557e-05
1.80065e-05
2.07657e-05
2.39753e-05
2.75426e-05
3.1361e-05
3.53255e-05
3.93429e-05
4.33344e-05
4.72277e-05
5.09569e-05
5.44686e-05
5.77117e-05
6.06196e-05
6.31179e-05
6.51538e-05
6.67266e-05
6.78793e-05
6.87088e-05
1.0351e-05
1.0351e-05
1.0351e-05
1.03511e-05
1.03511e-05
1.03512e-05
1.03512e-05
1.03514e-05
1.03516e-05
1.03519e-05
1.03524e-05
1.03532e-05
1.03545e-05
1.03566e-05
1.03599e-05
1.03653e-05
1.03739e-05
1.03878e-05
1.04103e-05
1.04469e-05
1.05062e-05
1.06023e-05
1.07573e-05
1.10052e-05
1.13957e-05
1.19967e-05
1.28914e-05
1.41675e-05
1.58981e-05
1.81209e-05
2.08261e-05
2.39592e-05
2.74349e-05
3.11555e-05
3.5024e-05
3.89537e-05
4.28706e-05
4.67102e-05
5.04096e-05
5.3916e-05
5.71839e-05
6.01607e-05
6.27788e-05
6.49766e-05
6.67251e-05
6.80463e-05
6.89983e-05
6.96616e-05
7.01101e-05
7.04189e-05
1.03511e-05
1.03511e-05
1.03512e-05
1.03513e-05
1.03515e-05
1.03518e-05
1.03522e-05
1.03529e-05
1.0354e-05
1.03556e-05
1.03583e-05
1.03624e-05
1.0369e-05
1.03796e-05
1.03963e-05
1.04231e-05
1.0466e-05
1.05347e-05
1.06442e-05
1.08183e-05
1.10921e-05
1.15159e-05
1.21563e-05
1.30924e-05
1.44041e-05
1.6155e-05
1.83745e-05
2.10492e-05
2.41259e-05
2.75255e-05
3.11581e-05
3.49352e-05
3.87767e-05
4.26137e-05
4.6388e-05
5.00424e-05
5.35251e-05
5.6793e-05
5.98034e-05
6.25001e-05
6.48202e-05
6.67206e-05
6.8198e-05
6.92927e-05
7.00686e-05
7.06015e-05
7.09577e-05
7.11949e-05
7.13535e-05
7.14596e-05
1.03513e-05
1.03515e-05
1.03517e-05
1.03521e-05
1.03527e-05
1.03536e-05
1.03551e-05
1.03573e-05
1.03607e-05
1.03661e-05
1.03745e-05
1.03876e-05
1.04084e-05
1.04411e-05
1.04928e-05
1.05742e-05
1.07023e-05
1.09024e-05
1.12118e-05
1.16816e-05
1.23774e-05
1.33737e-05
1.4742e-05
1.65354e-05
1.87737e-05
2.14382e-05
2.44761e-05
2.78132e-05
3.13671e-05
3.50574e-05
3.8811e-05
4.25647e-05
4.62647e-05
4.98613e-05
5.33048e-05
5.65535e-05
5.957e-05
6.23089e-05
6.47134e-05
6.67333e-05
6.83472e-05
6.95743e-05
7.04659e-05
7.10886e-05
7.15113e-05
7.17896e-05
7.19721e-05
7.20898e-05
7.21608e-05
7.22099e-05
7.22578e-05
1.03526e-05
1.03535e-05
1.03548e-05
1.03567e-05
1.03597e-05
1.03643e-05
1.03714e-05
1.03823e-05
1.03993e-05
1.04256e-05
1.04666e-05
1.05304e-05
1.06294e-05
1.07827e-05
1.10181e-05
1.1375e-05
1.19059e-05
1.2675e-05
1.37511e-05
1.51965e-05
1.70524e-05
1.93284e-05
2.19996e-05
2.50131e-05
2.8299e-05
3.1782e-05
3.53896e-05
3.90558e-05
4.27233e-05
4.63429e-05
4.98709e-05
5.32617e-05
5.6475e-05
5.94763e-05
6.22286e-05
6.46832e-05
6.67888e-05
6.85131e-05
6.98576e-05
7.08589e-05
7.15726e-05
7.20635e-05
7.23909e-05
7.26042e-05
7.27413e-05
7.28239e-05
7.28674e-05
7.29023e-05
7.29303e-05
7.29311e-05
7.29203e-05
1.03565e-05
1.03592e-05
1.03634e-05
1.03697e-05
1.03792e-05
1.03939e-05
1.04163e-05
1.04506e-05
1.05032e-05
1.05838e-05
1.07071e-05
1.08947e-05
1.11772e-05
1.15968e-05
1.22068e-05
1.30689e-05
1.42453e-05
1.57871e-05
1.77231e-05
2.00518e-05
2.27427e-05
2.57424e-05
2.89854e-05
3.24033e-05
3.59312e-05
3.95104e-05
4.30894e-05
4.66236e-05
5.00741e-05
5.34007e-05
5.65648e-05
5.95337e-05
6.22757e-05
6.47506e-05
6.69104e-05
6.87175e-05
7.01597e-05
7.12581e-05
7.20587e-05
7.2619e-05
7.29987e-05
7.32458e-05
7.34035e-05
7.35003e-05
7.35506e-05
7.35768e-05
7.36008e-05
7.36038e-05
7.35887e-05
7.35615e-05
7.3526e-05
7.34922e-05
1.03779e-05
1.03912e-05
1.04113e-05
1.04415e-05
1.04873e-05
1.05564e-05
1.06607e-05
1.08175e-05
1.10515e-05
1.13969e-05
1.18979e-05
1.2608e-05
1.35848e-05
1.48817e-05
1.65375e-05
1.85674e-05
2.09598e-05
2.36786e-05
2.66711e-05
2.98762e-05
3.32323e-05
3.66822e-05
4.0174e-05
4.36621e-05
4.71065e-05
5.04724e-05
5.37247e-05
5.68274e-05
5.97491e-05
6.24619e-05
6.49325e-05
6.71185e-05
6.89802e-05
7.0497e-05
7.16772e-05
7.25561e-05
7.3183e-05
7.36131e-05
7.38979e-05
7.4079e-05
7.41905e-05
7.42501e-05
7.42741e-05
7.42873e-05
7.4293e-05
7.42783e-05
7.42479e-05
7.42076e-05
7.4161e-05
7.41154e-05
7.40741e-05
7.40394e-05
1.04797e-05
1.05421e-05
1.06349e-05
1.07726e-05
1.09758e-05
1.12729e-05
1.17011e-05
1.23063e-05
1.31403e-05
1.42543e-05
1.56907e-05
1.74743e-05
1.96075e-05
2.2069e-05
2.48192e-05
2.78066e-05
3.09753e-05
3.42706e-05
3.76423e-05
4.10456e-05
4.44401e-05
4.77905e-05
5.10655e-05
5.42348e-05
5.72651e-05
6.01272e-05
6.27952e-05
6.52412e-05
6.74284e-05
6.93186e-05
7.08866e-05
7.21305e-05
7.30747e-05
7.37614e-05
7.42402e-05
7.4562e-05
7.4768e-05
7.48933e-05
7.49644e-05
7.49926e-05
7.4997e-05
7.49966e-05
7.49846e-05
7.49533e-05
7.49084e-05
7.48554e-05
7.48002e-05
7.47455e-05
7.46953e-05
7.46493e-05
7.46079e-05
7.45723e-05
1.09373e-05
1.12048e-05
1.15866e-05
1.21227e-05
1.28588e-05
1.3842e-05
1.51145e-05
1.67055e-05
1.86258e-05
2.08655e-05
2.3396e-05
2.61758e-05
2.91561e-05
3.22864e-05
3.55192e-05
3.88112e-05
4.21236e-05
4.54214e-05
4.86734e-05
5.18519e-05
5.49303e-05
5.78789e-05
6.06701e-05
6.32799e-05
6.56843e-05
6.78519e-05
6.97474e-05
7.13432e-05
7.26307e-05
7.36257e-05
7.43628e-05
7.48851e-05
7.52405e-05
7.54718e-05
7.56119e-05
7.56928e-05
7.57279e-05
7.57274e-05
7.57194e-05
7.57055e-05
7.56736e-05
7.56252e-05
7.55689e-05
7.55059e-05
7.54419e-05
7.53797e-05
7.53217e-05
7.52664e-05
7.52152e-05
7.51679e-05
7.51253e-05
7.50878e-05
1.27055e-05
1.3601e-05
1.4758e-05
1.62063e-05
1.79612e-05
2.00197e-05
2.23622e-05
2.49554e-05
2.77579e-05
3.07248e-05
3.38119e-05
3.69783e-05
4.01871e-05
4.34053e-05
4.66027e-05
4.9752e-05
5.28287e-05
5.58095e-05
5.86678e-05
6.13781e-05
6.39181e-05
6.62665e-05
6.83966e-05
7.02765e-05
7.18786e-05
7.31902e-05
7.42201e-05
7.49951e-05
7.55531e-05
7.59385e-05
7.61929e-05
7.63476e-05
7.64365e-05
7.64786e-05
7.64774e-05
7.64625e-05
7.64422e-05
7.64098e-05
7.63595e-05
7.62985e-05
7.62303e-05
7.61576e-05
7.60853e-05
7.60161e-05
7.59501e-05
7.58868e-05
7.58272e-05
7.57708e-05
7.57179e-05
7.56686e-05
7.56237e-05
7.55835e-05
1.75714e-05
1.94904e-05
2.16803e-05
2.41146e-05
2.67582e-05
2.95719e-05
3.25158e-05
3.5552e-05
3.86461e-05
4.1767e-05
4.48869e-05
4.79798e-05
5.1022e-05
5.39919e-05
5.68687e-05
5.96291e-05
6.22495e-05
6.47094e-05
6.69895e-05
6.9067e-05
7.09133e-05
7.25022e-05
7.38188e-05
7.48664e-05
7.56665e-05
7.62513e-05
7.66606e-05
7.69333e-05
7.71016e-05
7.71983e-05
7.72452e-05
7.72451e-05
7.7226e-05
7.71972e-05
7.71606e-05
7.71088e-05
7.70438e-05
7.69715e-05
7.68922e-05
7.68114e-05
7.67316e-05
7.66551e-05
7.65808e-05
7.65097e-05
7.64418e-05
7.63769e-05
7.63151e-05
7.62564e-05
7.62011e-05
7.61491e-05
7.61013e-05
7.6058e-05
2.61338e-05
2.88103e-05
3.16201e-05
3.45288e-05
3.75046e-05
4.05191e-05
4.35464e-05
4.65631e-05
4.9547e-05
5.24775e-05
5.53355e-05
5.81027e-05
6.07583e-05
6.32808e-05
6.56512e-05
6.78525e-05
6.98643e-05
7.16617e-05
7.32199e-05
7.45235e-05
7.55728e-05
7.63842e-05
7.69848e-05
7.74103e-05
7.76973e-05
7.78766e-05
7.79791e-05
7.8028e-05
7.80306e-05
7.80082e-05
7.79708e-05
7.79271e-05
7.78742e-05
7.78055e-05
7.77279e-05
7.76437e-05
7.75548e-05
7.7466e-05
7.73795e-05
7.72957e-05
7.72139e-05
7.71352e-05
7.70591e-05
7.69858e-05
7.69154e-05
7.68478e-05
7.67832e-05
7.67217e-05
7.66633e-05
7.66081e-05
7.6557e-05
7.651e-05
3.96648e-05
4.25916e-05
4.55189e-05
4.84271e-05
5.12971e-05
5.4111e-05
5.68522e-05
5.95044e-05
6.20489e-05
6.44662e-05
6.67391e-05
6.88521e-05
7.07873e-05
7.25223e-05
7.40346e-05
7.53094e-05
7.63448e-05
7.71534e-05
7.77587e-05
7.81923e-05
7.84878e-05
7.86733e-05
7.87799e-05
7.88305e-05
7.88331e-05
7.88079e-05
7.87641e-05
7.87119e-05
7.86542e-05
7.85821e-05
7.84991e-05
7.84106e-05
7.83156e-05
7.82189e-05
7.81228e-05
7.80292e-05
7.79375e-05
7.78484e-05
7.77622e-05
7.76784e-05
7.75971e-05
7.75184e-05
7.74423e-05
7.73689e-05
7.72982e-05
7.72304e-05
7.71655e-05
7.71036e-05
7.70448e-05
7.69898e-05
7.69386e-05
5.04697e-05
5.32207e-05
5.59134e-05
5.85331e-05
6.10654e-05
6.34931e-05
6.57987e-05
6.79668e-05
6.99832e-05
7.1832e-05
7.34932e-05
7.49465e-05
7.6178e-05
7.71852e-05
7.79781e-05
7.85772e-05
7.90101e-05
7.93067e-05
7.94943e-05
7.96026e-05
7.96523e-05
7.96522e-05
7.96259e-05
7.95762e-05
7.95142e-05
7.94493e-05
7.93755e-05
7.92869e-05
7.91924e-05
7.9092e-05
7.89872e-05
7.88827e-05
7.87803e-05
7.868e-05
7.85811e-05
7.84849e-05
7.8391e-05
7.82993e-05
7.82102e-05
7.81235e-05
7.80392e-05
7.79574e-05
7.7878e-05
7.78012e-05
7.7727e-05
7.76556e-05
7.75869e-05
7.75211e-05
7.74582e-05
7.73987e-05
7.73426e-05
6.03681e-05
6.27756e-05
6.50812e-05
6.72692e-05
6.93259e-05
7.12384e-05
7.29924e-05
7.45699e-05
7.59527e-05
7.71285e-05
7.80949e-05
7.886e-05
7.94421e-05
7.98653e-05
8.01564e-05
8.03419e-05
8.04478e-05
8.04935e-05
8.04904e-05
8.04613e-05
8.04047e-05
8.03344e-05
8.02618e-05
8.01823e-05
8.00886e-05
7.99878e-05
7.98832e-05
7.97724e-05
7.966e-05
7.95485e-05
7.94389e-05
7.93309e-05
7.92253e-05
7.91222e-05
7.90211e-05
7.89221e-05
7.88253e-05
7.87306e-05
7.86382e-05
7.85482e-05
7.84604e-05
7.83751e-05
7.82921e-05
7.82116e-05
7.81335e-05
7.80581e-05
7.79851e-05
7.79149e-05
7.78472e-05
7.77826e-05
7.77211e-05
7.08063e-05
7.26086e-05
7.42606e-05
7.57459e-05
7.70484e-05
7.81578e-05
7.90721e-05
7.97986e-05
8.03538e-05
8.0759e-05
8.1038e-05
8.12157e-05
8.13154e-05
8.1355e-05
8.13477e-05
8.13135e-05
8.12509e-05
8.11727e-05
8.10907e-05
8.10034e-05
8.09072e-05
8.07995e-05
8.06882e-05
8.05713e-05
8.0451e-05
8.03316e-05
8.02142e-05
8.00981e-05
7.99833e-05
7.98708e-05
7.97603e-05
7.96518e-05
7.95457e-05
7.94415e-05
7.93393e-05
7.92392e-05
7.91412e-05
7.90453e-05
7.89516e-05
7.88601e-05
7.87708e-05
7.86839e-05
7.85992e-05
7.85168e-05
7.84368e-05
7.83591e-05
7.82838e-05
7.82108e-05
7.81405e-05
7.80728e-05