/*--------------------------------*- C++ -*----------------------------------*\
| =========                 |                                                 |
| \\      /  F ield         | OpenFOAM: The Open Source CFD Toolbox           |
|  \\    /   O peration     | Version:  v1706                                 |
|   \\  /    A nd           | Web:      www.OpenFOAM.com                      |
|    \\/     M anipulation  |                                                 |
\*---------------------------------------------------------------------------*/
FoamFile
{
    version     2.0;
    format      ascii;
    class       volScalarField;
    location    "9e-06";
    object      p;
}
// * * * * * * * * * * * * * * * * * * * * * * * * * * * * * * * * * * * * * //

dimensions      [1 -1 -2 0 0 0 0];


internalField   nonuniform List<scalar> 
30038
(
21.9139
21.9139
21.9139
21.9139
21.9139
21.9139
21.9139
21.9139
21.9139
21.9139
21.9139
21.9139
21.9139
21.9139
21.9139
21.9139
21.9139
21.9139
21.9139
21.9139
21.9139
21.9139
21.9139
21.9139
21.9139
21.9139
21.9139
21.9139
21.9139
21.9139
21.9139
21.9139
21.9139
21.9139
21.9139
21.9139
21.9139
21.9139
21.9139
21.9139
21.9139
21.9139
21.9139
21.9139
21.9139
21.9139
21.9139
21.9139
21.9139
21.9139
21.9139
21.9139
21.9139
21.9139
21.9139
21.9139
21.9139
21.9139
21.9139
21.9139
21.9139
21.9139
21.9139
21.9139
21.9139
21.9139
21.9139
21.9139
21.9139
21.9139
21.9139
21.9139
21.9139
21.9139
21.9139
21.9139
21.9139
21.9139
21.9139
21.9139
21.9139
21.9139
21.9139
21.9139
21.9139
21.9139
21.9139
21.9139
21.9139
21.9139
21.9139
21.9139
21.9139
21.9139
21.9139
21.9139
21.9139
21.9139
21.9139
21.9139
21.9139
21.9139
21.9139
21.9139
21.9139
21.9139
21.9139
21.9139
21.9139
21.9139
21.9139
21.9139
21.9139
21.9139
21.9139
21.9139
21.9139
21.9139
21.9139
21.9139
21.9139
21.9139
21.9139
21.9139
21.9139
21.9139
21.9139
21.9139
21.9139
21.9139
21.9139
21.9139
21.9139
21.9139
21.9139
21.9139
21.9139
21.9139
21.9139
21.9139
21.9139
21.9139
21.9139
21.9139
21.9139
21.9139
21.9139
21.9139
21.9139
21.9139
21.9139
21.9139
21.9139
21.9139
21.9139
21.9139
21.9139
21.9139
21.9139
21.9139
21.9139
21.9139
21.9139
21.9139
21.9139
21.9139
21.9139
21.9139
21.9139
21.9139
21.9139
21.9139
21.9139
21.9139
21.9139
21.9139
21.9139
21.9139
21.9139
21.9139
21.9139
21.9139
21.9139
21.9139
21.9139
21.9139
21.9139
21.9139
21.9139
21.9139
21.9139
21.9139
21.9139
21.9139
21.9139
21.9139
21.9139
21.9139
21.9139
21.9139
21.9139
21.9139
21.9139
21.9139
21.9139
21.9139
21.9139
21.9139
21.9139
21.9139
21.9139
21.9139
21.9139
21.9139
21.9139
21.9139
21.9139
21.9139
21.9139
21.9139
21.9139
21.9139
21.9139
21.9139
21.9139
21.9139
21.9139
21.9139
21.9139
21.9139
21.9139
21.9139
21.9139
21.9139
21.9139
21.9139
21.9139
21.9139
21.9139
21.9139
21.9139
21.9139
21.9139
21.9139
21.9139
21.9139
21.9139
21.9139
21.9139
21.9139
21.9139
21.9139
21.9139
21.9139
21.9139
21.9139
21.9139
21.9139
21.9139
21.9139
21.9139
21.9139
21.9139
21.9139
21.9139
21.9139
21.9139
21.9139
21.9139
21.9139
21.9139
21.9139
21.9139
21.9139
21.9139
21.9139
21.9139
21.9139
21.9139
21.9139
21.9139
21.9139
21.9139
21.9139
21.9139
21.9139
21.9139
21.9139
21.9139
21.9139
21.9139
21.9139
21.9139
21.9139
21.9139
21.9139
21.9139
21.9139
21.9139
21.9139
21.9139
21.9139
21.9139
21.9139
21.9139
21.9139
21.9139
21.9139
21.9139
21.9139
21.9139
21.9139
21.9139
21.9139
21.9139
21.9139
21.9139
21.9139
21.9139
21.9139
21.9139
21.9139
21.9139
21.9139
21.9139
21.9139
21.9139
21.9139
21.9139
21.9139
21.9139
21.9139
21.9139
21.9139
21.9139
21.9139
21.9139
21.9139
21.9139
21.9139
21.9139
21.9139
21.9139
21.9139
21.9139
21.9139
21.9139
21.9139
21.9139
21.9139
21.9139
21.9139
21.9139
21.9139
21.9139
21.9139
21.9139
21.9139
21.9139
21.9139
21.9139
21.9139
21.9139
21.9139
21.9139
21.9139
21.9139
21.9139
21.9139
21.9139
21.9139
21.9139
21.9139
21.9139
21.9139
21.9139
21.9139
21.9139
21.9139
21.9139
21.9139
21.9139
21.9139
21.9139
21.9139
21.9139
21.9139
21.9139
21.9139
21.9139
21.9139
21.9139
21.9139
21.9139
21.9139
21.9139
21.9139
21.9139
21.9139
21.9139
21.9139
21.9139
21.9139
21.9139
21.9139
21.9139
21.9139
21.9139
21.9139
21.9139
21.9139
21.9139
21.9139
21.9139
21.9139
21.9139
21.9139
21.9139
21.9139
21.9139
21.9139
21.9139
21.9139
21.9139
21.9139
21.9139
21.9139
21.9139
21.9139
21.9139
21.9139
21.9139
21.9139
21.9139
21.9139
21.9139
21.9139
21.9139
21.9139
21.9139
21.9139
21.9139
21.9139
21.9139
21.9139
21.9139
21.9139
21.9139
21.9139
21.9139
21.9139
21.9139
21.9139
21.9139
21.9139
21.9139
21.9139
21.9139
21.9139
21.9139
21.9139
21.9139
21.9139
21.9139
21.9139
21.9139
21.9139
21.9139
21.9139
21.9139
21.9139
21.9139
21.9139
21.9139
21.9139
21.9139
21.9139
21.9139
21.9139
21.9139
21.9139
21.9139
21.9139
21.9139
21.9139
21.9139
21.9139
21.9139
21.9139
21.9139
21.9139
21.9139
21.9139
21.9139
21.9139
21.9139
21.9139
21.9139
21.9139
21.9139
21.9139
21.9139
21.9139
21.9139
21.9139
21.9139
21.9139
21.9139
21.9139
21.9139
21.9139
21.9139
21.9139
21.9139
21.9139
21.9139
21.9139
21.9139
21.9139
21.9139
21.9139
21.9139
21.9139
21.9139
21.9139
21.9139
21.9139
21.9139
21.9139
21.9139
21.9139
21.9139
21.9139
21.9139
21.9139
21.9139
21.9139
21.9139
21.9139
21.9139
21.9139
21.9139
21.9139
21.9139
21.9139
21.9139
21.9139
21.9139
21.9139
21.9139
21.9139
21.9139
21.9139
21.9139
21.9139
21.9139
21.9139
21.9139
21.9139
21.9139
21.9139
21.9139
21.9139
21.9139
21.9139
21.9139
21.9139
21.9139
21.9139
21.9139
21.9139
21.9139
21.9139
21.9139
21.9139
21.9139
21.9139
21.9139
21.9139
21.9139
21.9139
21.9139
21.9139
21.9139
21.9139
21.9139
21.9139
21.9139
21.9139
21.9139
21.9139
21.9139
21.9139
21.9139
21.9139
21.9139
21.9139
21.9139
21.9139
21.9139
21.9139
21.9139
21.9139
21.9139
21.9139
21.9139
21.9139
21.9139
21.9139
21.9139
21.9139
21.9139
21.9139
21.9139
21.9139
21.9139
21.9139
21.9139
21.9139
21.9139
21.9139
21.9139
21.9139
21.9139
21.9139
21.9139
21.9139
21.9139
21.9139
21.9139
21.9139
21.9139
21.9139
21.9139
21.9139
21.9139
21.9139
21.9139
21.9139
21.9139
21.9139
21.9139
21.9139
21.9139
21.9139
21.9139
21.9139
21.9139
21.9139
21.9139
21.9139
21.9139
21.9139
21.9139
21.9139
21.9139
21.9139
21.9139
21.9139
21.9139
21.9139
21.9139
21.9139
21.9139
21.9139
21.9139
21.9139
21.9139
21.9139
21.9139
21.9139
21.9139
21.9139
21.9139
21.9139
21.9139
21.9139
21.9139
21.9139
21.9139
21.9139
21.9139
21.9139
21.9139
21.9139
21.9139
21.9139
21.9139
21.9139
21.9139
21.9139
21.9139
21.9139
21.9139
21.9139
21.9139
21.9139
21.9139
21.9139
21.9139
21.9139
21.9139
21.9139
21.9139
21.9139
21.9139
21.9139
21.9139
21.9139
21.9139
21.9139
21.9139
21.9139
21.9139
21.9139
21.9139
21.9139
21.9139
21.9139
21.9139
21.9139
21.9139
21.9139
21.9139
21.9139
21.9139
21.9139
21.9139
21.9139
21.9139
21.9139
21.9139
21.9139
21.9139
21.9139
21.9139
21.9139
21.9139
21.9139
21.9139
21.9139
21.9139
21.9139
21.9139
21.9139
21.9139
21.9139
21.9139
21.9139
21.9139
21.9139
21.9139
21.9139
21.9139
21.9139
21.9139
21.9139
21.9139
21.9139
21.9139
21.9139
21.9139
21.9139
21.9139
21.9139
21.9139
21.9139
21.9139
21.9139
21.9139
21.9139
21.9139
21.9139
21.9139
21.9139
21.9139
21.9139
21.9139
21.9139
21.9139
21.9139
21.9139
21.9139
21.9139
21.9139
21.9139
21.9139
21.9139
21.9139
21.9139
21.9139
21.9139
21.9139
21.9139
21.9139
21.9139
21.9139
21.9139
21.9139
21.9139
21.9139
21.9139
21.9139
21.9139
21.9139
21.9139
21.9139
21.9139
21.9139
21.9139
21.9139
21.9139
21.9139
21.9139
21.9139
21.9139
21.9139
21.9139
21.9139
21.9139
21.9139
21.9139
21.9139
21.9139
21.9139
21.9139
21.9139
21.9139
21.9139
21.9139
21.9139
21.9139
21.9139
21.9139
21.9139
21.9139
21.9139
21.9139
21.9139
21.9139
21.9139
21.9139
21.9139
21.9139
21.9139
21.9139
21.9139
21.9139
21.9139
21.9139
21.9139
21.9139
21.9139
21.9139
21.9139
21.9139
21.9139
21.9139
21.9139
21.9139
21.9139
21.9139
21.9139
21.9139
21.9139
21.9139
21.9139
21.9139
21.9139
21.9139
21.9139
21.9139
21.9139
21.9139
21.9139
21.9139
21.9139
21.9139
21.9139
21.9139
21.9139
21.9139
21.9139
21.9139
21.9139
21.9139
21.9139
21.9139
21.9139
21.9139
21.9139
21.9139
21.9139
21.9139
21.9139
21.9139
21.9139
21.9139
21.9139
21.9139
21.9139
21.9139
21.9139
21.9139
21.9139
21.9139
21.9139
21.9139
21.9139
21.9139
21.9139
21.9139
21.9139
21.9139
21.9139
21.9139
21.9139
21.9139
21.9139
21.9139
21.9139
21.9139
21.9139
21.9139
21.9139
21.9139
21.9139
21.9139
21.9139
21.9139
21.9139
21.9139
21.9139
21.9139
21.9139
21.9139
21.9139
21.9139
21.9139
21.9139
21.9139
21.9139
21.9139
21.9139
21.9139
21.9139
21.9139
21.9139
21.9139
21.9139
21.9139
21.9139
21.9139
21.9139
21.9139
21.9139
21.9139
21.9139
21.9139
21.9139
21.9139
21.9139
21.9139
21.9139
21.9139
21.9139
21.9139
21.9139
21.9139
21.9139
21.9139
21.9139
21.9139
21.9139
21.9139
21.9139
21.9139
21.9139
21.9139
21.9139
21.9139
21.9139
21.9139
21.9139
21.9139
21.9139
21.9139
21.9139
21.9139
21.9139
21.9139
21.9139
21.9139
21.9139
21.9139
21.9139
21.9139
21.9139
21.9139
21.9139
21.9139
21.9139
21.9139
21.9139
21.9139
21.9139
21.9139
21.9139
21.9139
21.9139
21.9139
21.9139
21.9139
21.9139
21.9139
21.9139
21.9139
21.9139
21.9139
21.9139
21.9139
21.9139
21.9139
21.9139
21.9139
21.9139
21.9139
21.9139
21.9139
21.9139
21.9139
21.9139
21.9139
21.9139
21.9139
21.9139
21.9139
21.9139
21.9139
21.9139
21.9139
21.9139
21.9139
21.9139
21.9139
21.9139
21.9139
21.9139
21.9139
21.9139
21.9139
21.9139
21.9139
21.9139
21.9139
21.9139
21.9139
21.9139
21.9139
21.9139
21.9139
21.9139
21.9139
21.9139
21.9139
21.9139
21.9139
21.9139
21.9139
21.9139
21.9139
21.9139
21.9139
21.9139
21.9139
21.9139
21.9139
21.9139
21.9139
21.9139
21.9139
21.9139
21.9139
21.9139
21.9139
21.9139
21.9139
21.9139
21.9139
21.9139
21.9139
21.9139
21.9139
21.9139
21.9139
21.9139
21.9139
21.9139
21.9139
21.9139
21.9139
21.9139
21.9139
21.9139
21.9139
21.9139
21.9139
21.9139
21.9139
21.9139
21.9139
21.9139
21.9139
21.9139
21.9139
21.9139
21.9139
21.9139
21.9139
21.9139
21.9139
21.9139
21.9139
21.9139
21.9139
21.9139
21.9139
21.9139
21.9139
21.9139
21.9139
21.9139
21.9139
21.9139
21.9139
21.9139
21.9139
21.9139
21.9139
21.914
21.914
21.9141
21.9139
21.9139
21.9139
21.9139
21.9139
21.9139
21.9139
21.9139
21.9139
21.9139
21.9139
21.9139
21.9139
21.9139
21.9139
21.9139
21.9139
21.9139
21.9139
21.9139
21.9139
21.9139
21.9139
21.9139
21.9139
21.9139
21.9139
21.9139
21.9139
21.9139
21.9139
21.9139
21.9139
21.9139
21.9139
21.9139
21.9139
21.9139
21.9139
21.9139
21.9139
21.9139
21.9139
21.9139
21.9139
21.914
21.9141
21.9142
21.9145
21.9151
21.9139
21.9139
21.9139
21.9139
21.9139
21.9139
21.9139
21.9139
21.9139
21.9139
21.9139
21.9139
21.9139
21.9139
21.9139
21.9139
21.9139
21.9139
21.9139
21.9139
21.9139
21.9139
21.9139
21.9139
21.9139
21.9139
21.9139
21.9139
21.9139
21.9139
21.9139
21.9139
21.9139
21.9139
21.9139
21.9139
21.9139
21.9139
21.9139
21.9139
21.9139
21.9139
21.914
21.9141
21.9142
21.9145
21.9149
21.9158
21.9175
21.921
21.9139
21.9139
21.9139
21.9139
21.9139
21.9139
21.9139
21.9139
21.9139
21.9139
21.9139
21.9139
21.9139
21.9139
21.9139
21.9139
21.9139
21.9139
21.9139
21.9139
21.9139
21.9139
21.9139
21.9139
21.9139
21.9139
21.9139
21.9139
21.9139
21.9139
21.9139
21.9139
21.9139
21.9139
21.9139
21.9139
21.9139
21.9139
21.914
21.914
21.9141
21.9142
21.9144
21.9149
21.9157
21.9172
21.92
21.9252
21.9351
21.9553
21.9139
21.9139
21.9139
21.9139
21.9139
21.9139
21.9139
21.9139
21.9139
21.9139
21.9139
21.9139
21.9139
21.9139
21.9139
21.9139
21.9139
21.9139
21.9139
21.9139
21.9139
21.9139
21.9139
21.9139
21.9139
21.9139
21.9139
21.9139
21.9139
21.9139
21.9139
21.9139
21.9139
21.9139
21.9139
21.914
21.914
21.9141
21.9142
21.9144
21.9149
21.9156
21.9171
21.9196
21.9244
21.9331
21.9491
21.979
22.0353
22.1476
21.9139
21.9139
21.9139
21.9139
21.9139
21.9139
21.9139
21.9139
21.9139
21.9139
21.9139
21.9139
21.9139
21.9139
21.9139
21.9139
21.9139
21.9139
21.9139
21.9139
21.9139
21.9139
21.9139
21.9139
21.9139
21.9139
21.9139
21.9139
21.9139
21.9139
21.9139
21.9139
21.914
21.914
21.9141
21.9142
21.9145
21.9149
21.9157
21.917
21.9195
21.924
21.9321
21.9468
21.9736
22.0227
22.1128
22.2789
22.5878
23.1828
21.9139
21.9139
21.9139
21.9139
21.9139
21.9139
21.9139
21.9139
21.9139
21.9139
21.9139
21.9139
21.9139
21.9139
21.9139
21.9139
21.9139
21.9139
21.9139
21.9139
21.9139
21.9139
21.9139
21.9139
21.9139
21.9139
21.9139
21.9139
21.9139
21.914
21.914
21.9141
21.9142
21.9145
21.9149
21.9157
21.9171
21.9195
21.9239
21.9316
21.9456
21.9706
22.0158
22.0975
22.2455
22.5136
22.9983
23.8697
25.4221
28.1781
21.9139
21.9139
21.9139
21.9139
21.9139
21.9139
21.9139
21.9139
21.9139
21.9139
21.9139
21.9139
21.9139
21.9139
21.9139
21.9139
21.9139
21.9139
21.9139
21.9139
21.9139
21.9139
21.9139
21.9139
21.9139
21.9139
21.914
21.914
21.9141
21.9143
21.9145
21.915
21.9158
21.9172
21.9197
21.9241
21.9318
21.9454
21.9695
22.0124
22.0889
22.2256
22.4699
22.9054
23.677
25.0266
27.3363
31.1609
37.2327
46.4597
21.9139
21.9139
21.9139
21.9139
21.9139
21.9139
21.9139
21.9139
21.9139
21.9139
21.9139
21.9139
21.9139
21.9139
21.9139
21.9139
21.9139
21.9139
21.9139
21.9139
21.9139
21.9139
21.914
21.914
21.9141
21.9142
21.9143
21.9146
21.9151
21.916
21.9175
21.9201
21.9246
21.9325
21.9461
21.9701
22.012
22.0859
22.216
22.4455
22.8494
23.5561
24.7788
26.8519
30.2599
35.6328
43.6893
55.1474
70.6431
90.8897
21.9139
21.9139
21.9139
21.9139
21.9139
21.9139
21.9139
21.9139
21.9139
21.9139
21.9139
21.9139
21.9139
21.9139
21.9139
21.9139
21.9139
21.9139
21.9139
21.914
21.914
21.9141
21.9142
21.9144
21.9147
21.9153
21.9163
21.9179
21.9207
21.9255
21.9337
21.9479
21.9723
22.0146
22.088
22.2157
22.4377
22.8234
23.4898
24.6295
26.5429
29.6654
34.5668
41.9034
52.3318
66.4271
84.6541
107.416
135.113
168.973
21.9139
21.9139
21.9139
21.9139
21.9139
21.9139
21.9139
21.9139
21.9139
21.9139
21.9139
21.9139
21.9139
21.9139
21.9139
21.914
21.914
21.914
21.9141
21.9143
21.9145
21.9149
21.9156
21.9167
21.9185
21.9216
21.9269
21.9357
21.9508
21.9765
22.0203
22.0954
22.2243
22.4454
22.8244
23.4709
24.5628
26.3757
29.3071
33.8782
40.6939
50.3674
63.4415
80.3529
101.446
127.056
157.647
194.011
236.547
288.53
21.9139
21.9139
21.9139
21.9139
21.9139
21.9139
21.9139
21.9139
21.9139
21.9139
21.9139
21.9139
21.914
21.914
21.9141
21.9142
21.9144
21.9147
21.9151
21.9159
21.9172
21.9193
21.9229
21.9288
21.9386
21.9551
21.9829
22.0296
22.1087
22.2425
22.469
22.8521
23.4968
24.5716
26.3342
29.1532
33.5098
39.9634
49.0844
61.3828
77.2707
97.0743
121.082
149.655
183.383
222.955
269.131
323.838
389.859
476.778
21.9139
21.9139
21.9139
21.9139
21.9139
21.9139
21.9139
21.9139
21.914
21.914
21.914
21.9141
21.9143
21.9145
21.9149
21.9155
21.9164
21.918
21.9205
21.9246
21.9314
21.9427
21.9613
21.9921
22.0434
22.1289
22.2718
22.5104
22.9084
23.569
24.6553
26.4129
29.189
33.4318
39.6601
48.4029
60.1342
75.2381
94.0201
116.74
143.696
175.349
212.384
255.468
305.666
365.479
438.923
530.485
640.353
772.485
21.9139
21.9139
21.9139
21.9139
21.914
21.914
21.914
21.9141
21.9142
21.9144
21.9147
21.9152
21.9159
21.9171
21.919
21.9221
21.9271
21.9352
21.9483
21.9698
22.0051
22.0629
22.158
22.3148
22.5731
22.9979
23.693
24.8195
26.616
29.4137
33.634
39.7592
48.2778
59.626
74.1572
92.151
113.848
139.503
169.482
204.399
244.926
291.83
346.713
412.853
494.414
594.522
712.528
842.944
973.325
1097.24
21.914
21.914
21.914
21.9141
21.9142
21.9144
21.9146
21.915
21.9156
21.9166
21.9181
21.9205
21.9244
21.9305
21.9404
21.9563
21.9818
22.0232
22.0901
22.1988
22.3755
22.6627
23.1282
23.8787
25.0765
26.957
29.8401
34.1246
40.2594
48.6931
59.823
73.969
91.3831
112.287
136.904
165.542
198.702
237.081
281.331
332.513
393.022
466.645
557.074
665.789
789.667
920.684
1047.18
1158.67
1247.17
1312.71
21.9142
21.9143
21.9146
21.9149
21.9154
21.9163
21.9175
21.9196
21.9227
21.9277
21.9355
21.9479
21.9675
21.9987
22.0485
22.1281
22.2557
22.4602
22.7879
23.3113
24.1421
25.4466
27.4603
30.4948
34.9296
41.1812
49.6586
60.7192
74.6475
91.6682
111.981
135.792
163.367
195.115
231.701
273.762
322.08
378.304
445.599
527.756
627.36
743.717
871.244
1000.4
1119.77
1220.68
1298.08
1352.39
1386.05
1404.61
21.9149
21.9153
21.9161
21.9172
21.919
21.9217
21.926
21.9325
21.9427
21.9586
21.9835
22.0226
22.0842
22.1814
22.3351
22.578
22.9614
23.5646
24.5066
25.9601
28.1628
31.4204
36.0933
42.5666
51.2088
62.3364
76.1983
92.9919
112.895
136.103
162.848
193.483
228.575
268.808
314.832
367.787
430.153
505.468
596.886
705.298
827.524
955.983
1080.29
1190.48
1279.83
1346.15
1390.57
1416.71
1430.02
1434.06
1437.13
21.9188
21.9213
21.925
21.9308
21.9397
21.9533
21.9743
22.0067
22.057
22.1352
22.257
22.4468
22.7425
23.2024
23.9142
25.0065
26.6604
29.1176
32.6773
37.6808
44.4801
53.4024
64.7228
78.6556
95.3712
115.029
137.809
163.927
193.691
227.588
266.311
310.46
360.896
419.453
489.253
573.62
674.423
790.377
915.908
1042.17
1158.95
1258.32
1335.56
1391.11
1426
1446.52
1454.42
1457.04
1459.72
1458.71
1453.34
21.9301
21.9383
21.9505
21.9692
21.9976
22.041
22.1073
22.2092
22.3655
22.6058
22.9746
23.5391
24.3977
25.6907
27.609
30.3976
34.3482
39.7801
47.0098
56.3225
67.9519
82.0787
98.8485
118.404
140.913
166.582
195.689
228.659
266.146
308.769
357.219
412.843
478.276
556.759
650.717
760.181
881.484
1007.25
1128.06
1234.98
1322.33
1387.77
1432.7
1459.52
1474.2
1478.15
1480.91
1481.78
1479.18
1472.45
1462.17
1449.1
21.9936
22.033
22.0924
22.1821
22.3179
22.5236
22.835
23.3055
24.0133
25.0699
26.6287
28.8903
32.1011
36.5416
42.5047
50.269
60.0761
72.1201
86.5503
103.49
123.07
145.449
170.828
199.462
231.738
268.245
309.632
356.496
409.864
471.885
545.578
633.625
736.927
853.312
976.938
1099.47
1211.89
1307.36
1382.04
1436.1
1471.04
1491.19
1500.05
1502.4
1504.8
1503.73
1499.12
1490.9
1479.71
1466.43
1452.04
1436.53
22.2951
22.4805
22.7572
23.1697
23.7824
24.6871
26.01
27.9178
30.619
34.3571
39.3955
45.9958
54.3952
64.7928
77.3451
92.1744
109.387
129.103
151.478
176.71
205.039
236.82
272.587
313.001
358.608
410.24
469.624
539.492
622.579
720.329
831.665
952.194
1074.66
1190.51
1292.14
1375.04
1437.32
1480.4
1506.57
1520.96
1525.03
1526.87
1528.01
1525.41
1519.08
1509.32
1497.56
1483.62
1468.88
1453.82
1438.9
1423.28
23.6649
24.4771
25.6518
27.3306
29.6918
32.9469
37.3299
43.0798
50.4216
59.55
70.6233
83.7654
99.0769
116.652
136.605
159.089
184.302
212.472
243.932
279.173
318.853
363.493
413.797
471.167
538.04
617.082
710.04
816.595
933.513
1054.64
1172.16
1278.35
1367.75
1437.49
1487.94
1520.91
1539.8
1548.07
1550.12
1552.04
1550.73
1546.19
1538.37
1527.72
1515.1
1500.84
1486.13
1471.06
1455.93
1440.81
1426.05
1410.69
29.1892
32.1298
36.0689
41.2221
47.7967
55.9772
65.9169
77.7382
91.5385
107.402
125.416
145.693
168.387
193.694
221.839
253.138
288.051
327.215
371.152
420.471
476.336
540.915
616.739
705.684
807.939
921.15
1040.21
1158.04
1267.12
1361.42
1437.6
1494.63
1533.96
1557.91
1570.67
1574.24
1575.58
1576.18
1573.2
1566.87
1557.58
1546.17
1532.75
1518.3
1503.49
1488.41
1473.32
1458.28
1443.34
1428.44
1413.87
1398.73
46.2743
53.7779
62.8807
73.6982
86.3238
100.836
117.308
135.824
156.501
179.495
205.004
233.25
264.538
299.309
338.169
381.638
430.263
485.052
547.928
621.269
706.97
805.522
915.209
1031.78
1148.91
1259.52
1357.44
1438.64
1501.31
1546.34
1575.65
1592.01
1598.81
1600.35
1601.58
1599.67
1594.83
1587.03
1576.64
1564.45
1550.51
1536.01
1521.11
1506.03
1490.96
1475.93
1460.99
1446.13
1431.38
1416.65
1402.21
1387.23
83.1061
96.575
111.837
128.963
148.038
169.185
192.567
218.383
246.851
278.267
313.063
351.82
395.045
443.239
497.312
558.997
630.511
713.691
809.174
915.682
1029.63
1145.43
1256.48
1356.64
1441.51
1508.96
1558.99
1592.96
1613.18
1623.5
1626.01
1626.72
1626.46
1622.83
1616.17
1606.98
1595.79
1582.67
1568.45
1553.85
1538.89
1523.85
1508.82
1493.83
1478.9
1464.04
1449.26
1434.54
1419.91
1405.29
1390.96
1376.1
162.243
183.928
207.781
234
262.8
294.476
329.456
368.304
411.501
459.517
513.198
574.141
644.409
725.731
818.776
922.545
1033.95
1148.02
1258.65
1359.9
1447.34
1518.39
1572.34
1610.44
1634.64
1647.72
1652.2
1653.03
1653.46
1650.66
1645.09
1637.03
1626.73
1614.72
1601.01
1586.7
1571.94
1556.94
1541.92
1526.91
1511.94
1497.03
1482.18
1467.39
1452.65
1437.97
1423.35
1408.82
1394.29
1380.04
1365.31
252.041
281.282
313.35
348.678
387.813
431.195
479.271
532.858
593.467
663.014
743.082
834.292
935.785
1044.83
1156.94
1266.52
1367.96
1456.8
1530.27
1587.36
1628.97
1656.35
1672.04
1679.01
1680.3
1680.31
1678.81
1674.3
1667.09
1657.73
1646.55
1633.52
1619.48
1605.06
1590.23
1575.25
1560.26
1545.26
1530.31
1515.41
1500.56
1485.76
1471
1456.3
1441.64
1427.04
1412.5
1398.05
1383.61
1369.44
1354.83
370.977
410.591
454.36
502.722
556.5
617.157
686.464
765.829
855.759
955.431
1062.35
1172.4
1280.47
1381.3
1470.5
1545.39
1604.7
1648.75
1678.81
1697.14
1706.1
1708.16
1708.21
1707.49
1703.56
1696.97
1688.48
1678.1
1666.06
1652.48
1638.32
1623.68
1608.76
1593.8
1578.82
1563.86
1548.93
1534.04
1519.18
1504.37
1489.6
1474.87
1460.18
1445.54
1430.95
1416.42
1401.95
1387.58
1373.22
1359.14
1344.64
584.388
645.476
715.001
794.161
883.299
981.56
1086.59
1194.55
1300.73
1400.28
1488.99
1564.3
1624.81
1670.45
1702.63
1723.08
1733.49
1736.89
1737.09
1736.15
1733.16
1727.5
1719.57
1709.83
1698.51
1685.42
1671.51
1657.22
1642.48
1627.6
1612.65
1597.67
1582.72
1567.8
1552.92
1538.06
1523.24
1508.45
1493.69
1478.98
1464.3
1449.66
1435.08
1420.55
1406.09
1391.69
1377.39
1363.13
1349.13
1334.75
828.343
917.114
1014.32
1117.64
1223.47
1327.45
1425.12
1512.57
1587.37
1648.14
1694.64
1728.13
1749.99
1761.76
1766.36
1766.75
1765.71
1763.35
1758.16
1750.42
1741.5
1730.84
1718.51
1704.95
1690.93
1676.37
1661.53
1646.66
1631.73
1616.79
1601.86
1586.94
1572.06
1557.2
1542.37
1527.56
1512.78
1498.03
1483.32
1468.64
1454.01
1439.42
1424.89
1410.42
1396.03
1381.7
1367.48
1353.3
1339.39
1325.13
1155.6
1259.23
1360.71
1455.96
1541.43
1614.87
1675.04
1721.56
1755.56
1778.31
1791.21
1796.44
1797.17
1796.17
1793.91
1789.3
1782.13
1773.45
1763.27
1751.61
1738.42
1724.64
1710.39
1695.72
1680.92
1666.03
1651.09
1636.16
1621.25
1606.36
1591.47
1576.6
1561.76
1546.93
1532.13
1517.35
1502.6
1487.88
1473.2
1458.57
1443.98
1429.44
1414.97
1400.56
1386.23
1371.98
1357.84
1343.75
1329.93
1315.79
1492.8
1575.63
1646.94
1705.69
1751.43
1785.23
1808.26
1821.71
1827.35
1828.47
1827.52
1824.94
1820.88
1814.21
1805.53
1795.91
1784.82
1772.08
1758.53
1744.55
1730.04
1715.32
1700.53
1685.65
1670.75
1655.84
1640.92
1626.03
1611.15
1596.28
1581.42
1566.57
1551.74
1536.94
1522.15
1507.4
1492.67
1477.99
1463.34
1448.74
1434.2
1419.71
1405.3
1390.95
1376.69
1362.51
1348.45
1334.46
1320.72
1306.7
1740.09
1784.39
1817.32
1840.02
1853.48
1859.36
1860.54
1859.58
1856.87
1852.93
1846.69
1838.03
1828.73
1818.09
1805.78
1792.52
1778.85
1764.58
1749.97
1735.25
1720.42
1705.54
1690.67
1675.78
1660.89
1645.99
1631.1
1616.22
1601.35
1586.49
1571.63
1556.8
1541.98
1527.18
1512.42
1497.68
1482.98
1468.33
1453.72
1439.16
1424.66
1410.23
1395.87
1381.59
1367.4
1353.3
1339.32
1325.41
1311.77
1297.87
1873.62
1886.65
1892.41
1893.51
1892.46
1889.75
1885.5
1879.6
1871.12
1861.8
1851.58
1839.83
1826.74
1813.24
1799.18
1784.73
1770.15
1755.43
1740.61
1725.75
1710.87
1695.99
1681.11
1666.22
1651.33
1636.44
1621.55
1606.67
1591.79
1576.93
1562.08
1547.25
1532.44
1517.66
1502.91
1488.2
1473.53
1458.9
1444.33
1429.81
1415.36
1400.98
1386.68
1372.47
1358.34
1344.32
1330.43
1316.61
1303.06
1289.29
1927.38
1926.13
1923.31
1918.76
1912.97
1904.8
1895.33
1885.29
1873.95
1861.05
1847.78
1834.06
1819.73
1805.22
1790.58
1775.83
1761.05
1746.23
1731.37
1716.5
1701.61
1686.72
1671.83
1656.93
1642.03
1627.13
1612.23
1597.34
1582.46
1567.59
1552.74
1537.92
1523.12
1508.35
1493.62
1478.93
1464.29
1449.7
1435.16
1420.69
1406.29
1391.97
1377.72
1363.57
1349.52
1335.58
1321.77
1308.05
1294.59
1280.95
1946.75
1938.85
1929.28
1919.29
1908.26
1895.64
1882.47
1869.02
1854.85
1840.46
1825.97
1811.29
1796.56
1781.78
1766.96
1752.13
1737.27
1722.4
1707.51
1692.6
1677.69
1662.78
1647.86
1632.94
1618.02
1603.11
1588.21
1573.32
1558.46
1543.61
1528.79
1514.01
1499.26
1484.55
1469.88
1455.27
1440.71
1426.22
1411.79
1397.44
1383.17
1368.99
1354.9
1340.93
1327.06
1313.34
1299.71
1286.36
1272.83
1953.61
1942.77
1930.46
1917.37
1904.11
1890.14
1875.84
1861.5
1846.93
1832.26
1817.55
1802.78
1787.98
1773.16
1758.31
1743.45
1728.56
1713.66
1698.74
1683.81
1668.87
1653.93
1638.98
1624.04
1609.11
1594.19
1579.28
1564.39
1549.52
1534.68
1519.87
1505.1
1490.37
1475.68
1461.04
1446.46
1431.94
1417.48
1403.1
1388.8
1374.59
1360.47
1346.45
1332.55
1318.77
1305.13
1291.6
1278.34
1264.94
1952.47
1939.33
1925.6
1911.41
1897.18
1882.73
1868.13
1853.51
1838.81
1824.06
1809.28
1794.47
1779.63
1764.76
1749.88
1734.97
1720.05
1705.1
1690.15
1675.19
1660.22
1645.25
1630.29
1615.33
1600.38
1585.45
1570.53
1555.64
1540.78
1525.94
1511.14
1496.39
1481.67
1467.01
1452.4
1437.85
1423.37
1408.95
1394.62
1380.37
1366.21
1352.16
1338.21
1324.38
1310.68
1297.14
1283.71
1270.55
1257.28
1932.99
1918.69
1904.18
1889.64
1875.02
1860.33
1845.61
1830.84
1816.04
1801.21
1786.35
1771.46
1756.55
1741.62
1726.66
1711.7
1696.72
1681.73
1666.73
1651.74
1636.74
1621.76
1606.79
1591.83
1576.89
1561.97
1547.08
1532.22
1517.39
1502.61
1487.87
1473.17
1458.53
1443.95
1429.44
1414.99
1400.62
1386.34
1372.14
1358.04
1344.05
1330.17
1316.42
1302.81
1289.35
1276.03
1262.97
1249.84
1925.92
1911.4
1896.78
1882.13
1867.42
1852.67
1837.88
1823.06
1808.2
1793.31
1778.4
1763.45
1748.49
1733.51
1718.51
1703.5
1688.49
1673.46
1658.44
1643.42
1628.4
1613.4
1598.42
1583.45
1568.5
1553.58
1538.69
1523.84
1509.03
1494.26
1479.53
1464.86
1450.25
1435.7
1421.22
1406.81
1392.48
1378.25
1364.1
1350.07
1336.14
1322.34
1308.67
1295.14
1281.79
1268.57
1255.63
1242.63
1904.18
1889.49
1874.76
1859.98
1845.16
1830.31
1815.42
1800.5
1785.55
1770.58
1755.58
1740.57
1725.54
1710.5
1695.45
1680.4
1665.35
1650.3
1635.26
1620.23
1605.21
1590.21
1575.24
1560.29
1545.37
1530.49
1515.64
1500.84
1486.08
1471.38
1456.73
1442.15
1427.63
1413.18
1398.81
1384.53
1370.35
1356.26
1342.29
1328.43
1314.71
1301.13
1287.69
1274.44
1261.33
1248.48
1235.6
1897.1
1882.33
1867.52
1852.68
1837.79
1822.87
1807.91
1792.93
1777.92
1762.89
1747.85
1732.79
1717.71
1702.63
1687.55
1672.47
1657.39
1642.31
1627.25
1612.21
1597.18
1582.17
1567.19
1552.24
1537.33
1522.45
1507.61
1492.82
1478.08
1463.4
1448.78
1434.22
1419.73
1405.33
1391
1376.77
1362.64
1348.61
1334.71
1320.93
1307.29
1293.79
1280.44
1267.27
1254.26
1241.51
1228.76
1875.29
1860.4
1845.48
1830.52
1815.53
1800.52
1785.47
1770.41
1755.33
1740.24
1725.13
1710.02
1694.9
1679.79
1664.68
1649.57
1634.48
1619.4
1604.34
1589.3
1574.29
1559.31
1544.36
1529.45
1514.58
1499.75
1484.98
1470.25
1455.59
1441
1426.47
1412.02
1397.65
1383.38
1369.2
1355.13
1341.17
1327.33
1313.62
1300.04
1286.62
1273.35
1260.27
1247.36
1234.73
1222.11
1868.34
1853.38
1838.39
1823.36
1808.31
1793.23
1778.13
1763.02
1747.89
1732.75
1717.61
1702.46
1687.31
1672.17
1657.03
1641.9
1626.79
1611.7
1596.63
1581.58
1566.57
1551.58
1536.63
1521.73
1506.86
1492.05
1477.29
1462.59
1447.96
1433.39
1418.9
1404.49
1390.17
1375.95
1361.82
1347.8
1333.89
1320.11
1306.46
1292.95
1279.62
1266.44
1253.47
1240.67
1228.15
1215.67
1861.49
1846.45
1831.39
1816.3
1801.19
1786.06
1770.91
1755.74
1740.57
1725.39
1710.21
1695.03
1679.85
1664.68
1649.52
1634.38
1619.25
1604.14
1589.06
1574.01
1558.99
1544.01
1529.06
1514.16
1499.31
1484.52
1469.78
1455.11
1440.5
1425.97
1411.52
1397.15
1382.86
1368.68
1354.59
1340.61
1326.76
1313.04
1299.47
1286.05
1272.8
1259.72
1246.85
1234.16
1221.76
1209.4
1854.72
1839.62
1824.49
1809.34
1794.18
1778.99
1763.79
1748.58
1733.37
1718.15
1702.94
1687.73
1672.52
1657.33
1642.15
1626.99
1611.85
1596.73
1581.64
1566.59
1551.57
1536.59
1521.65
1506.77
1491.93
1477.16
1462.45
1447.8
1433.22
1418.71
1404.28
1389.94
1375.69
1361.54
1347.51
1333.6
1319.81
1306.16
1292.66
1279.33
1266.16
1253.18
1240.41
1227.82
1215.54
1203.31
1848.04
1832.88
1817.69
1802.49
1787.27
1772.03
1756.79
1741.54
1726.29
1711.04
1695.79
1680.55
1665.32
1650.11
1634.91
1619.73
1604.58
1589.46
1574.37
1559.31
1544.3
1529.33
1514.41
1499.54
1484.72
1469.96
1455.26
1440.63
1426.07
1411.58
1397.19
1382.88
1368.68
1354.58
1340.6
1326.75
1313.03
1299.45
1286.03
1272.77
1259.69
1246.81
1234.14
1221.66
1209.49
1197.41
1841.45
1826.23
1810.99
1795.73
1780.46
1765.18
1749.9
1734.61
1719.33
1704.04
1688.77
1673.5
1658.25
1643.02
1627.81
1612.62
1597.47
1582.34
1567.25
1552.2
1537.2
1522.23
1507.31
1492.45
1477.64
1462.89
1448.2
1433.59
1419.06
1404.61
1390.25
1375.99
1361.83
1347.79
1333.86
1320.07
1306.41
1292.9
1279.55
1266.38
1253.39
1240.6
1228.04
1215.68
1203.66
1191.75
1834.96
1819.68
1804.39
1789.08
1773.76
1758.44
1743.12
1727.8
1712.48
1697.17
1681.87
1666.59
1651.32
1636.08
1620.86
1605.67
1590.51
1575.38
1560.28
1545.23
1530.22
1515.26
1500.34
1485.48
1470.69
1455.96
1441.3
1426.71
1412.21
1397.8
1383.48
1369.26
1355.14
1341.15
1327.27
1313.54
1299.94
1286.5
1273.23
1260.14
1247.25
1234.57
1222.14
1209.93
1198.06
1186.34
1813.22
1797.88
1782.53
1767.17
1751.81
1736.46
1721.1
1705.76
1690.43
1675.11
1659.81
1644.53
1629.28
1614.04
1598.84
1583.67
1568.53
1553.43
1538.37
1523.36
1508.41
1493.5
1478.66
1463.88
1449.17
1434.54
1419.98
1405.51
1391.13
1376.85
1362.67
1348.6
1334.65
1320.84
1307.16
1293.63
1280.27
1267.08
1254.1
1241.33
1228.78
1216.49
1204.44
1192.64
1180.97
1806.86
1791.47
1776.09
1760.69
1745.3
1729.92
1714.54
1699.18
1683.82
1668.48
1653.16
1637.86
1622.58
1607.34
1592.12
1576.93
1561.8
1546.7
1531.65
1516.65
1501.7
1486.81
1471.99
1457.23
1442.54
1427.93
1413.4
1398.96
1384.61
1370.36
1356.22
1342.2
1328.3
1314.55
1300.94
1287.49
1274.23
1261.16
1248.29
1235.65
1223.21
1210.97
1198.96
1187.22
1175.62
1800.61
1785.19
1769.77
1754.34
1738.92
1723.5
1708.09
1692.69
1677.31
1661.95
1646.6
1631.28
1616
1600.74
1585.52
1570.34
1555.2
1540.11
1525.06
1510.07
1495.13
1480.26
1465.45
1450.71
1436.04
1421.45
1406.95
1392.54
1378.22
1364.01
1349.93
1335.96
1322.13
1308.45
1294.93
1281.58
1268.42
1255.47
1242.66
1230.05
1217.65
1205.46
1193.5
1181.9
1170.48
1779
1763.54
1748.08
1732.62
1717.17
1701.73
1686.3
1670.9
1655.52
1640.17
1624.84
1609.54
1594.28
1579.06
1563.88
1548.74
1533.65
1518.61
1503.62
1488.7