/*--------------------------------*- C++ -*----------------------------------*\
| =========                 |                                                 |
| \\      /  F ield         | OpenFOAM: The Open Source CFD Toolbox           |
|  \\    /   O peration     | Version:  v1706                                 |
|   \\  /    A nd           | Web:      www.OpenFOAM.com                      |
|    \\/     M anipulation  |                                                 |
\*---------------------------------------------------------------------------*/
FoamFile
{
    version     2.0;
    format      ascii;
    class       volScalarField;
    location    "9e-06";
    object      rho;
}
// * * * * * * * * * * * * * * * * * * * * * * * * * * * * * * * * * * * * * //

dimensions      [1 -3 0 0 0 0 0];


internalField   nonuniform List<scalar> 
30038
(
0.000511309
0.000511309
0.000511309
0.000511309
0.000511309
0.000511309
0.000511309
0.000511309
0.000511309
0.000511309
0.000511309
0.000511309
0.000511309
0.000511309
0.000511309
0.000511309
0.000511309
0.000511309
0.000511309
0.000511309
0.000511309
0.000511309
0.000511309
0.000511309
0.000511309
0.000511309
0.000511309
0.000511309
0.000511309
0.000511309
0.000511309
0.000511309
0.000511309
0.000511309
0.000511309
0.000511309
0.000511309
0.000511309
0.000511309
0.000511309
0.000511309
0.000511309
0.000511309
0.000511309
0.000511309
0.000511309
0.000511309
0.000511309
0.000511309
0.000511309
0.000511309
0.000511309
0.000511309
0.000511309
0.000511309
0.000511309
0.000511309
0.000511309
0.000511309
0.000511309
0.000511309
0.000511309
0.000511309
0.000511309
0.000511309
0.000511309
0.000511309
0.000511309
0.000511309
0.000511309
0.000511309
0.000511309
0.000511309
0.000511309
0.000511309
0.000511309
0.000511309
0.000511309
0.000511309
0.000511309
0.000511309
0.000511309
0.000511309
0.000511309
0.000511309
0.000511309
0.000511309
0.000511309
0.000511309
0.000511309
0.000511309
0.000511309
0.000511309
0.000511309
0.000511309
0.000511309
0.000511309
0.000511309
0.000511309
0.000511309
0.000511309
0.000511309
0.000511309
0.000511309
0.000511309
0.000511309
0.000511309
0.000511309
0.000511309
0.000511309
0.000511309
0.000511309
0.000511309
0.000511309
0.000511309
0.000511309
0.000511309
0.000511309
0.000511309
0.000511309
0.000511309
0.000511309
0.000511309
0.000511309
0.000511309
0.000511309
0.000511309
0.000511309
0.000511309
0.000511309
0.000511309
0.000511309
0.000511309
0.000511309
0.000511309
0.000511309
0.000511309
0.000511309
0.000511309
0.000511309
0.000511309
0.000511309
0.000511309
0.000511309
0.000511309
0.000511309
0.000511309
0.000511309
0.000511309
0.000511309
0.000511309
0.000511309
0.000511309
0.000511309
0.000511309
0.000511309
0.000511309
0.000511309
0.000511309
0.000511309
0.000511309
0.000511309
0.000511309
0.000511309
0.000511309
0.000511309
0.000511309
0.000511309
0.000511309
0.000511309
0.000511309
0.000511309
0.000511309
0.000511309
0.000511309
0.000511309
0.000511309
0.000511309
0.000511309
0.000511309
0.000511309
0.000511309
0.000511309
0.000511309
0.000511309
0.000511309
0.000511309
0.000511309
0.000511309
0.000511309
0.000511309
0.000511309
0.000511309
0.000511309
0.000511309
0.000511309
0.000511309
0.000511309
0.000511309
0.000511309
0.000511309
0.000511309
0.000511309
0.000511309
0.000511309
0.000511309
0.000511309
0.000511309
0.000511309
0.000511309
0.000511309
0.000511309
0.000511309
0.000511309
0.000511309
0.000511309
0.000511309
0.000511309
0.000511309
0.000511309
0.000511309
0.000511309
0.000511309
0.000511309
0.000511309
0.000511309
0.000511309
0.000511309
0.000511309
0.000511309
0.000511309
0.000511309
0.000511309
0.000511309
0.000511309
0.000511309
0.000511309
0.000511309
0.000511309
0.000511309
0.000511309
0.000511309
0.000511309
0.000511309
0.000511309
0.000511309
0.000511309
0.000511309
0.000511309
0.000511309
0.000511309
0.000511309
0.000511309
0.000511309
0.000511309
0.000511309
0.000511309
0.000511309
0.000511309
0.000511309
0.000511309
0.000511309
0.000511309
0.000511309
0.000511309
0.000511309
0.000511309
0.000511309
0.000511309
0.000511309
0.000511309
0.000511309
0.000511309
0.000511309
0.000511309
0.000511309
0.000511309
0.000511309
0.000511309
0.000511309
0.000511309
0.000511309
0.000511309
0.000511309
0.000511309
0.000511309
0.000511309
0.000511309
0.000511309
0.000511309
0.000511309
0.000511309
0.000511309
0.000511309
0.000511309
0.000511309
0.000511309
0.000511309
0.000511309
0.000511309
0.000511309
0.000511309
0.000511309
0.000511309
0.000511309
0.000511309
0.000511309
0.000511309
0.000511309
0.000511309
0.000511309
0.000511309
0.000511309
0.000511309
0.000511309
0.000511309
0.000511309
0.000511309
0.000511309
0.000511309
0.000511309
0.000511309
0.000511309
0.000511309
0.000511309
0.000511309
0.000511309
0.000511309
0.000511309
0.000511309
0.000511309
0.000511309
0.000511309
0.000511309
0.000511309
0.000511309
0.000511309
0.000511309
0.000511309
0.000511309
0.000511309
0.000511309
0.000511309
0.000511309
0.000511309
0.000511309
0.000511309
0.000511309
0.000511309
0.000511309
0.000511309
0.000511309
0.000511309
0.000511309
0.000511309
0.000511309
0.000511309
0.000511309
0.000511309
0.000511309
0.000511309
0.000511309
0.000511309
0.000511309
0.000511309
0.000511309
0.000511309
0.000511309
0.000511309
0.000511309
0.000511309
0.000511309
0.000511309
0.000511309
0.000511309
0.000511309
0.000511309
0.000511309
0.000511309
0.000511309
0.000511309
0.000511309
0.000511309
0.000511309
0.000511309
0.000511309
0.000511309
0.000511309
0.000511309
0.000511309
0.000511309
0.000511309
0.000511309
0.000511309
0.000511309
0.000511309
0.000511309
0.000511309
0.000511309
0.000511309
0.000511309
0.000511309
0.000511309
0.000511309
0.000511309
0.000511309
0.000511309
0.000511309
0.000511309
0.000511309
0.000511309
0.000511309
0.000511309
0.000511309
0.000511309
0.000511309
0.000511309
0.000511309
0.000511309
0.000511309
0.000511309
0.000511309
0.000511309
0.000511309
0.000511309
0.000511309
0.000511309
0.000511309
0.000511309
0.000511309
0.000511309
0.000511309
0.000511309
0.000511309
0.000511309
0.000511309
0.000511309
0.000511309
0.000511309
0.000511309
0.000511309
0.000511309
0.000511309
0.000511309
0.000511309
0.000511309
0.000511309
0.000511309
0.000511309
0.000511309
0.000511309
0.000511309
0.000511309
0.000511309
0.000511309
0.000511309
0.000511309
0.000511309
0.000511309
0.000511309
0.000511309
0.000511309
0.000511309
0.000511309
0.000511309
0.000511309
0.000511309
0.000511309
0.000511309
0.000511309
0.000511309
0.000511309
0.000511309
0.000511309
0.000511309
0.000511309
0.000511309
0.000511309
0.000511309
0.000511309
0.000511309
0.000511309
0.000511309
0.000511309
0.000511309
0.000511309
0.000511309
0.000511309
0.000511309
0.000511309
0.000511309
0.000511309
0.000511309
0.000511309
0.000511309
0.000511309
0.000511309
0.000511309
0.000511309
0.000511309
0.000511309
0.000511309
0.000511309
0.000511309
0.000511309
0.000511309
0.000511309
0.000511309
0.000511309
0.000511309
0.000511309
0.000511309
0.000511309
0.000511309
0.000511309
0.000511309
0.000511309
0.000511309
0.000511309
0.000511309
0.000511309
0.000511309
0.000511309
0.000511309
0.000511309
0.000511309
0.000511309
0.000511309
0.000511309
0.000511309
0.000511309
0.000511309
0.000511309
0.000511309
0.000511309
0.000511309
0.000511309
0.000511309
0.000511309
0.000511309
0.000511309
0.000511309
0.000511309
0.000511309
0.000511309
0.000511309
0.000511309
0.000511309
0.000511309
0.000511309
0.000511309
0.000511309
0.000511309
0.000511309
0.000511309
0.000511309
0.000511309
0.000511309
0.000511309
0.000511309
0.000511309
0.000511309
0.000511309
0.000511309
0.000511309
0.000511309
0.000511309
0.000511309
0.000511309
0.000511309
0.000511309
0.000511309
0.000511309
0.000511309
0.000511309
0.000511309
0.000511309
0.000511309
0.000511309
0.000511309
0.000511309
0.000511309
0.000511309
0.000511309
0.000511309
0.000511309
0.000511309
0.000511309
0.000511309
0.000511309
0.000511309
0.000511309
0.000511309
0.000511309
0.000511309
0.000511309
0.000511309
0.000511309
0.000511309
0.000511309
0.000511309
0.000511309
0.000511309
0.000511309
0.000511309
0.000511309
0.000511309
0.000511309
0.000511309
0.000511309
0.000511309
0.000511309
0.000511309
0.000511309
0.000511309
0.000511309
0.000511309
0.000511309
0.000511309
0.000511309
0.000511309
0.000511309
0.000511309
0.000511309
0.000511309
0.000511309
0.000511309
0.000511309
0.000511309
0.000511309
0.000511309
0.000511309
0.000511309
0.000511309
0.000511309
0.000511309
0.000511309
0.000511309
0.000511309
0.000511309
0.000511309
0.000511309
0.000511309
0.000511309
0.000511309
0.000511309
0.000511309
0.000511309
0.000511309
0.000511309
0.000511309
0.000511309
0.000511309
0.000511309
0.000511309
0.000511309
0.000511309
0.000511309
0.000511309
0.000511309
0.000511309
0.000511309
0.000511309
0.000511309
0.000511309
0.000511309
0.000511309
0.000511309
0.000511309
0.000511309
0.000511309
0.000511309
0.000511309
0.000511309
0.000511309
0.000511309
0.000511309
0.000511309
0.000511309
0.000511309
0.000511309
0.000511309
0.000511309
0.000511309
0.000511309
0.000511309
0.000511309
0.000511309
0.000511309
0.000511309
0.000511309
0.000511309
0.000511309
0.000511309
0.000511309
0.000511309
0.000511309
0.000511309
0.000511309
0.000511309
0.000511309
0.000511309
0.000511309
0.000511309
0.000511309
0.000511309
0.000511309
0.000511309
0.000511309
0.000511309
0.000511309
0.000511309
0.000511309
0.000511309
0.000511309
0.000511309
0.000511309
0.000511309
0.000511309
0.000511309
0.000511309
0.000511309
0.000511309
0.000511309
0.000511309
0.000511309
0.000511309
0.000511309
0.000511309
0.000511309
0.000511309
0.000511309
0.000511309
0.000511309
0.000511309
0.000511309
0.000511309
0.000511309
0.000511309
0.000511309
0.000511309
0.000511309
0.000511309
0.000511309
0.000511309
0.000511309
0.000511309
0.000511309
0.000511309
0.000511309
0.000511309
0.000511309
0.000511309
0.000511309
0.000511309
0.000511309
0.000511309
0.000511309
0.000511309
0.000511309
0.000511309
0.000511309
0.000511309
0.000511309
0.000511309
0.000511309
0.000511309
0.000511309
0.000511309
0.000511309
0.000511309
0.000511309
0.000511309
0.000511309
0.000511309
0.000511309
0.000511309
0.000511309
0.000511309
0.000511309
0.000511309
0.000511309
0.000511309
0.000511309
0.000511309
0.000511309
0.000511309
0.000511309
0.000511309
0.000511309
0.000511309
0.000511309
0.000511309
0.000511309
0.000511309
0.000511309
0.000511309
0.000511309
0.000511309
0.000511309
0.000511309
0.000511309
0.000511309
0.000511309
0.000511309
0.000511309
0.000511309
0.000511309
0.000511309
0.000511309
0.000511309
0.000511309
0.000511309
0.000511309
0.000511309
0.000511309
0.000511309
0.000511309
0.000511309
0.000511309
0.000511309
0.000511309
0.000511309
0.000511309
0.000511309
0.000511309
0.000511309
0.000511309
0.000511309
0.000511309
0.000511309
0.000511309
0.000511309
0.000511309
0.000511309
0.000511309
0.000511309
0.000511309
0.000511309
0.000511309
0.000511309
0.000511309
0.000511309
0.000511309
0.000511309
0.000511309
0.000511309
0.000511309
0.000511309
0.000511309
0.000511309
0.000511309
0.000511309
0.000511309
0.000511309
0.000511309
0.000511309
0.000511309
0.000511309
0.000511309
0.000511309
0.000511309
0.000511309
0.000511309
0.000511309
0.000511309
0.000511309
0.000511309
0.000511309
0.000511309
0.000511309
0.000511309
0.000511309
0.000511309
0.000511309
0.000511309
0.000511309
0.000511309
0.000511309
0.000511309
0.000511309
0.000511309
0.000511309
0.000511309
0.000511309
0.000511309
0.000511309
0.000511309
0.000511309
0.000511309
0.000511309
0.000511309
0.000511309
0.000511309
0.000511309
0.000511309
0.000511309
0.000511309
0.000511309
0.000511309
0.000511309
0.000511309
0.000511309
0.000511309
0.000511309
0.000511309
0.000511309
0.000511309
0.000511309
0.000511309
0.000511309
0.000511309
0.000511309
0.000511309
0.000511309
0.000511309
0.000511309
0.000511309
0.000511309
0.000511309
0.000511309
0.000511309
0.000511309
0.000511309
0.000511309
0.000511309
0.000511309
0.000511309
0.000511309
0.000511309
0.000511309
0.000511309
0.000511309
0.000511309
0.000511309
0.000511309
0.000511309
0.000511309
0.000511309
0.000511309
0.000511309
0.000511309
0.000511309
0.000511309
0.000511309
0.000511309
0.000511309
0.000511309
0.000511309
0.000511309
0.000511309
0.000511309
0.000511309
0.000511309
0.000511309
0.000511309
0.000511309
0.000511309
0.000511309
0.000511309
0.000511309
0.000511309
0.000511309
0.000511309
0.000511309
0.000511309
0.000511309
0.000511309
0.000511309
0.000511309
0.000511309
0.000511309
0.000511309
0.000511309
0.000511309
0.000511309
0.000511309
0.000511309
0.000511309
0.000511309
0.000511309
0.000511309
0.000511309
0.000511309
0.000511309
0.000511309
0.000511309
0.000511309
0.000511309
0.000511309
0.000511309
0.000511309
0.000511309
0.000511309
0.000511309
0.000511309
0.000511309
0.000511309
0.000511309
0.000511309
0.000511309
0.000511309
0.000511309
0.000511309
0.000511309
0.000511309
0.000511309
0.000511309
0.000511309
0.000511309
0.000511309
0.000511309
0.000511309
0.000511309
0.000511309
0.000511309
0.000511309
0.000511309
0.000511309
0.000511309
0.000511309
0.000511309
0.000511309
0.000511309
0.000511309
0.000511309
0.000511309
0.000511309
0.000511309
0.000511309
0.000511309
0.000511309
0.000511309
0.000511309
0.000511309
0.000511309
0.000511309
0.000511309
0.000511309
0.000511309
0.000511309
0.000511309
0.000511309
0.000511309
0.000511309
0.000511309
0.000511309
0.000511309
0.000511309
0.000511309
0.000511309
0.000511309
0.000511309
0.000511309
0.000511309
0.000511309
0.000511309
0.000511309
0.000511309
0.000511309
0.000511309
0.000511309
0.000511309
0.000511309
0.000511309
0.000511309
0.000511309
0.000511309
0.000511309
0.000511309
0.000511309
0.000511309
0.000511309
0.000511309
0.000511309
0.000511309
0.000511309
0.000511309
0.000511309
0.000511309
0.000511309
0.000511309
0.000511309
0.000511309
0.000511309
0.000511309
0.000511309
0.000511309
0.000511309
0.000511309
0.000511309
0.000511309
0.000511309
0.000511309
0.000511309
0.000511309
0.000511309
0.000511309
0.000511309
0.000511309
0.000511309
0.000511309
0.000511309
0.000511309
0.000511309
0.000511309
0.000511309
0.000511309
0.000511309
0.000511309
0.000511309
0.000511309
0.000511309
0.000511309
0.000511309
0.000511309
0.000511309
0.000511309
0.000511309
0.000511309
0.000511309
0.000511309
0.000511309
0.000511309
0.000511309
0.000511309
0.000511309
0.000511309
0.000511309
0.000511309
0.000511309
0.000511309
0.000511309
0.000511309
0.000511309
0.000511309
0.000511309
0.000511309
0.000511309
0.000511309
0.000511309
0.00051131
0.000511309
0.000511309
0.000511309
0.000511309
0.000511309
0.000511309
0.000511309
0.000511309
0.000511309
0.000511309
0.000511309
0.000511309
0.000511309
0.000511309
0.000511309
0.000511309
0.000511309
0.000511309
0.000511309
0.000511309
0.000511309
0.000511309
0.000511309
0.000511309
0.000511309
0.000511309
0.000511309
0.000511309
0.000511309
0.000511309
0.000511309
0.000511309
0.000511309
0.000511309
0.000511309
0.000511309
0.000511309
0.000511309
0.000511309
0.000511309
0.000511309
0.000511309
0.000511309
0.000511309
0.000511309
0.000511309
0.00051131
0.00051131
0.00051131
0.000511311
0.000511309
0.000511309
0.000511309
0.000511309
0.000511309
0.000511309
0.000511309
0.000511309
0.000511309
0.000511309
0.000511309
0.000511309
0.000511309
0.000511309
0.000511309
0.000511309
0.000511309
0.000511309
0.000511309
0.000511309
0.000511309
0.000511309
0.000511309
0.000511309
0.000511309
0.000511309
0.000511309
0.000511309
0.000511309
0.000511309
0.000511309
0.000511309
0.000511309
0.000511309
0.000511309
0.000511309
0.000511309
0.000511309
0.000511309
0.000511309
0.000511309
0.000511309
0.000511309
0.00051131
0.00051131
0.00051131
0.000511311
0.000511312
0.000511313
0.000511317
0.000511309
0.000511309
0.000511309
0.000511309
0.000511309
0.000511309
0.000511309
0.000511309
0.000511309
0.000511309
0.000511309
0.000511309
0.000511309
0.000511309
0.000511309
0.000511309
0.000511309
0.000511309
0.000511309
0.000511309
0.000511309
0.000511309
0.000511309
0.000511309
0.000511309
0.000511309
0.000511309
0.000511309
0.000511309
0.000511309
0.000511309
0.000511309
0.000511309
0.000511309
0.000511309
0.000511309
0.000511309
0.000511309
0.000511309
0.000511309
0.00051131
0.00051131
0.00051131
0.00051131
0.000511311
0.000511313
0.000511316
0.000511322
0.000511332
0.000511353
0.000511309
0.000511309
0.000511309
0.000511309
0.000511309
0.000511309
0.000511309
0.000511309
0.000511309
0.000511309
0.000511309
0.000511309
0.000511309
0.000511309
0.000511309
0.000511309
0.000511309
0.000511309
0.000511309
0.000511309
0.000511309
0.000511309
0.000511309
0.000511309
0.000511309
0.000511309
0.000511309
0.000511309
0.000511309
0.000511309
0.000511309
0.000511309
0.000511309
0.000511309
0.000511309
0.000511309
0.000511309
0.00051131
0.00051131
0.00051131
0.00051131
0.000511311
0.000511313
0.000511316
0.000511321
0.00051133
0.000511346
0.000511376
0.000511432
0.000511546
0.000511309
0.000511309
0.000511309
0.000511309
0.000511309
0.000511309
0.000511309
0.000511309
0.000511309
0.000511309
0.000511309
0.000511309
0.000511309
0.000511309
0.000511309
0.000511309
0.000511309
0.000511309
0.000511309
0.000511309
0.000511309
0.000511309
0.000511309
0.000511309
0.000511309
0.000511309
0.000511309
0.000511309
0.000511309
0.000511309
0.000511309
0.000511309
0.000511309
0.000511309
0.00051131
0.00051131
0.00051131
0.00051131
0.000511311
0.000511313
0.000511315
0.00051132
0.000511328
0.000511343
0.00051137
0.000511419
0.000511507
0.000511666
0.000511955
0.000512527
0.000511309
0.000511309
0.000511309
0.000511309
0.000511309
0.000511309
0.000511309
0.000511309
0.000511309
0.000511309
0.000511309
0.000511309
0.000511309
0.000511309
0.000511309
0.000511309
0.000511309
0.000511309
0.000511309
0.000511309
0.000511309
0.000511309
0.000511309
0.000511309
0.000511309
0.000511309
0.000511309
0.000511309
0.000511309
0.000511309
0.000511309
0.00051131
0.00051131
0.00051131
0.00051131
0.000511311
0.000511313
0.000511315
0.00051132
0.000511328
0.000511342
0.000511366
0.000511411
0.000511489
0.00051163
0.00051188
0.000512327
0.000513118
0.000514512
0.000517097
0.000511309
0.000511309
0.000511309
0.000511309
0.000511309
0.000511309
0.000511309
0.000511309
0.000511309
0.000511309
0.000511309
0.000511309
0.000511309
0.000511309
0.000511309
0.000511309
0.000511309
0.000511309
0.000511309
0.000511309
0.000511309
0.000511309
0.000511309
0.000511309
0.000511309
0.000511309
0.000511309
0.000511309
0.00051131
0.00051131
0.00051131
0.000511311
0.000511311
0.000511313
0.000511315
0.00051132
0.000511327
0.000511341
0.000511364
0.000511406
0.000511478
0.000511606
0.000511832
0.000512228
0.000512922
0.000514127
0.000516186
0.000519609
0.000525086
0.000533996
0.000511309
0.000511309
0.000511309
0.000511309
0.000511309
0.000511309
0.000511309
0.000511309
0.000511309
0.000511309
0.000511309
0.000511309
0.000511309
0.000511309
0.000511309
0.000511309
0.000511309
0.000511309
0.000511309
0.000511309
0.000511309
0.000511309
0.000511309
0.000511309
0.00051131
0.00051131
0.00051131
0.00051131
0.000511311
0.000511312
0.000511313
0.000511316
0.00051132
0.000511328
0.000511341
0.000511364
0.000511404
0.000511473
0.000511593
0.000511802
0.000512164
0.000512791
0.000513867
0.000515688
0.000518695
0.000523492
0.000530828
0.00054158
0.000556509
0.000577726
0.000511309
0.000511309
0.000511309
0.000511309
0.000511309
0.000511309
0.000511309
0.000511309
0.000511309
0.000511309
0.000511309
0.000511309
0.000511309
0.000511309
0.000511309
0.000511309
0.000511309
0.000511309
0.000511309
0.000511309
0.000511309
0.00051131
0.00051131
0.00051131
0.00051131
0.000511311
0.000511312
0.000511313
0.000511316
0.000511321
0.000511329
0.000511342
0.000511365
0.000511405
0.000511472
0.000511588
0.000511787
0.000512128
0.000512711
0.000513699
0.000515355
0.000518066
0.000522367
0.000528925
0.000538497
0.000551879
0.000569824
0.000593106
0.000622319
0.000661347
0.000511309
0.000511309
0.000511309
0.000511309
0.000511309
0.000511309
0.000511309
0.000511309
0.000511309
0.000511309
0.000511309
0.000511309
0.000511309
0.000511309
0.000511309
0.000511309
0.000511309
0.000511309
0.00051131
0.00051131
0.00051131
0.00051131
0.000511311
0.000511312
0.000511314
0.000511317
0.000511322
0.00051133
0.000511344
0.000511368
0.000511408
0.000511476
0.000511592
0.000511786
0.000512116
0.000512673
0.000513606
0.00051515
0.000517655
0.0005216
0.000527583
0.000536284
0.000548416
0.000564685
0.000585724
0.000612252
0.000645295
0.0006866
0.000736173
0.000802163
0.000511309
0.000511309
0.000511309
0.000511309
0.000511309
0.000511309
0.000511309
0.000511309
0.000511309
0.000511309
0.000511309
0.000511309
0.000511309
0.000511309
0.00051131
0.00051131
0.00051131
0.00051131
0.000511311
0.000511311
0.000511313
0.000511315
0.000511318
0.000511323
0.000511333
0.000511348
0.000511373
0.000511415
0.000511486
0.000511603
0.000511799
0.000512127
0.000512673
0.000513578
0.000515056
0.000517428
0.000521126
0.000526695
0.000534746
0.000545922
0.000560862
0.000580168
0.000604424
0.000634439
0.000671547
0.000717005
0.000772072
0.00084078
0.000928518
0.00105505
0.000511309
0.000511309
0.000511309
0.000511309
0.000511309
0.000511309
0.000511309
0.000511309
0.000511309
0.000511309
0.000511309
0.00051131
0.00051131
0.00051131
0.00051131
0.000511311
0.000511312
0.000511313
0.000511316
0.000511319
0.000511326
0.000511336
0.000511353
0.00051138
0.000511426
0.0005115
0.000511623
0.000511826
0.000512161
0.000512712
0.000513611
0.000515063
0.000517362
0.000520907
0.000526194
0.000533779
0.000544238
0.000558144
0.00057606
0.000598498
0.000626102
0.000659902
0.000701304
0.000751397
0.00081219
0.000888891
0.000989478
0.00112245
0.00128789
0.00149374
0.000511309
0.000511309
0.000511309
0.000511309
0.000511309
0.000511309
0.000511309
0.00051131
0.00051131
0.00051131
0.00051131
0.000511311
0.000511311
0.000511312
0.000511314
0.000511317
0.000511321
0.000511329
0.000511341
0.00051136
0.00051139
0.00051144
0.000511522
0.000511654
0.00051187
0.000512221
0.00051279
0.000513708
0.000515168
0.000517449
0.000520921
0.00052604
0.000533312
0.000543255
0.000556381
0.000573194
0.000594182
0.000619866
0.000651043
0.000689031
0.000734998
0.000790252
0.000857985
0.000944822
0.00105872
0.00120544
0.001384
0.00158534
0.00178863
0.00198349
0.000511309
0.000511309
0.000511309
0.00051131
0.00051131
0.00051131
0.00051131
0.00051131
0.000511311
0.000511312
0.000511313
0.000511315
0.000511319
0.000511324
0.000511333
0.000511347
0.000511369
0.000511404
0.000511461
0.000511552
0.000511699
0.000511934
0.000512311
0.000512915
0.000513874
0.000515379
0.000517693
0.000521166
0.000526216
0.000533308
0.000542907
0.000555464
0.000571427
0.000591257
0.000615399
0.000644503
0.000679632
0.000722128
0.000773019
0.000834264
0.00091068
0.00100958
0.00113777
0.001298
0.0014852
0.0016863
0.00188228
0.00205591
0.00219381
0.0022954
0.00051131
0.00051131
0.00051131
0.00051131
0.000511311
0.000511311
0.000511313
0.000511314
0.000511317
0.000511322
0.000511328
0.000511339
0.000511356
0.000511382
0.000511424
0.00051149
0.000511595
0.00051176
0.000512023
0.00051244
0.000513096
0.000514123
0.000515708
0.000518108
0.000521651
0.000526725
0.000533753
0.000543153
0.000555321
0.000570653
0.000589568
0.000612491
0.000639954
0.0006728
0.00071237
0.000759688
0.000816074
0.000884738
0.000971842
0.0010844
0.00122707
0.00139892
0.00159097
0.00178789
0.00197131
0.00212705
0.00224656
0.00233001
0.00238084
0.00240787
0.00051131
0.000511311
0.000511311
0.000511312
0.000511314
0.000511316
0.00051132
0.000511325
0.000511334
0.000511347
0.000511368
0.000511401
0.000511451
0.00051153
0.000511653
0.000511846
0.000512147
0.000512617
0.000513348
0.000514472
0.000516179
0.000518718
0.0005224
0.000527584
0.000534654
0.000543982
0.000555917
0.000570807
0.00058903
0.000610998
0.000637155
0.000668207
0.000705287
0.000749602
0.000802165
0.000865069
0.000943125
0.00104291
0.00117008
0.00132632
0.00150668
0.00169918
0.00188733
0.00205525
0.00219186
0.00229336
0.00236091
0.00239997
0.00241929
0.0024239
0.0024269
0.000511314
0.000511316
0.000511319
0.000511324
0.000511331
0.000511342
0.00051136
0.000511386
0.000511427
0.000511489
0.000511586
0.000511734
0.000511964
0.000512317
0.000512861
0.000513693
0.000514951
0.000516825
0.000519561
0.000523451
0.000528829
0.000536037
0.000545409
0.000557249
0.000571862
0.000589587
0.000610814
0.000635942
0.000665566
0.000700635
0.00074244
0.000791887
0.000850452
0.000921623
0.00101122
0.00112518
0.00126684
0.00143435
0.00161904
0.00180712
0.00198256
0.00213274
0.0022498
0.00233408
0.00238652
0.00241714
0.00242838
0.00243119
0.00243438
0.00243266
0.0024242
0.000511323
0.00051133
0.00051134
0.000511355
0.000511377
0.000511412
0.000511464
0.000511543
0.000511664
0.000511848
0.000512128
0.000512553
0.000513196
0.000514162
0.000515597
0.000517692
0.000520688
0.00052486
0.000530512
0.000537952
0.000547472
0.000559338
0.000573812
0.000591204
0.000611872
0.000636206
0.000664712
0.000698203
0.000737908
0.000784798
0.000839977
0.000905913
0.00098752
0.00109057
0.00121931
0.00137401
0.00154914
0.00173337
0.00191214
0.00207156
0.0022025
0.00230096
0.00236854
0.00240859
0.00243056
0.00243591
0.00243937
0.00244067
0.00243707
0.00242718
0.00241181
0.00239174
0.000511373
0.000511404
0.00051145
0.000511518
0.000511622
0.000511776
0.000512009
0.000512358
0.000512879
0.000513655
0.000514799
0.000516464
0.000518843
0.000522168
0.000526698
0.000532706
0.000540464
0.000550224
0.000562216
0.000576669
0.000593866
0.000614146
0.000637889
0.000665538
0.000697812
0.000735802
0.000780581
0.000833044
0.000894995
0.000970398
0.00106463
0.00118231
0.00132513
0.00148995
0.00166793
0.00184645
0.0020117
0.00215305
0.00226417
0.00234497
0.00239714
0.00242733
0.00244067
0.00244392
0.00244757
0.00244647
0.00244032
0.00242873
0.00241255
0.00239288
0.0023712
0.00234736
0.000511599
0.000511736
0.000511939
0.000512239
0.000512683
0.000513336
0.000514289
0.000515666
0.000517625
0.00052036
0.000524092
0.000529058
0.000535498
0.000543649
0.000553727
0.000565934
0.00058047
0.0005976
0.000617646
0.000640981
0.000668001
0.000699348
0.000735991
0.000779055
0.000829327
0.000888208
0.000958824
0.00104602
0.00115449
0.00128675
0.00144138
0.0016119
0.00178749
0.0019553
0.00210374
0.00222563
0.00231778
0.00238184
0.00242083
0.00244272
0.00244905
0.00245203
0.00245439
0.0024516
0.0024434
0.00243003
0.0024135
0.0023934
0.00237178
0.00234942
0.00232705
0.00230328
0.000512574
0.000513149
0.00051398
0.000515168
0.000516846
0.000519176
0.000522347
0.000526565
0.000532042
0.000538985
0.000547598
0.000558066
0.000570566
0.000585282
0.000602459
0.000622408
0.000645492
0.000672077
0.00070274
0.000738358
0.000780061
0.000828593
0.000885086
0.000952026
0.00103371
0.00113466
0.00125784
0.00140303
0.00156559
0.00173648
0.00190416
0.0020571
0.0021869
0.00228888
0.00236328
0.00241216
0.00244058
0.00245371
0.00245731
0.00246097
0.00246028
0.0024552
0.00244525
0.00243105
0.00241374
0.00239368
0.0023727
0.00235097
0.00232894
0.00230671
0.00228483
0.00226175
0.000516389
0.00051845
0.000521238
0.000524931
0.000529715
0.000535774
0.000543285
0.000552422
0.000563344
0.000576208
0.000591184
0.000608506
0.000628476
0.000651444
0.000677766
0.000707968
0.000742855
0.000783519
0.000830708
0.000885364
0.000949502
0.0010269
0.00112183
0.00123742
0.00137421
0.00152892
0.00169422
0.00185982
0.0020147
0.00214979
0.00225984
0.00234305
0.00240092
0.00243658
0.0024566
0.00246283
0.00246581
0.00246816
0.00246568
0.00245842
0.00244679
0.002432
0.002414
0.00239418
0.00237361
0.00235245
0.00233108
0.0023096
0.00228811
0.00226648
0.00224516
0.00222272
0.000528265
0.000533692
0.000540398
0.000548531
0.000558241
0.000569667
0.00058295
0.000598251
0.000615804
0.000635906
0.000658898
0.00068512
0.000715066
0.000749494
0.000789424
0.000835613
0.000888879
0.000950926
0.00102507
0.00111527
0.00122465
0.00135419
0.00150161
0.00166091
0.00182307
0.00197787
0.00211627
0.00223212
0.00232248
0.00238808
0.00243134
0.00245659
0.0024679
0.00247153
0.00247501
0.00247429
0.00246963
0.00246068
0.00244797
0.0024325
0.00241421
0.00239486
0.00237474
0.00235415
0.00233339
0.00231253
0.00229163
0.00227069
0.00224974
0.00222863
0.0022078
0.00218589
0.000554849
0.000565169
0.000577139
0.00059089
0.000606584
0.000624457
0.000644807
0.000667959
0.000694236
0.000724112
0.000758313
0.0007978
0.000843308
0.000895571
0.000956101
0.00102784
0.00111443
0.00121888
0.00134234
0.00148321
0.00163656
0.00179451
0.00194775
0.00208738
0.0022069
0.00230296
0.00237509
0.00242479
0.00245545
0.00247211
0.00247754
0.00248051
0.00248238
0.0024798
0.00247294
0.00246249
0.00244913
0.00243276
0.00241454
0.00239558
0.00237592
0.00235595
0.00233582
0.00231559
0.00229529
0.00227493
0.00225452
0.00223404
0.00221355
0.00219289
0.00217248
0.00215107
0.000616322
0.000634605
0.000655309
0.000678742
0.000705213
0.000735187
0.000769377
0.000808694
0.000853828
0.000905455
0.000964962
0.00103502
0.00111897
0.0012196
0.0013381
0.00147329
0.001621
0.00177437
0.00192491
0.00206418
0.00218572
0.0022857
0.00236259
0.00241774
0.00245394
0.00247465
0.00248324
0.00248672
0.00248983
0.0024887
0.00248385
0.00247545
0.0024639
0.00244981
0.00243304
0.00241519
0.00239655
0.00237735
0.00235794
0.00233839
0.00231875
0.00229904
0.00227926
0.0022594
0.00223948
0.00221949
0.00219942
0.00217932
0.00215908
0.00213908
0.00211815
0.000691362
0.000718165
0.000748414
0.000782817
0.000822239
0.000867293
0.00091862
0.000977544
0.00104655
0.0011287
0.00122651
0.00134109
0.00147145
0.001614
0.00176264
0.00190973
0.00204742
0.00216936
0.00227149
0.0023519
0.00241151
0.00245206
0.00247637
0.0024888
0.00249334
0.0024961
0.00249701
0.00249406
0.00248732
0.0024776
0.00246531
0.00245018
0.00243339
0.00241588
0.00239762
0.00237899
0.00236015
0.00234117
0.00232209
0.00230293
0.00228369
0.00226438
0.00224498
0.00222551
0.00220596
0.00218634
0.00216665
0.00214694
0.0021271
0.00210751
0.00208707
0.000798843
0.000838629
0.000883871
0.000935205
0.000993955
0.00106248
0.00114358
0.00123945
0.00135102
0.00147737
0.00161528