/*--------------------------------*- C++ -*----------------------------------*\
| =========                 |                                                 |
| \\      /  F ield         | OpenFOAM: The Open Source CFD Toolbox           |
|  \\    /   O peration     | Version:  v1706                                 |
|   \\  /    A nd           | Web:      www.OpenFOAM.com                      |
|    \\/     M anipulation  |                                                 |
\*---------------------------------------------------------------------------*/
FoamFile
{
    version     2.0;
    format      ascii;
    class       volScalarField;
    location    "9e-06";
    object      Tov;
}
// * * * * * * * * * * * * * * * * * * * * * * * * * * * * * * * * * * * * * //

dimensions      [0 0 0 1 0 0 0];


internalField   nonuniform List<scalar> 
30038
(
144.4
144.4
144.4
144.4
144.4
144.4
144.4
144.4
144.4
144.4
144.4
144.4
144.4
144.4
144.4
144.4
144.4
144.4
144.4
144.4
144.4
144.4
144.4
144.4
144.4
144.4
144.4
144.4
144.4
144.4
144.4
144.4
144.4
144.4
144.4
144.4
144.4
144.4
144.4
144.4
144.4
144.4
144.4
144.4
144.4
144.4
144.4
144.4
144.4
144.4
144.4
144.4
144.4
144.4
144.4
144.4
144.4
144.4
144.4
144.4
144.4
144.4
144.4
144.4
144.4
144.4
144.4
144.4
144.4
144.4
144.4
144.4
144.4
144.4
144.4
144.4
144.4
144.4
144.4
144.4
144.4
144.4
144.4
144.4
144.4
144.4
144.4
144.4
144.4
144.4
144.4
144.4
144.4
144.4
144.4
144.4
144.4
144.4
144.4
144.4
144.4
144.4
144.4
144.4
144.4
144.4
144.4
144.4
144.4
144.4
144.4
144.4
144.4
144.4
144.4
144.4
144.4
144.4
144.4
144.4
144.4
144.4
144.4
144.4
144.4
144.4
144.4
144.4
144.4
144.4
144.4
144.4
144.4
144.4
144.4
144.4
144.4
144.4
144.4
144.4
144.4
144.4
144.4
144.4
144.4
144.4
144.4
144.4
144.4
144.4
144.4
144.4
144.4
144.4
144.4
144.4
144.4
144.4
144.4
144.4
144.4
144.4
144.4
144.4
144.4
144.4
144.4
144.4
144.4
144.4
144.4
144.4
144.4
144.4
144.4
144.4
144.4
144.4
144.4
144.4
144.4
144.4
144.4
144.4
144.4
144.4
144.4
144.4
144.4
144.4
144.4
144.4
144.4
144.4
144.4
144.4
144.4
144.4
144.4
144.4
144.4
144.4
144.4
144.4
144.4
144.4
144.4
144.4
144.4
144.4
144.4
144.4
144.4
144.4
144.4
144.4
144.4
144.4
144.4
144.4
144.4
144.4
144.4
144.4
144.4
144.4
144.4
144.4
144.4
144.4
144.4
144.4
144.4
144.4
144.4
144.4
144.4
144.4
144.4
144.4
144.4
144.4
144.4
144.4
144.4
144.4
144.4
144.4
144.4
144.4
144.4
144.4
144.4
144.4
144.4
144.4
144.4
144.4
144.4
144.4
144.4
144.4
144.4
144.4
144.4
144.4
144.4
144.4
144.4
144.4
144.4
144.4
144.4
144.4
144.4
144.4
144.4
144.4
144.4
144.4
144.4
144.4
144.4
144.4
144.4
144.4
144.4
144.4
144.4
144.4
144.4
144.4
144.4
144.4
144.4
144.4
144.4
144.4
144.4
144.4
144.4
144.4
144.4
144.4
144.4
144.4
144.4
144.4
144.4
144.4
144.4
144.4
144.4
144.4
144.4
144.4
144.4
144.4
144.4
144.4
144.4
144.4
144.4
144.4
144.4
144.4
144.4
144.4
144.4
144.4
144.4
144.4
144.4
144.4
144.4
144.4
144.4
144.4
144.4
144.4
144.4
144.4
144.4
144.4
144.4
144.4
144.4
144.4
144.4
144.4
144.4
144.4
144.4
144.4
144.4
144.4
144.4
144.4
144.4
144.4
144.4
144.4
144.4
144.4
144.4
144.4
144.4
144.4
144.4
144.4
144.4
144.4
144.4
144.4
144.4
144.4
144.4
144.4
144.4
144.4
144.4
144.4
144.4
144.4
144.4
144.4
144.4
144.4
144.4
144.4
144.4
144.4
144.4
144.4
144.4
144.4
144.4
144.4
144.4
144.4
144.4
144.4
144.4
144.4
144.4
144.4
144.4
144.4
144.4
144.4
144.4
144.4
144.4
144.4
144.4
144.4
144.4
144.4
144.4
144.4
144.4
144.4
144.4
144.4
144.4
144.4
144.4
144.4
144.4
144.4
144.4
144.4
144.4
144.4
144.4
144.4
144.4
144.4
144.4
144.4
144.4
144.4
144.4
144.4
144.4
144.4
144.4
144.4
144.4
144.4
144.4
144.4
144.4
144.4
144.4
144.4
144.4
144.4
144.4
144.4
144.4
144.4
144.4
144.4
144.4
144.4
144.4
144.4
144.4
144.4
144.4
144.4
144.4
144.4
144.4
144.4
144.4
144.4
144.4
144.4
144.4
144.4
144.4
144.4
144.4
144.4
144.4
144.4
144.4
144.4
144.4
144.4
144.4
144.4
144.4
144.4
144.4
144.4
144.4
144.4
144.4
144.4
144.4
144.4
144.4
144.4
144.4
144.4
144.4
144.4
144.4
144.4
144.4
144.4
144.4
144.4
144.4
144.4
144.4
144.4
144.4
144.4
144.4
144.4
144.4
144.4
144.4
144.4
144.4
144.4
144.4
144.4
144.4
144.4
144.4
144.4
144.4
144.4
144.4
144.4
144.4
144.4
144.4
144.4
144.4
144.4
144.4
144.4
144.4
144.4
144.4
144.4
144.4
144.4
144.4
144.4
144.4
144.4
144.4
144.4
144.4
144.4
144.4
144.4
144.4
144.4
144.4
144.4
144.4
144.4
144.4
144.4
144.4
144.4
144.4
144.4
144.4
144.4
144.4
144.4
144.4
144.4
144.4
144.4
144.4
144.4
144.4
144.4
144.4
144.4
144.4
144.4
144.4
144.4
144.4
144.4
144.4
144.4
144.4
144.4
144.4
144.4
144.4
144.4
144.4
144.4
144.4
144.4
144.4
144.4
144.4
144.4
144.4
144.4
144.4
144.4
144.4
144.4
144.4
144.4
144.4
144.4
144.4
144.4
144.4
144.4
144.4
144.4
144.4
144.4
144.4
144.4
144.4
144.4
144.4
144.4
144.4
144.4
144.4
144.4
144.4
144.4
144.4
144.4
144.4
144.4
144.4
144.4
144.4
144.4
144.4
144.4
144.4
144.4
144.4
144.4
144.4
144.4
144.4
144.4
144.4
144.4
144.4
144.4
144.4
144.4
144.4
144.4
144.4
144.4
144.4
144.4
144.4
144.4
144.4
144.4
144.4
144.4
144.4
144.4
144.4
144.4
144.4
144.4
144.4
144.4
144.4
144.4
144.4
144.4
144.4
144.4
144.4
144.4
144.4
144.4
144.4
144.4
144.4
144.4
144.4
144.4
144.4
144.4
144.4
144.4
144.4
144.4
144.4
144.4
144.4
144.4
144.4
144.4
144.4
144.4
144.4
144.4
144.4
144.4
144.4
144.4
144.4
144.4
144.4
144.4
144.4
144.4
144.4
144.4
144.4
144.4
144.4
144.4
144.4
144.4
144.4
144.4
144.4
144.4
144.4
144.4
144.4
144.4
144.4
144.4
144.4
144.4
144.4
144.4
144.4
144.4
144.4
144.4
144.4
144.4
144.4
144.4
144.4
144.4
144.4
144.4
144.4
144.4
144.4
144.4
144.4
144.4
144.4
144.4
144.4
144.4
144.4
144.4
144.4
144.4
144.4
144.4
144.4
144.4
144.4
144.4
144.4
144.4
144.4
144.4
144.4
144.4
144.4
144.4
144.4
144.4
144.4
144.4
144.4
144.4
144.4
144.4
144.4
144.4
144.4
144.4
144.4
144.4
144.4
144.4
144.4
144.4
144.4
144.4
144.4
144.4
144.4
144.4
144.4
144.4
144.4
144.4
144.4
144.4
144.4
144.4
144.4
144.4
144.4
144.4
144.4
144.4
144.4
144.4
144.4
144.4
144.4
144.4
144.4
144.4
144.4
144.4
144.4
144.4
144.4
144.4
144.4
144.4
144.4
144.4
144.4
144.4
144.4
144.4
144.4
144.4
144.4
144.4
144.4
144.4
144.4
144.4
144.4
144.4
144.4
144.4
144.4
144.4
144.4
144.4
144.4
144.4
144.4
144.4
144.4
144.4
144.4
144.4
144.4
144.4
144.4
144.4
144.4
144.4
144.4
144.4
144.4
144.4
144.4
144.4
144.4
144.4
144.4
144.4
144.4
144.4
144.4
144.4
144.4
144.4
144.4
144.4
144.4
144.4
144.4
144.4
144.4
144.4
144.4
144.4
144.4
144.4
144.4
144.4
144.4
144.4
144.4
144.4
144.4
144.4
144.4
144.4
144.4
144.4
144.4
144.4
144.4
144.4
144.4
144.4
144.4
144.4
144.4
144.4
144.4
144.4
144.4
144.4
144.4
144.4
144.4
144.4
144.4
144.4
144.4
144.4
144.4
144.4
144.4
144.4
144.4
144.4
144.4
144.4
144.4
144.4
144.4
144.4
144.4
144.4
144.4
144.4
144.4
144.4
144.4
144.4
144.4
144.4
144.4
144.4
144.4
144.4
144.4
144.4
144.4
144.4
144.4
144.4
144.4
144.4
144.4
144.4
144.4
144.4
144.4
144.4
144.4
144.4
144.4
144.4
144.4
144.4
144.4
144.4
144.4
144.4
144.4
144.4
144.4
144.4
144.4
144.4
144.4
144.4
144.4
144.4
144.4
144.4
144.4
144.4
144.4
144.4
144.4
144.4
144.4
144.4
144.4
144.4
144.4
144.4
144.4
144.4
144.4
144.4
144.4
144.4
144.4
144.4
144.4
144.4
144.4
144.4
144.4
144.4
144.4
144.4
144.4
144.4
144.4
144.4
144.4
144.4
144.4
144.4
144.4
144.4
144.4
144.4
144.4
144.4
144.4
144.4
144.4
144.4
144.4
144.4
144.4
144.4
144.4
144.4
144.4
144.4
144.4
144.4
144.4
144.4
144.4
144.4
144.4
144.4
144.4
144.4
144.4
144.4
144.4
144.4
144.4
144.4
144.4
144.4
144.4
144.4
144.4
144.4
144.4
144.4
144.4
144.4
144.4
144.4
144.4
144.4
144.4
144.4
144.4
144.4
144.4
144.4
144.4
144.4
144.4
144.4
144.4
144.4
144.4
144.4
144.4
144.4
144.4
144.4
144.4
144.4
144.4
144.4
144.4
144.4
144.4
144.4
144.4
144.4
144.4
144.4
144.4
144.4
144.4
144.4
144.4
144.4
144.4
144.4
144.4
144.4
144.4
144.4
144.4
144.4
144.4
144.4
144.4
144.4
144.4
144.4
144.4
144.4
144.401
144.401
144.4
144.4
144.4
144.4
144.4
144.4
144.4
144.4
144.4
144.4
144.4
144.4
144.4
144.4
144.4
144.4
144.4
144.4
144.4
144.4
144.4
144.4
144.4
144.4
144.4
144.4
144.4
144.4
144.4
144.4
144.4
144.4
144.4
144.4
144.4
144.4
144.4
144.4
144.4
144.4
144.4
144.4
144.4
144.4
144.4
144.401
144.401
144.402
144.404
144.408
144.4
144.4
144.4
144.4
144.4
144.4
144.4
144.4
144.4
144.4
144.4
144.4
144.4
144.4
144.4
144.4
144.4
144.4
144.4
144.4
144.4
144.4
144.4
144.4
144.4
144.4
144.4
144.4
144.4
144.4
144.4
144.4
144.4
144.4
144.4
144.4
144.4
144.4
144.4
144.4
144.4
144.4
144.401
144.401
144.402
144.403
144.406
144.412
144.423
144.445
144.4
144.4
144.4
144.4
144.4
144.4
144.4
144.4
144.4
144.4
144.4
144.4
144.4
144.4
144.4
144.4
144.4
144.4
144.4
144.4
144.4
144.4
144.4
144.4
144.4
144.4
144.4
144.4
144.4
144.4
144.4
144.4
144.4
144.4
144.4
144.4
144.4
144.4
144.4
144.401
144.401
144.402
144.403
144.406
144.411
144.421
144.438
144.471
144.533
144.66
144.4
144.4
144.4
144.4
144.4
144.4
144.4
144.4
144.4
144.4
144.4
144.4
144.4
144.4
144.4
144.4
144.4
144.4
144.4
144.4
144.4
144.4
144.4
144.4
144.4
144.4
144.4
144.4
144.4
144.4
144.4
144.4
144.4
144.4
144.4
144.4
144.401
144.401
144.402
144.403
144.406
144.411
144.42
144.436
144.466
144.521
144.622
144.81
145.165
145.872
144.4
144.4
144.4
144.4
144.4
144.4
144.4
144.4
144.4
144.4
144.4
144.4
144.4
144.4
144.4
144.4
144.4
144.4
144.4
144.4
144.4
144.4
144.4
144.4
144.4
144.4
144.4
144.4
144.4
144.4
144.4
144.4
144.4
144.401
144.401
144.402
144.403
144.406
144.411
144.42
144.435
144.463
144.514
144.607
144.776
145.086
145.655
146.703
148.653
152.399
144.4
144.4
144.4
144.4
144.4
144.4
144.4
144.4
144.4
144.4
144.4
144.4
144.4
144.4
144.4
144.4
144.4
144.4
144.4
144.4
144.4
144.4
144.4
144.4
144.4
144.4
144.4
144.4
144.4
144.4
144.401
144.401
144.402
144.404
144.406
144.411
144.42
144.435
144.463
144.512
144.6
144.758
145.043
145.559
146.493
148.186
151.245
156.733
166.474
183.599
144.4
144.4
144.4
144.4
144.4
144.4
144.4
144.4
144.4
144.4
144.4
144.4
144.4
144.4
144.4
144.4
144.4
144.4
144.4
144.4
144.4
144.4
144.4
144.4
144.4
144.4
144.4
144.401
144.401
144.402
144.404
144.407
144.412
144.421
144.437
144.464
144.513
144.599
144.751
145.022
145.505
146.369
147.912
150.663
155.527
164.007
178.429
202.053
238.905
293.136
144.4
144.4
144.4
144.4
144.4
144.4
144.4
144.4
144.4
144.4
144.4
144.4
144.4
144.4
144.4
144.4
144.4
144.4
144.4
144.4
144.4
144.4
144.4
144.401
144.401
144.402
144.403
144.405
144.408
144.413
144.423
144.439
144.468
144.517
144.603
144.755
145.02
145.487
146.31
147.761
150.313
154.773
162.465
175.436
196.556
229.335
277.301
343.078
427.69
530.059
144.4
144.4
144.4
144.4
144.4
144.4
144.4
144.4
144.4
144.4
144.4
144.4
144.4
144.4
144.4
144.4
144.4
144.4
144.4
144.4
144.401
144.401
144.402
144.403
144.405
144.409
144.415
144.425
144.443
144.473
144.525
144.615
144.769
145.037
145.501
146.309
147.714
150.153
154.361
161.539
173.529
192.929
222.954
266.923
327.426
405.539
500.539
610.194
731.502
860.832
144.4
144.4
144.4
144.4
144.4
144.4
144.4
144.4
144.4
144.4
144.4
144.4
144.4
144.4
144.4
144.4
144.401
144.401
144.401
144.402
144.404
144.406
144.411
144.417
144.429
144.449
144.482
144.538
144.633
144.796
145.073
145.549
146.364
147.765
150.163
154.248
161.131
172.505
190.75
218.833
259.878
316.436
389.758
479.431
583.541
699.192
823.109
952.036
1082.6
1211.88
144.4
144.4
144.4
144.4
144.4
144.4
144.4
144.4
144.4
144.4
144.4
144.4
144.4
144.401
144.401
144.402
144.403
144.405
144.408
144.413
144.421
144.434
144.457
144.494
144.556
144.661
144.836
145.133
145.633
146.481
147.916
150.342
154.418
161.197
172.265
189.832
216.651
255.643
309.262
378.832
464.184
563.744
674.947
794.751
920.052
1047.67
1174.45
1297.7
1414.64
1522.55
144.4
144.4
144.4
144.4
144.4
144.4
144.4
144.4
144.4
144.401
144.401
144.401
144.402
144.404
144.406
144.41
144.416
144.426
144.442
144.468
144.511
144.582
144.7
144.895
145.22
145.763
146.668
148.181
150.702
154.882
161.736
172.778
190.089
216.237
253.944
305.521
372.274
454.174
549.901
657.185
773.267
895.268
1020.34
1145.5
1268
1385.3
1494.55
1592.32
1675.2
1742.37
144.4
144.4
144.4
144.4
144.4
144.401
144.401
144.401
144.402
144.403
144.405
144.408
144.413
144.42
144.432
144.452
144.483
144.535
144.618
144.754
144.978
145.344
145.948
146.942
148.581
151.273
155.672
162.783
174.07
191.519
217.539
254.654
304.998
369.797
449.068
541.663
645.562
758.257
877.09
999.472
1122.73
1244.21
1361.5
1472.22
1573.38
1661.68
1734.57
1791.43
1833.41
1863.77
144.4
144.401
144.401
144.401
144.402
144.403
144.404
144.407
144.411
144.417
144.427
144.442
144.466
144.505
144.568
144.669
144.831
145.093
145.518
146.208
147.33
149.152
152.104
156.855
164.415
176.229
194.204
220.609
257.771
307.624
371.256
448.667
538.81
639.86
749.532
865.392
985.05
1106.14
1226.19
1342.87
1454.05
1557.3
1649.62
1728.18
1791.36
1839.49
1874.38
1898.79
1915.35
1926.76
144.402
144.403
144.404
144.406
144.41
144.415
144.423
144.436
144.456
144.487
144.537
144.615
144.74
144.938
145.254
145.76
146.571
147.869
149.95
153.269
158.529
166.761
179.404
198.307
225.603
263.418
313.462
376.647
452.9
541.224
639.941
746.973
860.091
977.089
1095.85
1214.13
1329.73
1440.63
1544.81
1639.72
1722.55
1791.18
1845.02
1885.19
1913.79
1933.5
1946.7
1955.5
1961.39
1965.33
144.406
144.409
144.414
144.421
144.432
144.45
144.476
144.518
144.583
144.684
144.842
145.09
145.482
146.1
147.076
148.62
151.055
154.881
160.843
170.01
183.826
204.085
232.785
271.837
322.703
386.089
461.814
548.891
645.758
750.515
861.128
975.577
1091.92
1208.2
1322.34
1432.43
1536.67
1632.94
1718.71
1791.63
1850.47
1895.54
1928.46
1951.54
1967.25
1977.6
1984.4
1988.79
1991.43
1993.25
1995.03
144.431
144.447
144.471
144.507
144.564
144.65
144.784
144.99
145.31
145.807
146.582
147.789
149.669
152.59
157.104
164.014
174.435
189.82
211.905
242.535
283.388
335.658
399.822
475.566
561.896
657.338
760.152
868.487
980.502
1094.43
1208.53
1320.9
1429.75
1533.41
1630.1
1717.62
1793.64
1856.53
1905.97
1943
1969.51
1987.8
2000.02
2007.99
2013.11
2016.19
2017.82
2019.11
2020.15
2020.17
2019.75
144.503
144.555
144.633
144.752
144.932
145.208
145.631
146.279
147.274
148.802
151.148
154.733
160.176
168.348
180.415
197.833
222.259
255.36
298.555
352.752
418.187
494.41
580.404
674.776
775.929
882.188
991.885
1103.41
1215.19
1325.57
1432.83
1535.41
1631.77
1720.03
1798.05
1864.01
1917.1
1957.8
1987.6
2008.53
2022.74
2032
2037.91
2041.54
2043.42
2044.4
2045.29
2045.39
2044.82
2043.78
2042.44
2041.15
144.907
145.158
145.536
146.108
146.972
148.282
150.264
153.256
157.749
164.442
174.279
188.471
208.456
235.781
271.898
317.938
374.512
441.619
518.676
604.649
698.223
797.937
902.283
1009.75
1118.89
1228.28
1336.46
1441.83
1542.93
1638.37
1726.57
1805.61
1873.64
1929.56
1973.37
2006.16
2029.63
2045.77
2056.48
2063.29
2067.49
2069.73
2070.63
2071.11
2071.32
2070.75
2069.6
2068.07
2066.3
2064.57
2063
2061.67
146.829
148.01
149.773
152.398
156.292
162.031
170.398
182.408
199.3
222.456
253.262
292.918
342.242
401.55
470.617
548.751
634.915
727.876
826.305
928.852
1034.16
1140.91
1247.85
1353.65
1456.87
1556.14
1650.2
1737.67
1816.88
1886.08
1943.98
1990.24
2025.55
2051.33
2069.35
2081.49
2089.27
2094
2096.68
2097.73
2097.89
2097.87
2097.41
2096.21
2094.5
2092.49
2090.39
2088.31
2086.4
2084.64
2083.07
2081.7
155.553
160.712
168.152
178.744
193.556
213.812
240.785
275.647
319.302
372.251
434.527
505.72
585.055
671.516
763.957
861.182
961.984
1065.15
1169.51
1273.9
1377.17
1478.02
1575.17
1667.44
1753.64
1832.32
1901.86
1960.92
2008.91
2046.21
2073.96
2093.68
2107.12
2115.88
2121.19
2124.25
2125.57
2125.55
2125.24
2124.7
2123.48
2121.63
2119.49
2117.08
2114.65
2112.27
2110.06
2107.95
2106
2104.19
2102.56
2101.12
190.448
208.801
233.146
264.581
304.009
352.014
408.79
474.127
547.471
628.007
714.762
806.686
902.712
1001.77
1102.77
1204.68
1306.45
1407.05
1505.32
1600.07
1690.21
1774.69
1852.23
1921.38
1980.83
2029.85
2068.56
2097.82
2118.95
2133.58
2143.24
2149.12
2152.5
2154.1
2154.04
2153.46
2152.68
2151.44
2149.51
2147.18
2144.58
2141.8
2139.04
2136.39
2133.87
2131.45
2129.17
2127.01
2124.99
2123.1
2121.38
2119.83
295.133
339.503
392.044
452.675
521.002
596.38
677.993
764.932
856.256
951.017
1048.27
1147.05
1246.43
1345.48
1443.28
1538.76
1630.86
1718.56
1800.91
1876.81
1944.95
2004.09
2053.44
2092.94
2123.23
2145.45
2161.03
2171.43
2177.85
2181.53
2183.32
2183.31
2182.57
2181.46
2180.05
2178.06
2175.57
2172.8
2169.76
2166.67
2163.61
2160.68
2157.83
2155.11
2152.51
2150.02
2147.65
2145.4
2143.27
2141.28
2139.44
2137.77
504.648
575.727
652.884
735.338
822.263
912.826
1006.19
1101.53
1197.99
1294.74
1390.94
1485.77
1578.28
1667.48
1752.46
1832.34
1906.16
1972.74
2030.95
2079.98
2119.66
2150.49
2173.38
2189.63
2200.61
2207.48
2211.4
2213.27
2213.36
2212.49
2211.05
2209.36
2207.33
2204.68
2201.7
2198.46
2195.05
2191.64
2188.32
2185.1
2181.96
2178.93
2176.01
2173.19
2170.49
2167.89
2165.41
2163.05
2160.8
2158.68
2156.71
2154.9
886.924
976.5
1068.29
1161.55
1255.54
1349.51
1442.73
1534.43
1623.77
1709.85
1791.83
1868.93
1940.27
2004.83
2061.54
2109.67
2148.98
2179.8
2202.95
2219.57
2230.92
2238.04
2242.14
2244.08
2244.17
2243.19
2241.5
2239.48
2237.25
2234.46
2231.26
2227.85
2224.19
2220.46
2216.76
2213.16
2209.63
2206.2
2202.88
2199.65
2196.53
2193.5
2190.57
2187.74
2185.02
2182.41
2179.91
2177.53
2175.26
2173.14
2171.16
1228.26
1319.6
1410.63
1500.68
1589.09
1675.06
1757.79
1836.52
1910.54
1979.08
2041.19
2095.93
2142.62
2181
2211.34
2234.34
2251
2262.42
2269.66
2273.83
2275.74
2275.73
2274.7
2272.78
2270.37
2267.85
2265
2261.57
2257.91
2254.03
2249.98
2245.95
2241.99
2238.12
2234.3
2230.59
2226.96
2223.43
2219.99
2216.64
2213.39
2210.24
2207.18
2204.21
2201.35
2198.6
2195.95
2193.41
2190.98
2188.68
2186.51
1564.62
1649.54
1731.94
1811.1
1886.33
1957
2022.41
2081.71
2134.05
2178.83
2215.81
2245.2
2267.63
2283.97
2295.23
2302.41
2306.51
2308.27
2308.14
2307
2304.8
2302.07
2299.24
2296.15
2292.52
2288.6
2284.55
2280.25
2275.9
2271.58
2267.33
2263.15
2259.06
2255.07
2251.16
2247.33
2243.59
2239.93
2236.36
2232.88
2229.49
2226.19
2222.98
2219.87
2216.86
2213.94
2211.12
2208.4
2205.79
2203.29
2200.91
1940.98
2008.05
2070.04
2126.2
2175.76
2218.21
2253.36
2281.38
2302.86
2318.57
2329.4
2336.3
2340.17
2341.71
2341.42
2340.07
2337.63
2334.58
2331.38
2327.98
2324.23
2320.03
2315.7
2311.15
2306.48
2301.84
2297.28
2292.77
2288.31
2283.95
2279.66
2275.45
2271.34
2267.3
2263.34
2259.46
2255.66
2251.95
2248.32
2244.78
2241.32
2237.96
2234.68
2231.49
2228.4
2225.39
2222.48
2219.65
2216.93
2214.31
2174.38
2220.83
2260.6
2293.54
2319.83
2340.01
2354.79
2364.93
2371.36
2374.87
2376.06
2375.53
2373.9
2371.21
2367.83
2364.26
2360.54
2356.55
2352.09
2347.47
2342.74
2337.79
2332.82
2327.9
2323.04
2318.24
2313.53
2308.9
2304.34
2299.86
2295.44
2291.11
2286.85
2282.67
2278.57
2274.54
2270.59
2266.73
2262.94
2259.23
2255.61
2252.07
2248.61
2245.23
2241.93
2238.71
2235.58
2232.52
2229.55
2226.67
2336.15
2360.4
2379.01
2392.59
2401.8
2407.58
2410.59
2411.29
2410.46
2408.51
2405.5
2401.77
2397.87
2393.8
2389.48
2384.82
2379.91
2374.91
2369.7
2364.42
2359.19
2354.02
2348.89
2343.82
2338.84
2333.92
2329.08
2324.33
2319.64
2315.02
2310.47
2305.99
2301.58
2297.25
2292.99
2288.81
2284.7
2280.66
2276.7
2272.82
2269.01
2265.27
2261.61
2258.02
2254.5
2251.05
2247.67
2244.36
2241.12
2237.94
2431.8
2439.93
2444.9
2447.29
2447.38
2446.19
2443.85
2440.47
2436.42
2432.17
2427.73
2423.07
2418.21
2412.98
2407.65
2402.23
2396.66
2391.1
2385.61
2380.15
2374.75
2369.44
2364.2
2359.01
2353.91
2348.86
2343.89
2338.99
2334.16
2329.39
2324.69
2320.06
2315.5
2311.01
2306.59
2302.23
2297.95
2293.73
2289.58
2285.5
2281.49
2277.54
2273.66
2269.84
2266.07
2262.37
2258.72
2255.12
2251.59
2248.1
2484.79
2484.33
2482.69
2479.89
2476.1
2471.71
2467.09
2462.28
2457.28
2452.16
2446.65
2441.01
2435.34
2429.48
2423.6
2417.81
2412.05
2406.32
2400.67
2395.1
2389.59
2384.15
2378.78
2373.46
2368.22
2363.04
2357.92
2352.87
2347.89
2342.97
2338.11
2333.32
2328.59
2323.92
2319.32
2314.79
2310.31
2305.9
2301.55
2297.25
2293.02
2288.84
2284.71
2280.64
2276.61
2272.62
2268.68
2264.78
2260.93
2257.1
2516.52
2512.34
2507.6
2502.59
2497.43
2492.08
2486.61
2480.87
2474.92
2468.97
2462.87
2456.68
2450.57
2444.51
2438.47
2432.51
2426.62
2420.78
2415.01
2409.31
2403.67
2398.1
2392.59
2387.14
2381.75
2376.42
2371.15
2365.94
2360.8
2355.71
2350.69
2345.72
2340.81
2335.96
2331.17
2326.44
2321.76
2317.13
2312.56
2308.04
2303.56
2299.13
2294.74
2290.39
2286.07
2281.79
2277.54
2273.31
2269.12
2264.94
2538.62
2533.1
2527.41
2521.6
2515.59
2509.36
2503.08
2496.74
2490.27
2483.85
2477.52
2471.18
2464.89
2458.69
2452.55
2446.46
2440.45
2434.49
2428.59
2422.76
2416.98
2411.27
2405.61
2400.01
2394.47
2388.98
2383.55
2378.18
2372.87
2367.61
2362.4
2357.25
2352.15
2347.11
2342.11
2337.16
2332.26
2327.41
2322.59
2317.82
2313.08
2308.38
2303.7
2299.06
2294.44
2289.83
2285.25
2280.68
2276.13
2271.57
2550.76
2544.26
2537.69
2531.08
2524.35
2517.63
2511
2504.38
2497.79
2491.3
2484.85
2478.46
2472.13
2465.87
2459.66
2453.52
2447.43
2441.4
2435.42
2429.5
2423.63
2417.82
2412.06
2406.36
2400.71
2395.11
2389.57
2384.07
2378.63
2373.23
2367.88
2362.58
2357.32
2352.1
2346.93
2341.79
2336.68
2331.61
2326.57
2321.55
2316.56
2311.59
2306.63
2301.68
2296.74
2291.81
2286.88
2281.95
2277
2565.83
2558.85
2551.85
2544.93
2538.05
2531.16
2524.38
2517.65
2510.96
2504.33
2497.78
2491.27
2484.82
2478.43
2472.09
2465.81
2459.58
2453.4
2447.27
2441.2
2435.18
2429.2
2423.28
2417.41
2411.59
2405.81
2400.08
2394.39
2388.75
2383.15
2377.59
2372.07
2366.58
2361.13
2355.7
2350.31
2344.94
2339.6
2334.27
2328.95
2323.65
2318.36
2313.07
2307.78
2302.49
2297.19
2291.88
2286.57
2281.22
2579.27
2572.12
2564.97
2557.89
2550.89
2543.91
2537.01
2530.16
2523.36
2516.62
2509.94
2503.3
2496.72
2490.19
2483.72
2477.29
2470.91
2464.58
2458.3
2452.07
2445.88
2439.74
2433.65
2427.59
2421.59
2415.62
2409.69
2403.8
2397.95
2392.13
2386.34
2380.59
2374.86
2369.15
2363.47
2357.8
2352.15
2346.52
2340.89
2335.26
2329.63
2324.01
2318.37
2312.73
2307.07
2301.39
2295.69
2289.98
2284.21
2584.53
2577.29
2570.1
2562.98
2555.9
2548.88
2541.92
2535
2528.13
2521.31
2514.55
2507.83
2501.15
2494.53
2487.95
2481.42
2474.93
2468.49
2462.09
2455.73
2449.41
2443.13
2436.89
2430.69
2424.52
2418.38
2412.28
2406.2
2400.15
2394.12
2388.12
2382.13
2376.16
2370.2
2364.25
2358.3
2352.36
2346.41
2340.45
2334.49
2328.51
2322.52
2316.5
2310.47
2304.4
2298.3
2292.17
2285.98
2596.18
2588.84
2581.55
2574.31
2567.12
2559.98
2552.89
2545.84
2538.84
2531.89
2524.98
2518.11
2511.29
2504.52
2497.78
2491.09
2484.43
2477.82
2471.24
2464.7
2458.19
2451.72
2445.28
2438.87
2432.48
2426.13
2419.79
2413.48
2407.18
2400.9
2394.64
2388.38
2382.12
2375.87
2369.62
2363.37
2357.1
2350.82
2344.53
2338.21
2331.87
2325.51
2319.11
2312.68
2306.21
2299.7
2293.15
2286.56
2599.63
2592.23
2584.87
2577.55
2570.28
2563.06
2555.88
2548.74
2541.64
2534.59
2527.57
2520.6
2513.66
2506.76
2499.89
2493.06
2486.27
2479.5
2472.77
2466.07
2459.39
2452.74
2446.11
2439.5
2432.91
2426.33
2419.77
2413.21
2406.67
2400.12
2393.58
2387.03
2380.48
2373.91
2367.33
2360.73
2354.11
2347.46
2340.79
2334.08
2327.33
2320.53
2313.7
2306.85
2299.95
2293.01
2286
2609.64
2602.11
2594.63
2587.19
2579.78
2572.42
2565.1
2557.81
2550.57
2543.36
2536.18
2529.04
2521.94
2514.86
2507.82
2500.81
2493.82
2486.86
2479.93
2473.01
2466.12
2459.24
2452.38
2445.54
2438.7
2431.87
2425.04
2418.22
2411.4
2404.56
2397.72
2390.87
2384
2377.11
2370.19
2363.25
2356.27
2349.26
2342.2
2335.11
2327.99
2320.83
2313.62
2306.37
2299.08
2291.72
2284.28
2611.19
2603.58
2596
2588.46
2580.95
2573.48
2566.05
2558.64
2551.27
2543.93
2536.62
2529.34
2522.08
2514.85
2507.64
2500.46
2493.29
2486.14
2479.01
2471.89
2464.78
2457.68
2450.58
2443.49
2436.4
2429.3
2422.19
2415.08
2407.94
2400.8
2393.62
2386.43
2379.2
2371.94
2364.63
2357.29
2349.93
2342.52
2335.07
2327.57
2320.03
2312.43
2304.77
2297.05
2289.27
2281.4
2619.46
2611.71
2603.99
2596.3
2588.65
2581.02
2573.42
2565.86
2558.32
2550.8
2543.31
2535.84
2528.4
2520.97
2513.56
2506.16
2498.78
2491.41
2484.05
2476.69
2469.34
2461.98
2454.63
2447.27
2439.9
2432.51
2425.12
2417.7
2410.25
2402.79
2395.28
2387.75
2380.17
2372.57
2364.94
2357.25
2349.52
2341.75
2333.92
2326.03
2318.09
2310.08
2302.01
2293.88
2285.69
2277.4
2626.89
2619
2611.13
2603.29
2595.48
2587.69
2579.93
2572.19
2564.47
2556.77
2549.1
2541.43
2533.79
2526.15
2518.53
2510.92
2503.31
2495.7
2488.1
2480.5
2472.89
2465.28
2457.65
2450.01
2442.36
2434.68
2426.98
2419.25
2411.48
2403.68
2395.87
2388.01
2380.1
2372.16
2364.18
2356.14
2348.03
2339.87
2331.65
2323.37
2315.03
2306.62
2298.15
2289.61
2281
2272.3
2633.48
2625.44
2617.41
2609.42
2601.44
2593.48
2585.55
2577.63
2569.72
2561.84
2553.96
2546.1
2538.24
2530.39
2522.55
2514.71
2506.86
2499.02
2491.17
2483.31
2475.44
2467.55
2459.65
2451.72
2443.76
2435.78
2427.77
2419.74
2411.67
2403.56
2395.42
2387.23
2378.99
2370.68
2362.32
2353.91
2345.43
2336.89
2328.29
2319.62
2310.88
2302.07
2293.2
2284.26
2275.25
2266.14
2639.21
2631.01
2622.83
2614.66
2606.51
2598.38
2590.26
2582.15
2574.06
2565.97
2557.89
2549.82
2541.74
2533.67
2525.6
2517.52
2509.43
2501.34
2493.23
2485.1
2476.96
2468.79
2460.59
2452.38
2444.15
2435.87
2427.57
2419.22
2410.84
2402.41
2393.91
2385.37
2376.77
2368.11
2359.39
2350.6
2341.75
2332.83
2323.85
2314.79
2305.67
2296.47
2287.21
2277.87
2268.46
2258.95
2644.07
2635.7
2627.35
2619.01
2610.69
2602.37
2594.06
2585.76
2577.46
2569.17
2560.87
2552.58
2544.28
2535.98
2527.67
2519.34
2511
2502.65
2494.27
2485.88
2477.47
2469.03
2460.56
2452.06
2443.53
2434.96
2426.34
2417.67
2408.95
2400.18
2391.34
2382.45
2373.5
2364.48
2355.39
2346.24
2337.02
2327.72
2318.36
2308.92
2299.42
2289.84
2280.19
2270.47
2260.67
2250.76
2648.04
2639.5
2630.98
2622.46
2613.94
2605.43
2596.93
2588.42
2579.92
2571.41
2562.9
2554.38
2545.84
2537.3
2528.74
2520.16
2511.58
2502.97
2494.34
2485.68
2477
2468.28
2459.53
2450.73
2441.89
2433
2424.06
2415.06
2406.01
2396.9
2387.73
2378.49
2369.18
2359.81
2350.36
2340.84
2331.26
2321.59
2311.86
2302.05
2292.17
2282.21
2272.18
2262.08
2251.91
2241.63
2642.39
2633.69
2624.98
2616.27
2607.56
2598.85
2590.14
2581.42
2572.68
2563.94
2555.18
2546.43
2537.65
2528.85
2520.03
2511.19
2502.33
2493.44
2484.51
2475.54
2466.52
2457.47
2448.37
2439.22
2430.01
2420.75
2411.43
2402.04
2392.6
2383.08
2373.5
2363.84
2354.12
2344.32
2334.44
2324.49
2314.47
2304.37
2294.19
2283.94
2273.62
2263.23
2252.76
2242.22
2231.58
2644.37
2635.47
2626.57
2617.66
2608.74
2599.82
2590.89
2581.96
2573.01
2564.05
2555.06
2546.07
2537.06
2528.02
2518.95
2509.84
2500.71
2491.53
2482.32
2473.06
2463.75
2454.4
2444.99
2435.53
2426.01
2416.43
2406.78
2397.07
2387.29
2377.43
2367.51
2357.51
2347.44
2337.29
2327.06
2316.76
2306.37
2295.92
2285.39
2274.78
2264.11
2253.36
2242.55
2231.66
2220.67
2645.4
2636.31
2627.21
2618.11
2608.99
2599.87
2590.72
2581.58
2572.41
2563.22
2554.01
2544.77
2535.5
2526.2
2516.87
2507.49
2498.08
2488.63
2479.13
2469.58
2459.98
2450.33
2440.62
2430.84
2421.01
2411.11
2401.14
2391.1
2380.99
2370.81
2360.55
2350.21
2339.79
2329.3
2318.73
2308.08
2297.35
2286.55
2275.68
2264.73
2253.72
2242.64
2231.49
2220.26
2208.93
2636.25
2626.95
2617.65
2608.33
2599
2589.64
2580.26
2570.86
2561.43
2551.97
2542.48
2532.96
2523.4
2513.8
2504.16
2494.47
2484.74
2474.96
2465.12
2455.23
2445.27
2435.26
2425.18
2415.04
2404.82
2394.54
2384.17
2373.74
2363.23
2352.64
2341.97
2331.22
2320.39
2309.48
2298.5
2287.44
2276.31
2265.11
2253.83
2242.49
2231.08
2219.6
2208.05
2196.4
2635.29
2625.79
2616.27
2606.73
2597.17
2587.59
2577.98
2568.34
2558.67
2548.96
2539.22
2529.44
2519.62
2509.76
2499.85
2489.89
2479.88
2469.81
2459.69
2449.51
2439.26
2428.94
2418.56
2408.11
2397.58
2386.98
2376.31
2365.55
2354.72
2343.81
2332.81
2321.74
2310.59
2299.37
2288.06
2276.68
2265.23
2253.71
2242.11
2230.45
2218.73
2206.93
2195.07
2183.11
2633.38
2623.67
2613.93
2604.18
2594.39
2584.58
2574.74
2564.86
2554.95
2545
2535.01
2524.97
2514.9
2504.77
2494.59
2484.36
2474.07
2463.72
2453.31
2442.84
2432.3
2421.69
2411.01
2400.25
2389.42
2378.51
2367.53
2356.46
2345.32
2334.09
2322.79
2311.41
2299.95
2288.41
2276.8
2265.11
2253.34
2241.51
2229.61
2217.65
2205.62
2193.52
2181.36
2169.1
2630.53
2620.61
2610.66
2600.68
2590.67
2580.63
2570.56
2560.44
2550.29
2540.09
2529.85
2519.56
2509.22
2498.83
2488.39
2477.88
2467.32
2456.69
2446
2435.25
2424.42
2413.52
2402.54
2391.49
2380.36
2369.16
2357.88
2346.51
2335.07
2323.54
2311.94
2300.25
2288.49
2276.65
2264.73
2252.74
2240.68
2228.55
2216.36
2204.1
2191.79
2179.41
2166.96
2154.42
2616.62
2606.45
2596.25
2586.02
2575.75
2565.44
2555.09
2544.69
2534.25
2523.76
2513.22
2502.62
2491.97
2481.26
2470.49
2459.66
2448.76
2437.79
2426.75
2415.64
2404.46
2393.2
2381.87
2370.45
2358.96
2347.38
2335.73
2323.99
2312.18
2300.28
2288.3
2276.25
2264.11
2251.91
2239.63
2227.29
2214.87
2202.4
2189.87
2177.28
2164.63
2151.92
2139.11
2611.7
2601.32
2590.9
2580.44
2569.94
2559.4
2548.81
2538.17
2527.49
2516.75
2505.96
2495.11
2484.2
2473.23
2462.2
2451.1
2439.94
2428.7
2417.4
2406.01
2394.56
2383.02
2371.41
2359.71
2347.94
2336.08
2324.14
2312.12
2300.02
2287.84
2275.58
2263.25
2250.84
2238.36
2225.81
2213.19
2200.51
2187.77
2174.98
2162.13
2149.23
2136.26
2123.21
2605.87
2595.27
2584.63
2573.95
2563.22
2552.45
2541.63
2530.75
2519.83
2508.85
2497.81
2486.72
2475.56
2464.34
2453.05
2441.7
2430.27
2418.77
2407.2
2395.55
2383.83
2372.02
2360.14
2348.17
2336.12
2323.99
2311.78
2299.49
2287.12
2274.67
2262.14
2249.54
2236.86
2224.12
2211.31
2198.44
2185.5
2172.52
2159.47
2146.38
2133.24
2120.04
2106.75
2588.33
2577.47
2566.56
2555.61
2544.61
2533.56
2522.46
2511.3
2500.08
2488.81
2477.47
2466.07
2454.6
2443.06
2431.46
2419.78
2408.02
2396.19
2384.29
2372.3
2360.23
2348.09
2335.86
2323.55
2311.15
2298.68
2286.13
2273.5
2260.79
2248.01
2235.15
2222.23
2209.23
2196.18
2183.06
2169.89
2156.67
2143.39
2130.08
2116.71
2103.29
2089.78
2580.51
2569.43
2558.31
2547.14
2535.92
2524.64
2513.31
2501.92
2490.48
2478.97
2467.39
2455.75
2444.04
2432.26
2420.41
2408.48
2396.48
2384.4
2372.24
2360
2347.68
2335.28
2322.8
2310.24
2297.6
2284.88
2272.08
2259.2
2246.24
2233.22
2220.12
2206.96
2193.73
2180.45
2167.11
2153.71
2140.27
2126.78
2113.24
2099.67
2086.04
2072.33
2571.83
2560.55
2549.21
2537.83
2526.39
2514.89
2503.34
2491.72