/*--------------------------------*- C++ -*----------------------------------*\
| =========                 |                                                 |
| \\      /  F ield         | OpenFOAM: The Open Source CFD Toolbox           |
|  \\    /   O peration     | Version:  v1706                                 |
|   \\  /    A nd           | Web:      www.OpenFOAM.com                      |
|    \\/     M anipulation  |                                                 |
\*---------------------------------------------------------------------------*/
FoamFile
{
    version     2.0;
    format      ascii;
    class       volScalarField;
    location    "9e-06";
    object      Tt;
}
// * * * * * * * * * * * * * * * * * * * * * * * * * * * * * * * * * * * * * //

dimensions      [0 0 0 1 0 0 0];


internalField   nonuniform List<scalar> 
30038
(
144.4
144.4
144.4
144.4
144.4
144.4
144.4
144.4
144.4
144.4
144.4
144.4
144.4
144.4
144.4
144.4
144.4
144.4
144.4
144.4
144.4
144.4
144.4
144.4
144.4
144.4
144.4
144.4
144.4
144.4
144.4
144.4
144.4
144.4
144.4
144.4
144.4
144.4
144.4
144.4
144.4
144.4
144.4
144.4
144.4
144.4
144.4
144.4
144.4
144.4
144.4
144.4
144.4
144.4
144.4
144.4
144.4
144.4
144.4
144.4
144.4
144.4
144.4
144.4
144.4
144.4
144.4
144.4
144.4
144.4
144.4
144.4
144.4
144.4
144.4
144.4
144.4
144.4
144.4
144.4
144.4
144.4
144.4
144.4
144.4
144.4
144.4
144.4
144.4
144.4
144.4
144.4
144.4
144.4
144.4
144.4
144.4
144.4
144.4
144.4
144.4
144.4
144.4
144.4
144.4
144.4
144.4
144.4
144.4
144.4
144.4
144.4
144.4
144.4
144.4
144.4
144.4
144.4
144.4
144.4
144.4
144.4
144.4
144.4
144.4
144.4
144.4
144.4
144.4
144.4
144.4
144.4
144.4
144.4
144.4
144.4
144.4
144.4
144.4
144.4
144.4
144.4
144.4
144.4
144.4
144.4
144.4
144.4
144.4
144.4
144.4
144.4
144.4
144.4
144.4
144.4
144.4
144.4
144.4
144.4
144.4
144.4
144.4
144.4
144.4
144.4
144.4
144.4
144.4
144.4
144.4
144.4
144.4
144.4
144.4
144.4
144.4
144.4
144.4
144.4
144.4
144.4
144.4
144.4
144.4
144.4
144.4
144.4
144.4
144.4
144.4
144.4
144.4
144.4
144.4
144.4
144.4
144.4
144.4
144.4
144.4
144.4
144.4
144.4
144.4
144.4
144.4
144.4
144.4
144.4
144.4
144.4
144.4
144.4
144.4
144.4
144.4
144.4
144.4
144.4
144.4
144.4
144.4
144.4
144.4
144.4
144.4
144.4
144.4
144.4
144.4
144.4
144.4
144.4
144.4
144.4
144.4
144.4
144.4
144.4
144.4
144.4
144.4
144.4
144.4
144.4
144.4
144.4
144.4
144.4
144.4
144.4
144.4
144.4
144.4
144.4
144.4
144.4
144.4
144.4
144.4
144.4
144.4
144.4
144.4
144.4
144.4
144.4
144.4
144.4
144.4
144.4
144.4
144.4
144.4
144.4
144.4
144.4
144.4
144.4
144.4
144.4
144.4
144.4
144.4
144.4
144.4
144.4
144.4
144.4
144.4
144.4
144.4
144.4
144.4
144.4
144.4
144.4
144.4
144.4
144.4
144.4
144.4
144.4
144.4
144.4
144.4
144.4
144.4
144.4
144.4
144.4
144.4
144.4
144.4
144.4
144.4
144.4
144.4
144.4
144.4
144.4
144.4
144.4
144.4
144.4
144.4
144.4
144.4
144.4
144.4
144.4
144.4
144.4
144.4
144.4
144.4
144.4
144.4
144.4
144.4
144.4
144.4
144.4
144.4
144.4
144.4
144.4
144.4
144.4
144.4
144.4
144.4
144.4
144.4
144.4
144.4
144.4
144.4
144.4
144.4
144.4
144.4
144.4
144.4
144.4
144.4
144.4
144.4
144.4
144.4
144.4
144.4
144.4
144.4
144.4
144.4
144.4
144.4
144.4
144.4
144.4
144.4
144.4
144.4
144.4
144.4
144.4
144.4
144.4
144.4
144.4
144.4
144.4
144.4
144.4
144.4
144.4
144.4
144.4
144.4
144.4
144.4
144.4
144.4
144.4
144.4
144.4
144.4
144.4
144.4
144.4
144.4
144.4
144.4
144.4
144.4
144.4
144.4
144.4
144.4
144.4
144.4
144.4
144.4
144.4
144.4
144.4
144.4
144.4
144.4
144.4
144.4
144.4
144.4
144.4
144.4
144.4
144.4
144.4
144.4
144.4
144.4
144.4
144.4
144.4
144.4
144.4
144.4
144.4
144.4
144.4
144.4
144.4
144.4
144.4
144.4
144.4
144.4
144.4
144.4
144.4
144.4
144.4
144.4
144.4
144.4
144.4
144.4
144.4
144.4
144.4
144.4
144.4
144.4
144.4
144.4
144.4
144.4
144.4
144.4
144.4
144.4
144.4
144.4
144.4
144.4
144.4
144.4
144.4
144.4
144.4
144.4
144.4
144.4
144.4
144.4
144.4
144.4
144.4
144.4
144.4
144.4
144.4
144.4
144.4
144.4
144.4
144.4
144.4
144.4
144.4
144.4
144.4
144.4
144.4
144.4
144.4
144.4
144.4
144.4
144.4
144.4
144.4
144.4
144.4
144.4
144.4
144.4
144.4
144.4
144.4
144.4
144.4
144.4
144.4
144.4
144.4
144.4
144.4
144.4
144.4
144.4
144.4
144.4
144.4
144.4
144.4
144.4
144.4
144.4
144.4
144.4
144.4
144.4
144.4
144.4
144.4
144.4
144.4
144.4
144.4
144.4
144.4
144.4
144.4
144.4
144.4
144.4
144.4
144.4
144.4
144.4
144.4
144.4
144.4
144.4
144.4
144.4
144.4
144.4
144.4
144.4
144.4
144.4
144.4
144.4
144.4
144.4
144.4
144.4
144.4
144.4
144.4
144.4
144.4
144.4
144.4
144.4
144.4
144.4
144.4
144.4
144.4
144.4
144.4
144.4
144.4
144.4
144.4
144.4
144.4
144.4
144.4
144.4
144.4
144.4
144.4
144.4
144.4
144.4
144.4
144.4
144.4
144.4
144.4
144.4
144.4
144.4
144.4
144.4
144.4
144.4
144.4
144.4
144.4
144.4
144.4
144.4
144.4
144.4
144.4
144.4
144.4
144.4
144.4
144.4
144.4
144.4
144.4
144.4
144.4
144.4
144.4
144.4
144.4
144.4
144.4
144.4
144.4
144.4
144.4
144.4
144.4
144.4
144.4
144.4
144.4
144.4
144.4
144.4
144.4
144.4
144.4
144.4
144.4
144.4
144.4
144.4
144.4
144.4
144.4
144.4
144.4
144.4
144.4
144.4
144.4
144.4
144.4
144.4
144.4
144.4
144.4
144.4
144.4
144.4
144.4
144.4
144.4
144.4
144.4
144.4
144.4
144.4
144.4
144.4
144.4
144.4
144.4
144.4
144.4
144.4
144.4
144.4
144.4
144.4
144.4
144.4
144.4
144.4
144.4
144.4
144.4
144.4
144.4
144.4
144.4
144.4
144.4
144.4
144.4
144.4
144.4
144.4
144.4
144.4
144.4
144.4
144.4
144.4
144.4
144.4
144.4
144.4
144.4
144.4
144.4
144.4
144.4
144.4
144.4
144.4
144.4
144.4
144.4
144.4
144.4
144.4
144.4
144.4
144.4
144.4
144.4
144.4
144.4
144.4
144.4
144.4
144.4
144.4
144.4
144.4
144.4
144.4
144.4
144.4
144.4
144.4
144.4
144.4
144.4
144.4
144.4
144.4
144.4
144.4
144.4
144.4
144.4
144.4
144.4
144.4
144.4
144.4
144.4
144.4
144.4
144.4
144.4
144.4
144.4
144.4
144.4
144.4
144.4
144.4
144.4
144.4
144.4
144.4
144.4
144.4
144.4
144.4
144.4
144.4
144.4
144.4
144.4
144.4
144.4
144.4
144.4
144.4
144.4
144.4
144.4
144.4
144.4
144.4
144.4
144.4
144.4
144.4
144.4
144.4
144.4
144.4
144.4
144.4
144.4
144.4
144.4
144.4
144.4
144.4
144.4
144.4
144.4
144.4
144.4
144.4
144.4
144.4
144.4
144.4
144.4
144.4
144.4
144.4
144.4
144.4
144.4
144.4
144.4
144.4
144.4
144.4
144.4
144.4
144.4
144.4
144.4
144.4
144.4
144.4
144.4
144.4
144.4
144.4
144.4
144.4
144.4
144.4
144.4
144.4
144.4
144.4
144.4
144.4
144.4
144.4
144.4
144.4
144.4
144.4
144.4
144.4
144.4
144.4
144.4
144.4
144.4
144.4
144.4
144.4
144.4
144.4
144.4
144.4
144.4
144.4
144.4
144.4
144.4
144.4
144.4
144.4
144.4
144.4
144.4
144.4
144.4
144.4
144.4
144.4
144.4
144.4
144.4
144.4
144.4
144.4
144.4
144.4
144.4
144.4
144.4
144.4
144.4
144.4
144.4
144.4
144.4
144.4
144.4
144.4
144.4
144.4
144.4
144.4
144.4
144.4
144.4
144.4
144.4
144.4
144.4
144.4
144.4
144.4
144.4
144.4
144.4
144.4
144.4
144.4
144.4
144.4
144.4
144.4
144.4
144.4
144.4
144.4
144.4
144.4
144.4
144.4
144.4
144.4
144.4
144.4
144.4
144.4
144.4
144.4
144.4
144.4
144.4
144.4
144.4
144.4
144.4
144.4
144.4
144.4
144.4
144.4
144.4
144.4
144.4
144.4
144.4
144.4
144.4
144.4
144.4
144.4
144.4
144.4
144.4
144.4
144.4
144.4
144.4
144.4
144.4
144.4
144.4
144.4
144.4
144.4
144.4
144.4
144.4
144.4
144.4
144.4
144.4
144.4
144.4
144.4
144.4
144.4
144.4
144.4
144.4
144.4
144.4
144.4
144.4
144.4
144.4
144.4
144.4
144.4
144.4
144.4
144.4
144.4
144.4
144.4
144.4
144.4
144.4
144.4
144.4
144.4
144.4
144.4
144.4
144.4
144.4
144.4
144.4
144.4
144.4
144.4
144.4
144.4
144.4
144.4
144.4
144.4
144.4
144.4
144.4
144.4
144.4
144.4
144.4
144.4
144.4
144.4
144.4
144.4
144.4
144.4
144.4
144.4
144.4
144.4
144.4
144.4
144.4
144.4
144.4
144.4
144.4
144.4
144.4
144.4
144.4
144.4
144.4
144.4
144.4
144.4
144.4
144.4
144.4
144.4
144.4
144.4
144.4
144.4
144.4
144.4
144.4
144.4
144.4
144.4
144.4
144.4
144.4
144.4
144.4
144.4
144.4
144.4
144.4
144.4
144.4
144.4
144.4
144.4
144.4
144.4
144.4
144.401
144.401
144.4
144.4
144.4
144.4
144.4
144.4
144.4
144.4
144.4
144.4
144.4
144.4
144.4
144.4
144.4
144.4
144.4
144.4
144.4
144.4
144.4
144.4
144.4
144.4
144.4
144.4
144.4
144.4
144.4
144.4
144.4
144.4
144.4
144.4
144.4
144.4
144.4
144.4
144.4
144.4
144.4
144.4
144.4
144.4
144.4
144.401
144.401
144.402
144.404
144.408
144.4
144.4
144.4
144.4
144.4
144.4
144.4
144.4
144.4
144.4
144.4
144.4
144.4
144.4
144.4
144.4
144.4
144.4
144.4
144.4
144.4
144.4
144.4
144.4
144.4
144.4
144.4
144.4
144.4
144.4
144.4
144.4
144.4
144.4
144.4
144.4
144.4
144.4
144.4
144.4
144.4
144.4
144.401
144.401
144.402
144.403
144.406
144.412
144.423
144.445
144.4
144.4
144.4
144.4
144.4
144.4
144.4
144.4
144.4
144.4
144.4
144.4
144.4
144.4
144.4
144.4
144.4
144.4
144.4
144.4
144.4
144.4
144.4
144.4
144.4
144.4
144.4
144.4
144.4
144.4
144.4
144.4
144.4
144.4
144.4
144.4
144.4
144.4
144.4
144.401
144.401
144.402
144.403
144.406
144.411
144.421
144.438
144.471
144.533
144.66
144.4
144.4
144.4
144.4
144.4
144.4
144.4
144.4
144.4
144.4
144.4
144.4
144.4
144.4
144.4
144.4
144.4
144.4
144.4
144.4
144.4
144.4
144.4
144.4
144.4
144.4
144.4
144.4
144.4
144.4
144.4
144.4
144.4
144.4
144.4
144.4
144.401
144.401
144.402
144.403
144.406
144.411
144.42
144.436
144.466
144.521
144.622
144.81
145.165
145.872
144.4
144.4
144.4
144.4
144.4
144.4
144.4
144.4
144.4
144.4
144.4
144.4
144.4
144.4
144.4
144.4
144.4
144.4
144.4
144.4
144.4
144.4
144.4
144.4
144.4
144.4
144.4
144.4
144.4
144.4
144.4
144.4
144.4
144.401
144.401
144.402
144.403
144.406
144.411
144.42
144.435
144.463
144.514
144.607
144.776
145.086
145.655
146.703
148.653
152.399
144.4
144.4
144.4
144.4
144.4
144.4
144.4
144.4
144.4
144.4
144.4
144.4
144.4
144.4
144.4
144.4
144.4
144.4
144.4
144.4
144.4
144.4
144.4
144.4
144.4
144.4
144.4
144.4
144.4
144.4
144.401
144.401
144.402
144.404
144.406
144.411
144.42
144.435
144.463
144.512
144.6
144.758
145.043
145.559
146.493
148.186
151.245
156.733
166.474
183.599
144.4
144.4
144.4
144.4
144.4
144.4
144.4
144.4
144.4
144.4
144.4
144.4
144.4
144.4
144.4
144.4
144.4
144.4
144.4
144.4
144.4
144.4
144.4
144.4
144.4
144.4
144.4
144.401
144.401
144.402
144.404
144.407
144.412
144.421
144.437
144.464
144.513
144.599
144.751
145.022
145.505
146.369
147.912
150.663
155.527
164.007
178.429
202.053
238.905
293.136
144.4
144.4
144.4
144.4
144.4
144.4
144.4
144.4
144.4
144.4
144.4
144.4
144.4
144.4
144.4
144.4
144.4
144.4
144.4
144.4
144.4
144.4
144.4
144.401
144.401
144.402
144.403
144.405
144.408
144.413
144.423
144.439
144.468
144.517
144.603
144.755
145.02
145.487
146.31
147.761
150.313
154.773
162.465
175.436
196.556
229.335
277.301
343.079
427.69
530.059
144.4
144.4
144.4
144.4
144.4
144.4
144.4
144.4
144.4
144.4
144.4
144.4
144.4
144.4
144.4
144.4
144.4
144.4
144.4
144.4
144.401
144.401
144.402
144.403
144.405
144.409
144.415
144.425
144.443
144.473
144.525
144.615
144.769
145.037
145.501
146.309
147.714
150.153
154.361
161.539
173.529
192.929
222.954
266.923
327.426
405.54
500.539
610.195
731.503
860.834
144.4
144.4
144.4
144.4
144.4
144.4
144.4
144.4
144.4
144.4
144.4
144.4
144.4
144.4
144.4
144.4
144.401
144.401
144.401
144.402
144.404
144.406
144.411
144.417
144.429
144.449
144.482
144.538
144.633
144.796
145.073
145.549
146.364
147.765
150.163
154.248
161.131
172.505
190.75
218.833
259.878
316.436
389.758
479.432
583.541
699.193
823.111
952.038
1082.6
1211.88
144.4
144.4
144.4
144.4
144.4
144.4
144.4
144.4
144.4
144.4
144.4
144.4
144.4
144.401
144.401
144.402
144.403
144.405
144.408
144.413
144.421
144.434
144.457
144.494
144.556
144.661
144.836
145.133
145.633
146.481
147.916
150.342
154.418
161.197
172.265
189.832
216.651
255.643
309.262
378.832
464.184
563.744
674.947
794.752
920.055
1047.68
1174.46
1297.71
1414.65
1522.56
144.4
144.4
144.4
144.4
144.4
144.4
144.4
144.4
144.4
144.401
144.401
144.401
144.402
144.404
144.406
144.41
144.416
144.426
144.442
144.468
144.511
144.582
144.7
144.895
145.22
145.763
146.668
148.181
150.702
154.882
161.736
172.778
190.089
216.237
253.944
305.521
372.275
454.174
549.901
657.186
773.268
895.27
1020.34
1145.51
1268
1385.3
1494.56
1592.34
1675.22
1742.4
144.4
144.4
144.4
144.4
144.4
144.401
144.401
144.401
144.402
144.403
144.405
144.408
144.413
144.42
144.432
144.452
144.483
144.535
144.618
144.754
144.978
145.344
145.948
146.942
148.581
151.273
155.672
162.783
174.07
191.519
217.539
254.654
304.998
369.797
449.068
541.664
645.563
758.258
877.092
999.475
1122.74
1244.22
1361.51
1472.23
1573.4
1661.7
1734.59
1791.46
1833.44
1863.81
144.4
144.401
144.401
144.401
144.402
144.403
144.404
144.407
144.411
144.417
144.427
144.442
144.466
144.505
144.568
144.669
144.831
145.093
145.518
146.208
147.33
149.152
152.104
156.855
164.415
176.229
194.204
220.609
257.771
307.624
371.257
448.668
538.811
639.861
749.533
865.395
985.053
1106.15
1226.19
1342.88
1454.06
1557.32
1649.64
1728.2
1791.39
1839.53
1874.42
1898.84
1915.4
1926.82
144.402
144.403
144.404
144.406
144.41
144.415
144.423
144.436
144.456
144.487
144.537
144.615
144.74
144.938
145.254
145.76
146.571
147.869
149.95
153.269
158.529
166.761
179.404
198.307
225.603
263.418
313.462
376.647
452.9
541.225
639.942
746.974
860.093
977.092
1095.86
1214.14
1329.74
1440.65
1544.83
1639.74
1722.57
1791.21
1845.06
1885.23
1913.84
1933.55
1946.76
1955.57
1961.46
1965.41
144.406
144.409
144.414
144.421
144.432
144.45
144.476
144.518
144.583
144.684
144.842
145.09
145.482
146.1
147.076
148.62
151.055
154.881
160.843
170.01
183.826
204.085
232.785
271.837
322.703
386.089
461.814
548.892
645.759
750.517
861.131
975.58
1091.93
1208.21
1322.35
1432.44
1536.68
1632.96
1718.73
1791.66
1850.5
1895.58
1928.51
1951.6
1967.31
1977.67
1984.48
1988.87
1991.52
1993.35
1995.14
144.431
144.447
144.471
144.507
144.564
144.65
144.784
144.99
145.31
145.807
146.582
147.789
149.669
152.59
157.104
164.014
174.435
189.82
211.905
242.536
283.388
335.658
399.822
475.567
561.897
657.339
760.154
868.489
980.506
1094.43
1208.53
1320.91
1429.76
1533.42
1630.12
1717.64
1793.67
1856.57
1906.01
1943.05
1969.57
1987.86
2000.09
2008.07
2013.2
2016.29
2017.92
2019.23
2020.27
2020.3
2019.9
144.503
144.555
144.633
144.752
144.932
145.208
145.631
146.279
147.274
148.802
151.148
154.733
160.176
168.348
180.415
197.833
222.259
255.36
298.555
352.752
418.187
494.411
580.405
674.777
775.93
882.191
991.889
1103.41
1215.2
1325.58
1432.84
1535.43
1631.79
1720.06
1798.08
1864.05
1917.15
1957.85
1987.66
2008.59
2022.81
2032.08
2038
2041.64
2043.53
2044.51
2045.41
2045.53
2044.96
2043.94
2042.61
2041.34
144.907
145.158
145.536
146.108
146.972
148.282
150.264
153.256
157.749
164.442
174.279
188.471
208.456
235.781
271.898
317.938
374.512
441.619
518.676
604.65
698.224
797.939
902.287
1009.76
1118.9
1228.29
1336.47
1441.85
1542.95
1638.39
1726.6
1805.64
1873.68
1929.61
1973.42
2006.22
2029.7
2045.85
2056.56
2063.38
2067.59
2069.84
2070.74
2071.24
2071.45
2070.9
2069.76
2068.24
2066.48
2064.77
2063.21
2061.9
146.829
148.01
149.773
152.398
156.292
162.031
170.398
182.408
199.3
222.456
253.262
292.918
342.243
401.55
470.617
548.752
634.917
727.877
826.308
928.855
1034.16
1140.92
1247.85
1353.66
1456.89
1556.16
1650.22
1737.7
1816.92
1886.12
1944.03
1990.3
2025.61
2051.4
2069.43
2081.58
2089.36
2094.1
2096.79
2097.86
2098.03
2098.01
2097.56
2096.37
2094.68
2092.68
2090.59
2088.52
2086.63
2084.89
2083.32
2081.97
155.553
160.712
168.152
178.744
193.556
213.812
240.785
275.647
319.302
372.251
434.528
505.72
585.056
671.517
763.959
861.185
961.989
1065.16
1169.51
1273.91
1377.19
1478.04
1575.19
1667.47
1753.68
1832.36
1901.9
1960.97
2008.97
2046.28
2074.03
2093.76
2107.21
2115.98
2121.29
2124.37
2125.7
2125.69
2125.38
2124.85
2123.65
2121.81
2119.68
2117.29
2114.87
2112.5
2110.31
2108.21
2106.27
2104.48
2102.87
2101.45
190.448
208.801
233.146
264.581
304.009
352.015
408.79
474.127
547.472
628.009
714.763
806.689
902.716
1001.77
1102.78
1204.69
1306.46
1407.07
1505.34
1600.09
1690.24
1774.72
1852.27
1921.43
1980.88
2029.91
2068.63
2097.9
2119.03
2133.67
2143.34
2149.23
2152.62
2154.23
2154.18
2153.62
2152.85
2151.61
2149.7
2147.38
2144.79
2142.02
2139.27
2136.64
2134.14
2131.73
2129.47
2127.33
2125.31
2123.44
2121.74
2120.21
295.134
339.503
392.044
452.676
521.003
596.381
677.995
764.935
856.259
951.022
1048.27
1147.06
1246.45
1345.5
1443.29
1538.78
1630.88
1718.59
1800.95
1876.85
1945
2004.15
2053.51
2093.01
2123.31
2145.54
2161.13
2171.54
2177.97
2181.66
2183.46
2183.46
2182.73
2181.63
2180.23
2178.26
2175.78
2173.02
2169.99
2166.91
2163.87
2160.95
2158.12
2155.41
2152.83
2150.35
2148
2145.77
2143.66
2141.68
2139.86
2138.21
504.649
575.728
652.886
735.341
822.267
912.83
1006.2
1101.54
1198
1294.75
1390.96
1485.79
1578.31
1667.51
1752.49
1832.38
1906.2
1972.8
2031.01
2080.05
2119.74
2150.58
2173.48
2189.74
2200.73
2207.6
2211.53
2213.41
2213.52
2212.66
2211.23
2209.55
2207.53
2204.9
2201.93
2198.7
2195.3
2191.91
2188.6
2185.39
2182.27
2179.26
2176.35
2173.55
2170.86
2168.29
2165.82
2163.47
2161.25
2159.14
2157.19
2155.4
886.928
976.505
1068.3
1161.56
1255.56
1349.53
1442.74
1534.45
1623.8
1709.88
1791.87
1868.97
1940.33
2004.89
2061.61
2109.75
2149.06
2179.9
2203.05
2219.69
2231.04
2238.17
2242.28
2244.23
2244.33
2243.37
2241.68
2239.68
2237.46
2234.69
2231.5
2228.1
2224.46
2220.74
2217.06
2213.47
2209.95
2206.54
2203.23
2200.02
2196.91
2193.9
2190.99
2188.18
2185.47
2182.88
2180.4
2178.03
2175.79
2173.69
2171.73
1228.28
1319.62
1410.65
1500.71
1589.11
1675.09
1757.83
1836.56
1910.59
1979.13
2041.25
2096.01
2142.7
2181.1
2211.44
2234.45
2251.12
2262.56
2269.8
2273.98
2275.91
2275.9
2274.89
2272.98
2270.58
2268.08
2265.23
2261.82
2258.18
2254.31
2250.27
2246.25
2242.31
2238.45
2234.65
2230.95
2227.34
2223.82
2220.4
2217.07
2213.84
2210.7
2207.66
2204.71
2201.87
2199.13
2196.5
2193.98
2191.57
2189.3
2187.15
1564.65
1649.57
1731.98
1811.14
1886.38
1957.06
2022.47
2081.78
2134.13
2178.92
2215.91
2245.31
2267.75
2284.11
2295.38
2302.56
2306.67
2308.45
2308.33
2307.2
2305.02
2302.29
2299.48
2296.4
2292.78
2288.88
2284.84
2280.55
2276.21
2271.91
2267.68
2263.51
2259.44
2255.47
2251.57
2247.76
2244.03
2240.39
2236.84
2233.37
2230
2226.72
2223.53
2220.44
2217.44
2214.55
2211.75
2209.05
2206.46
2203.98
2201.62
1941.04
2008.11
2070.12
2126.28
2175.85
2218.31
2253.47
2281.51
2303
2318.72
2329.56
2336.47
2340.35
2341.9
2341.62
2340.29
2337.86
2334.82
2331.63
2328.24
2324.51
2320.32
2316.01
2311.47
2306.81
2302.19
2297.64
2293.14
2288.7
2284.35
2280.08
2275.89
2271.79
2267.77
2263.83
2259.97
2256.19
2252.49
2248.88
2245.36
2241.93
2238.58
2235.32
2232.15
2229.08
2226.09
2223.2
2220.39
2217.7
2215.1
2174.47
2220.94
2260.72
2293.67
2319.97
2340.16
2354.95
2365.1
2371.55
2375.07
2376.26
2375.74
2374.13
2371.45
2368.08
2364.53
2360.82
2356.84
2352.4
2347.79
2343.08
2338.14
2333.19
2328.28
2323.44
2318.65
2313.95
2309.35
2304.8
2300.33
2295.93
2291.62
2287.38
2283.21
2279.13
2275.12
2271.19
2267.34
2263.57
2259.89
2256.28
2252.76
2249.32
2245.96
2242.69
2239.49
2236.37
2233.34
2230.39
2227.53
2336.3
2360.56
2379.17
2392.76
2401.98
2407.78
2410.8
2411.51
2410.7
2408.76
2405.76
2402.04
2398.15
2394.11
2389.8
2385.15
2380.26
2375.27
2370.08
2364.8
2359.59
2354.43
2349.32
2344.26
2339.3
2334.4
2329.58
2324.84
2320.16
2315.56
2311.03
2306.57
2302.18
2297.87
2293.63
2289.46
2285.37
2281.35
2277.41
2273.55
2269.76
2266.04
2262.4
2258.83
2255.33
2251.9
2248.54
2245.25
2242.03
2238.87
2431.99
2440.14
2445.12
2447.52
2447.62
2446.45
2444.12
2440.76
2436.71
2432.48
2428.05
2423.4
2418.56
2413.34
2408.03
2402.62
2397.06
2391.53
2386.05
2380.61
2375.22
2369.93
2364.7
2359.53
2354.44
2349.41
2344.46
2339.58
2334.76
2330.01
2325.33
2320.72
2316.17
2311.7
2307.3
2302.96
2298.7
2294.5
2290.37
2286.31
2282.32
2278.39
2274.53
2270.72
2266.98
2263.3
2259.67
2256.09
2252.57
2249.1
2485.04
2484.6
2482.97
2480.19
2476.41
2472.03
2467.42
2462.63
2457.65
2452.54
2447.04
2441.41
2435.76
2429.92
2424.05
2418.27
2412.53
2406.81
2401.18
2395.63
2390.13
2384.7
2379.35
2374.05
2368.83
2363.66
2358.56
2353.53
2348.57
2343.66
2338.82
2334.05
2329.34
2324.69
2320.11
2315.59
2311.14
2306.75
2302.42
2298.14
2293.93
2289.77
2285.66
2281.6
2277.59
2273.63
2269.71
2265.82
2261.99
2258.18
2516.85
2512.67
2507.95
2502.96
2497.81
2492.47
2487.01
2481.28
2475.36
2469.42
2463.33
2457.16
2451.06
2445.02
2438.99
2433.04
2427.17
2421.35
2415.59
2409.91
2404.29
2398.73
2393.24
2387.81
2382.43
2377.12
2371.87
2366.68
2361.56
2356.49
2351.48
2346.53
2341.65
2336.82
2332.04
2327.33
2322.67
2318.06
2313.51
2309
2304.55
2300.13
2295.76
2291.43
2287.13
2282.87
2278.63
2274.43
2270.25
2266.08
2539.01
2533.5
2527.83
2522.04
2516.04
2509.82
2503.56
2497.23
2490.78
2484.38
2478.06
2471.73
2465.46
2459.28
2453.15
2447.08
2441.08
2435.14
2429.26
2423.44
2417.68
2411.98
2406.34
2400.76
2395.23
2389.77
2384.36
2379
2373.71
2368.47
2363.28
2358.15
2353.07
2348.04
2343.06
2338.14
2333.25
2328.42
2323.62
2318.87
2314.15
2309.46
2304.81
2300.18
2295.57
2290.99
2286.42
2281.87
2277.33
2272.79
2551.25
2544.77
2538.2
2531.61
2524.89
2518.18
2511.57
2504.97
2498.39
2491.92
2485.49
2479.11
2472.8
2466.55
2460.36
2454.23
2448.16
2442.14
2436.18
2430.28
2424.43
2418.64
2412.9
2407.21
2401.58
2396
2390.47
2385
2379.57
2374.19
2368.86
2363.58
2358.34
2353.14
2347.98
2342.86
2337.78
2332.72
2327.7
2322.7
2317.72
2312.76
2307.82
2302.89
2297.97
2293.05
2288.13
2283.22
2278.29
2566.4
2559.44
2552.45
2545.55
2538.67
2531.81
2525.03
2518.32
2511.64
2505.04
2498.5
2492
2485.57
2479.2
2472.87
2466.61
2460.39
2454.23
2448.12
2442.07
2436.06
2430.11
2424.21
2418.35
2412.54
2406.78
2401.07
2395.4
2389.78
2384.2
2378.66
2373.15
2367.68
2362.25
2356.84
2351.47
2346.11
2340.78
2335.47
2330.18
2324.89
2319.61
2314.34
2309.06
2303.79
2298.5
2293.21
2287.9
2282.57
2579.92
2572.79
2565.66
2558.59
2551.61
2544.65
2537.75
2530.93
2524.14
2517.42
2510.75
2504.13
2497.56
2491.05
2484.59
2478.18
2471.82
2465.51
2459.24
2453.03
2446.86
2440.74
2434.66
2428.62
2422.63
2416.68
2410.77
2404.9
2399.07
2393.26
2387.5
2381.76
2376.04
2370.36
2364.69
2359.04
2353.41
2347.78
2342.17
2336.56
2330.95
2325.33
2319.71
2314.08
2308.43
2302.77
2297.08
2291.37
2285.62
2585.29
2578.07
2570.89
2563.79
2556.73
2549.72
2542.77
2535.87
2529.02
2522.22
2515.46
2508.76
2502.11
2495.5
2488.94
2482.42
2475.95
2469.52
2463.14
2456.8
2450.5
2444.23
2438.01
2431.82
2425.67
2419.55
2413.46
2407.4
2401.37
2395.36
2389.37
2383.4
2377.44
2371.5
2365.56
2359.63
2353.7
2347.77
2341.83
2335.88
2329.91
2323.93
2317.92
2311.89
2305.84
2299.74
2293.62
2287.44
2597.04
2589.72
2582.44
2575.22
2568.04
2560.91
2553.84
2546.81
2539.82
2532.88
2525.99
2519.14
2512.34
2505.58
2498.86
2492.18
2485.54
2478.94
2472.38
2465.86
2459.37
2452.91
2446.49
2440.09
2433.72
2427.38
2421.06
2414.77
2408.49
2402.22
2395.97
2389.73
2383.49
2377.25
2371.01
2364.77
2358.52
2352.25
2345.97
2339.66
2333.34
2326.98
2320.59
2314.17
2307.71
2301.2
2294.66
2288.07
2600.61
2593.21
2585.87
2578.57
2571.32
2564.11
2556.94
2549.82
2542.74
2535.7
2528.7
2521.74
2514.82
2507.93
2501.08
2494.27
2487.49
2480.74
2474.02
2467.33
2460.67
2454.03
2447.42
2440.83
2434.25
2427.69
2421.14
2414.6
2408.07
2401.54
2395.01
2388.47
2381.93
2375.38
2368.81
2362.22
2355.61
2348.97
2342.3
2335.6
2328.86
2322.07
2315.25
2308.4
2301.51
2294.56
2287.56
2610.71
2603.2
2595.73
2588.3
2580.92
2573.57
2566.26
2558.99
2551.76
2544.57
2537.41
2530.28
2523.19
2516.13
2509.1
2502.11
2495.13
2488.19
2481.27
2474.37
2467.49
2460.63
2453.78
2446.95
2440.13
2433.31
2426.5
2419.69
2412.88
2406.06
2399.23
2392.39
2385.53
2378.65
2371.74
2364.8
2357.84
2350.83
2343.78
2336.69
2329.58
2322.43
2315.22
2307.97
2300.68
2293.32
2285.88
2612.39
2604.79
2597.22
2589.7
2582.2
2574.75
2567.33
2559.94
2552.58
2545.25
2537.96
2530.69
2523.45
2516.23
2509.04
2501.87
2494.71
2487.58
2480.46
2473.35
2466.26
2459.17
2452.09
2445
2437.92
2430.84
2423.74
2416.64
2409.51
2402.38
2395.21
2388.02
2380.81
2373.55
2366.25
2358.92
2351.56
2344.16
2336.7
2329.21
2321.67
2314.07
2306.41
2298.69
2290.91
2283.04
2620.76
2613.02
2605.31
2597.64
2590
2582.39
2574.8
2567.25
2559.72
2552.22
2544.74
2537.29
2529.86
2522.44
2515.04
2507.66
2500.29
2492.93
2485.58
2478.24
2470.9
2463.56
2456.21
2448.86
2441.5
2434.13
2426.74
2419.33
2411.9
2404.44
2396.94
2389.41
2381.84
2374.25
2366.62
2358.93
2351.21
2343.44
2335.61
2327.72
2319.78
2311.77
2303.7
2295.56
2287.36
2279.07
2628.3
2620.41
2612.56
2604.73
2596.93
2589.16
2581.41
2573.68
2565.98
2558.29
2550.63
2542.98
2535.34
2527.72
2520.11
2512.51
2504.91
2497.32
2489.73
2482.13
2474.54
2466.93
2459.32
2451.69
2444.04
2436.37
2428.68
2420.95
2413.19
2405.4
2397.59
2389.73
2381.83
2373.89
2365.91
2357.87
2349.77
2341.61
2333.39
2325.1
2316.76
2308.35
2299.87
2291.32
2282.71
2274
2634.99
2626.96
2618.95
2610.96
2603
2595.05
2587.13
2579.22
2571.33
2563.45
2555.59
2547.73
2539.89
2532.05
2524.22
2516.38
2508.55
2500.72
2492.87
2485.02
2477.16
2469.28
2461.39
2453.47
2445.52
2437.54
2429.54
2421.51
2413.45
2405.34
2397.2
2389.01
2380.77
2372.47
2364.11
2355.69
2347.21
2338.67
2330.06
2321.39
2312.64
2303.83
2294.95
2286
2276.98
2267.86
2640.83
2632.64
2624.46
2616.31
2608.17
2600.05
2591.94
2583.84
2575.76
2567.68
2559.61
2551.54
2543.48
2535.42
2527.35
2519.28
2511.21
2503.12
2495.02
2486.9
2478.76
2470.59
2462.41
2454.2
2445.97
2437.7
2429.39
2421.06
2412.67
2404.24
2395.75
2387.21
2378.61
2369.94
2361.22
2352.43
2343.57
2334.65
2325.66
2316.59
2307.46
2298.26
2288.98
2279.63
2270.21
2260.69
2645.79
2637.43
2629.09
2620.76
2612.44
2604.13
2595.84
2587.54
2579.25
2570.97
2562.68
2554.4
2546.11
2537.81
2529.5
2521.19
2512.86
2504.5
2496.13
2487.74
2479.34
2470.91
2462.44
2453.94
2445.42
2436.85
2428.23
2419.56
2410.84
2402.06
2393.23
2384.33
2375.38
2366.35
2357.26
2348.11
2338.88
2329.57
2320.2
2310.76
2301.24
2291.65
2281.99
2272.25
2262.44
2252.52
2649.86
2641.33
2632.82
2624.3
2615.8
2607.3
2598.8
2590.3
2581.8
2573.3
2564.79
2556.28
2547.75
2539.21
2530.66
2522.08
2513.51
2504.9
2496.27
2487.62
2478.94
2470.23
2461.48
2452.68
2443.83
2434.94
2426
2417
2407.95
2398.84
2389.66
2380.41
2371.1
2361.72
2352.27
2342.74
2333.14
2323.47
2313.72
2303.9
2294.01
2284.04
2274
2263.88
2253.69
2243.39
2644.33
2635.62
2626.92
2618.22
2609.52
2600.82
2592.11
2583.39
2574.66
2565.92
2557.17
2548.42
2539.64
2530.85
2522.03
2513.2
2504.34
2495.44
2486.51
2477.54
2468.53
2459.48
2450.37
2441.22
2432.01
2422.74
2413.42
2404.03
2394.57
2385.05
2375.46
2365.8
2356.06
2346.25
2336.37
2326.41
2316.37
2306.25
2296.06
2285.8
2275.46
2265.05
2254.56
2244.01
2233.35
2646.4
2637.5
2628.6
2619.7
2610.79
2601.87
2592.94
2584.01
2575.07
2566.11
2557.13
2548.14
2539.13
2530.09
2521.02
2511.91
2502.77
2493.6
2484.38
2475.12
2465.81
2456.46
2447.05
2437.58
2428.05
2418.46
2408.81
2399.09
2389.3
2379.44
2369.51
2359.5
2349.41
2339.25
2329.01
2318.69
2308.29
2297.82
2287.27
2276.65
2265.96
2255.19
2244.36
2233.45
2222.44
2647.53
2638.43
2629.34
2620.24
2611.13
2602
2592.86
2583.71
2574.55
2565.36
2556.15
2546.91
2537.64
2528.33
2519
2509.62
2500.21
2490.75
2481.25
2471.7
2462.09
2452.43
2442.72
2432.94
2423.1
2413.19
2403.21
2393.16
2383.04
2372.84
2362.57
2352.22
2341.79
2331.28
2320.69
2310.03
2299.28
2288.47
2277.57
2266.61
2255.57
2244.47
2233.29
2222.05
2210.69
2638.46
2629.17
2619.86
2610.55
2601.21
2591.85
2582.47
2573.07
2563.64
2554.18
2544.69
2535.16
2525.6
2515.99
2506.35
2496.66
2486.92
2477.13
2467.29
2457.39
2447.43
2437.4
2427.32
2417.16
2406.93
2396.64
2386.26
2375.81
2365.29
2354.68
2344
2333.23
2322.39
2311.46
2300.46
2289.38
2278.23
2267.01
2255.71
2244.34
2232.91
2221.41
2209.83
2198.15
2637.58
2628.08
2618.56
2609.02
2599.46
2589.88
2580.26
2570.62
2560.94
2551.24
2541.49
2531.71
2521.88
2512.01
2502.1
2492.13
2482.11
2472.03
2461.9
2451.71
2441.45
2431.12
2420.73
2410.26
2399.73
2389.11
2378.42
2367.65
2356.8
2345.87
2334.86
2323.77
2312.6
2301.35
2290.03
2278.63
2267.15
2255.61
2243.99
2232.3
2220.55
2208.73
2196.84
2184.85
2635.75
2626.04
2616.3
2606.54
2596.75
2586.94
2577.09
2567.21
2557.29
2547.33
2537.33
2527.29
2517.2
2507.07
2496.88
2486.64
2476.34
2465.98
2455.56
2445.08
2434.52
2423.9
2413.2
2402.43
2391.59
2380.66
2369.66
2358.58
2347.41
2336.17
2324.85
2313.45
2301.96
2290.4
2278.76
2267.05
2255.26
2243.41
2231.48
2219.49
2207.43
2195.31
2183.12
2170.83
2632.98
2623.05
2613.1
2603.11
2593.1
2583.05
2572.97
2562.84
2552.68
2542.48
2532.22
2521.93
2511.58
2501.18
2490.72
2480.21
2469.63
2458.99
2448.29
2437.51
2426.67
2415.75
2404.76
2393.7
2382.55
2371.33
2360.02
2348.64
2337.17
2325.63
2314
2302.29
2290.51
2278.64
2266.7
2254.68
2242.6
2230.44
2218.22
2205.93
2193.58
2181.17
2168.7
2156.13
2619.13
2608.95
2598.75
2588.5
2578.22
2567.9
2557.54
2547.13
2536.68
2526.18
2515.63
2505.02
2494.35
2483.63
2472.85
2462
2451.08
2440.1
2429.05
2417.92
2406.72
2395.44
2384.09
2372.65
2361.14
2349.54
2337.87
2326.11
2314.26
2302.34
2290.34
2278.26
2266.1
2253.87
2241.56
2229.19
2216.75
2204.24
2191.68
2179.06
2166.38
2153.64
2140.8
2614.27
2603.88
2593.45
2582.98
2572.47
2561.91
2551.31
2540.66
2529.96
2519.21
2508.41
2497.54
2486.62
2475.64
2464.59
2453.47
2442.29
2431.04
2419.71
2408.31
2396.83
2385.27
2373.64
2361.92
2350.12
2338.24
2326.28
2314.24
2302.11
2289.9
2277.62
2265.26
2252.82
2240.31
2227.73
2215.08
2202.37
2189.6
2176.77
2163.89
2150.95
2137.96
2124.87
2608.5
2597.89
2587.23
2576.54
2565.79
2555.01
2544.17
2533.28
2522.34
2511.35
2500.29
2489.18
2478.01
2466.77
2455.46
2444.09
2432.64
2421.12
2409.53
2397.86
2386.11
2374.28
2362.38
2350.39
2338.31
2326.16
2313.92
2301.6
2289.2
2276.72
2264.17
2251.53
2238.83
2226.05
2213.21
2200.31
2187.34
2174.32
2161.25
2148.12
2134.94
2121.71
2108.39
2590.99
2580.11
2569.19
2558.23
2547.21
2536.14
2525.02
2513.85
2502.61
2491.32
2479.96
2468.54
2457.05
2445.49
2433.86
2422.16
2410.38
2398.53
2386.6
2374.59
2362.5
2350.33
2338.07
2325.73
2313.31
2300.81
2288.23
2275.57
2262.83
2250.02
2237.13
2224.17
2211.15
2198.06
2184.91
2171.71
2158.45
2145.14
2131.79
2118.39
2104.93
2091.39
2583.21
2572.12
2560.98
2549.79
2538.55
2527.26
2515.91
2504.5
2493.03
2481.5
2469.9
2458.23
2446.5
2434.7
2422.82
2410.87
2398.85
2386.74
2374.56
2362.29
2349.95
2337.52
2325.01
2312.42
2299.75
2287
2274.17
2261.26
2248.27
2235.21
2222.09
2208.89
2195.63
2182.31
2168.93
2155.5
2142.02
2128.5
2114.93
2101.32
2087.65
2073.91
2574.57
2563.27
2551.91
2540.51
2529.04
2517.53
2505.95
2494.31