/*--------------------------------*- C++ -*----------------------------------*\
| =========                 |                                                 |
| \\      /  F ield         | OpenFOAM: The Open Source CFD Toolbox           |
|  \\    /   O peration     | Version:  v1706                                 |
|   \\  /    A nd           | Web:      www.OpenFOAM.com                      |
|    \\/     M anipulation  |                                                 |
\*---------------------------------------------------------------------------*/
FoamFile
{
    version     2.0;
    format      ascii;
    class       volScalarField;
    location    "9e-06";
    object      Tv;
}
// * * * * * * * * * * * * * * * * * * * * * * * * * * * * * * * * * * * * * //

dimensions      [0 0 0 1 0 0 0];


internalField   nonuniform List<scalar> 
30038
(
144.4
144.4
144.4
144.4
144.4
144.4
144.4
144.4
144.4
144.4
144.4
144.4
144.4
144.4
144.4
144.4
144.4
144.4
144.4
144.4
144.4
144.4
144.4
144.4
144.4
144.4
144.4
144.4
144.4
144.4
144.4
144.4
144.4
144.4
144.4
144.4
144.4
144.4
144.4
144.4
144.4
144.4
144.4
144.4
144.4
144.4
144.4
144.4
144.4
144.4
144.4
144.4
144.4
144.4
144.4
144.4
144.4
144.4
144.4
144.4
144.4
144.4
144.4
144.4
144.4
144.4
144.4
144.4
144.4
144.4
144.4
144.4
144.4
144.4
144.4
144.4
144.4
144.4
144.4
144.4
144.4
144.4
144.4
144.4
144.4
144.4
144.4
144.4
144.4
144.4
144.4
144.4
144.4
144.4
144.4
144.4
144.4
144.4
144.4
144.4
144.4
144.4
144.4
144.4
144.4
144.4
144.4
144.4
144.4
144.4
144.4
144.4
144.4
144.4
144.4
144.4
144.4
144.4
144.4
144.4
144.4
144.4
144.4
144.4
144.4
144.4
144.4
144.4
144.4
144.4
144.4
144.4
144.4
144.4
144.4
144.4
144.4
144.4
144.4
144.4
144.4
144.4
144.4
144.4
144.4
144.4
144.4
144.4
144.4
144.4
144.4
144.4
144.4
144.4
144.4
144.4
144.4
144.4
144.4
144.4
144.4
144.4
144.4
144.4
144.4
144.4
144.4
144.4
144.4
144.4
144.4
144.4
144.4
144.4
144.4
144.4
144.4
144.4
144.4
144.4
144.4
144.4
144.4
144.4
144.4
144.4
144.4
144.4
144.4
144.4
144.4
144.4
144.4
144.4
144.4
144.4
144.4
144.4
144.4
144.4
144.4
144.4
144.4
144.4
144.4
144.4
144.4
144.4
144.4
144.4
144.4
144.4
144.4
144.4
144.4
144.4
144.4
144.4
144.4
144.4
144.4
144.4
144.4
144.4
144.4
144.4
144.4
144.4
144.4
144.4
144.4
144.4
144.4
144.4
144.4
144.4
144.4
144.4
144.4
144.4
144.4
144.4
144.4
144.4
144.4
144.4
144.4
144.4
144.4
144.4
144.4
144.4
144.4
144.4
144.4
144.4
144.4
144.4
144.4
144.4
144.4
144.4
144.4
144.4
144.4
144.4
144.4
144.4
144.4
144.4
144.4
144.4
144.4
144.4
144.4
144.4
144.4
144.4
144.4
144.4
144.4
144.4
144.4
144.4
144.4
144.4
144.4
144.4
144.4
144.4
144.4
144.4
144.4
144.4
144.4
144.4
144.4
144.4
144.4
144.4
144.4
144.4
144.4
144.4
144.4
144.4
144.4
144.4
144.4
144.4
144.4
144.4
144.4
144.4
144.4
144.4
144.4
144.4
144.4
144.4
144.4
144.4
144.4
144.4
144.4
144.4
144.4
144.4
144.4
144.4
144.4
144.4
144.4
144.4
144.4
144.4
144.4
144.4
144.4
144.4
144.4
144.4
144.4
144.4
144.4
144.4
144.4
144.4
144.4
144.4
144.4
144.4
144.4
144.4
144.4
144.4
144.4
144.4
144.4
144.4
144.4
144.4
144.4
144.4
144.4
144.4
144.4
144.4
144.4
144.4
144.4
144.4
144.4
144.4
144.4
144.4
144.4
144.4
144.4
144.4
144.4
144.4
144.4
144.4
144.4
144.4
144.4
144.4
144.4
144.4
144.4
144.4
144.4
144.4
144.4
144.4
144.4
144.4
144.4
144.4
144.4
144.4
144.4
144.4
144.4
144.4
144.4
144.4
144.4
144.4
144.4
144.4
144.4
144.4
144.4
144.4
144.4
144.4
144.4
144.4
144.4
144.4
144.4
144.4
144.4
144.4
144.4
144.4
144.4
144.4
144.4
144.4
144.4
144.4
144.4
144.4
144.4
144.4
144.4
144.4
144.4
144.4
144.4
144.4
144.4
144.4
144.4
144.4
144.4
144.4
144.4
144.4
144.4
144.4
144.4
144.4
144.4
144.4
144.4
144.4
144.4
144.4
144.4
144.4
144.4
144.4
144.4
144.4
144.4
144.4
144.4
144.4
144.4
144.4
144.4
144.4
144.4
144.4
144.4
144.4
144.4
144.4
144.4
144.4
144.4
144.4
144.4
144.4
144.4
144.4
144.4
144.4
144.4
144.4
144.4
144.4
144.4
144.4
144.4
144.4
144.4
144.4
144.4
144.4
144.4
144.4
144.4
144.4
144.4
144.4
144.4
144.4
144.4
144.4
144.4
144.4
144.4
144.4
144.4
144.4
144.4
144.4
144.4
144.4
144.4
144.4
144.4
144.4
144.4
144.4
144.4
144.4
144.4
144.4
144.4
144.4
144.4
144.4
144.4
144.4
144.4
144.4
144.4
144.4
144.4
144.4
144.4
144.4
144.4
144.4
144.4
144.4
144.4
144.4
144.4
144.4
144.4
144.4
144.4
144.4
144.4
144.4
144.4
144.4
144.4
144.4
144.4
144.4
144.4
144.4
144.4
144.4
144.4
144.4
144.4
144.4
144.4
144.4
144.4
144.4
144.4
144.4
144.4
144.4
144.4
144.4
144.4
144.4
144.4
144.4
144.4
144.4
144.4
144.4
144.4
144.4
144.4
144.4
144.4
144.4
144.4
144.4
144.4
144.4
144.4
144.4
144.4
144.4
144.4
144.4
144.4
144.4
144.4
144.4
144.4
144.4
144.4
144.4
144.4
144.4
144.4
144.4
144.4
144.4
144.4
144.4
144.4
144.4
144.4
144.4
144.4
144.4
144.4
144.4
144.4
144.4
144.4
144.4
144.4
144.4
144.4
144.4
144.4
144.4
144.4
144.4
144.4
144.4
144.4
144.4
144.4
144.4
144.4
144.4
144.4
144.4
144.4
144.4
144.4
144.4
144.4
144.4
144.4
144.4
144.4
144.4
144.4
144.4
144.4
144.4
144.4
144.4
144.4
144.4
144.4
144.4
144.4
144.4
144.4
144.4
144.4
144.4
144.4
144.4
144.4
144.4
144.4
144.4
144.4
144.4
144.4
144.4
144.4
144.4
144.4
144.4
144.4
144.4
144.4
144.4
144.4
144.4
144.4
144.4
144.4
144.4
144.4
144.4
144.4
144.4
144.4
144.4
144.4
144.4
144.4
144.4
144.4
144.4
144.4
144.4
144.4
144.4
144.4
144.4
144.4
144.4
144.4
144.4
144.4
144.4
144.4
144.4
144.4
144.4
144.4
144.4
144.4
144.4
144.4
144.4
144.4
144.4
144.4
144.4
144.4
144.4
144.4
144.4
144.4
144.4
144.4
144.4
144.4
144.4
144.4
144.4
144.4
144.4
144.4
144.4
144.4
144.4
144.4
144.4
144.4
144.4
144.4
144.4
144.4
144.4
144.4
144.4
144.4
144.4
144.4
144.4
144.4
144.4
144.4
144.4
144.4
144.4
144.4
144.4
144.4
144.4
144.4
144.4
144.4
144.4
144.4
144.4
144.4
144.4
144.4
144.4
144.4
144.4
144.4
144.4
144.4
144.4
144.4
144.4
144.4
144.4
144.4
144.4
144.4
144.4
144.4
144.4
144.4
144.4
144.4
144.4
144.4
144.4
144.4
144.4
144.4
144.4
144.4
144.4
144.4
144.4
144.4
144.4
144.4
144.4
144.4
144.4
144.4
144.4
144.4
144.4
144.4
144.4
144.4
144.4
144.4
144.4
144.4
144.4
144.4
144.4
144.4
144.4
144.4
144.4
144.4
144.4
144.4
144.4
144.4
144.4
144.4
144.4
144.4
144.4
144.4
144.4
144.4
144.4
144.4
144.4
144.4
144.4
144.4
144.4
144.4
144.4
144.4
144.4
144.4
144.4
144.4
144.4
144.4
144.4
144.4
144.4
144.4
144.4
144.4
144.4
144.4
144.4
144.4
144.4
144.4
144.4
144.4
144.4
144.4
144.4
144.4
144.4
144.4
144.4
144.4
144.4
144.4
144.4
144.4
144.4
144.4
144.4
144.4
144.4
144.4
144.4
144.4
144.4
144.4
144.4
144.4
144.4
144.4
144.4
144.4
144.4
144.4
144.4
144.4
144.4
144.4
144.4
144.4
144.4
144.4
144.4
144.4
144.4
144.4
144.4
144.4
144.4
144.4
144.4
144.4
144.4
144.4
144.4
144.4
144.4
144.4
144.4
144.4
144.4
144.4
144.4
144.4
144.4
144.4
144.4
144.4
144.4
144.4
144.4
144.4
144.4
144.4
144.4
144.4
144.4
144.4
144.4
144.4
144.4
144.4
144.4
144.4
144.4
144.4
144.4
144.4
144.4
144.4
144.4
144.4
144.4
144.4
144.4
144.4
144.4
144.4
144.4
144.4
144.4
144.4
144.4
144.4
144.4
144.4
144.4
144.4
144.4
144.4
144.4
144.4
144.4
144.4
144.4
144.4
144.4
144.4
144.4
144.4
144.4
144.4
144.4
144.4
144.4
144.4
144.4
144.4
144.4
144.4
144.4
144.4
144.4
144.4
144.4
144.4
144.4
144.4
144.4
144.4
144.4
144.4
144.4
144.4
144.4
144.4
144.4
144.4
144.4
144.4
144.4
144.4
144.4
144.4
144.4
144.4
144.4
144.4
144.4
144.4
144.4
144.4
144.4
144.4
144.4
144.4
144.4
144.4
144.4
144.4
144.4
144.4
144.4
144.4
144.4
144.4
144.4
144.4
144.4
144.4
144.4
144.4
144.4
144.4
144.4
144.4
144.4
144.4
144.4
144.4
144.4
144.4
144.4
144.4
144.4
144.4
144.4
144.4
144.4
144.4
144.4
144.4
144.4
144.4
144.4
144.4
144.4
144.4
144.4
144.4
144.4
144.4
144.4
144.4
144.4
144.4
144.4
144.4
144.4
144.4
144.4
144.4
144.4
144.4
144.4
144.4
144.4
144.4
144.4
144.4
144.4
144.4
144.4
144.4
144.4
144.4
144.4
144.4
144.4
144.4
144.4
144.4
144.4
144.4
144.4
144.4
144.4
144.4
144.4
144.4
144.4
144.4
144.401
144.4
144.4
144.4
144.4
144.4
144.4
144.4
144.4
144.4
144.4
144.4
144.4
144.4
144.4
144.4
144.4
144.4
144.4
144.4
144.4
144.4
144.4
144.4
144.4
144.4
144.4
144.4
144.4
144.4
144.4
144.4
144.4
144.4
144.4
144.4
144.4
144.4
144.4
144.4
144.4
144.4
144.4
144.4
144.4
144.4
144.4
144.401
144.402
144.404
144.41
144.4
144.4
144.4
144.4
144.4
144.4
144.4
144.4
144.4
144.4
144.4
144.4
144.4
144.4
144.4
144.4
144.4
144.4
144.4
144.4
144.4
144.4
144.4
144.4
144.4
144.4
144.4
144.4
144.4
144.4
144.4
144.4
144.4
144.4
144.4
144.4
144.4
144.4
144.4
144.4
144.4
144.4
144.4
144.401
144.402
144.404
144.408
144.418
144.439
144.496
144.4
144.4
144.4
144.4
144.4
144.4
144.4
144.4
144.4
144.4
144.4
144.4
144.4
144.4
144.4
144.4
144.4
144.4
144.4
144.4
144.4
144.4
144.4
144.4
144.4
144.4
144.4
144.4
144.4
144.4
144.4
144.4
144.4
144.4
144.4
144.4
144.4
144.4
144.4
144.4
144.401
144.402
144.404
144.408
144.417
144.436
144.479
144.57
144.771
145.269
144.4
144.4
144.4
144.4
144.4
144.4
144.4
144.4
144.4
144.4
144.4
144.4
144.4
144.4
144.4
144.4
144.4
144.4
144.4
144.4
144.4
144.4
144.4
144.4
144.4
144.4
144.4
144.4
144.4
144.4
144.4
144.4
144.4
144.4
144.4
144.4
144.4
144.401
144.402
144.404
144.408
144.417
144.436
144.477
144.563
144.743
145.118
145.87
147.303
149.993
144.4
144.4
144.4
144.4
144.4
144.4
144.4
144.4
144.4
144.4
144.4
144.4
144.4
144.4
144.4
144.4
144.4
144.4
144.4
144.4
144.4
144.4
144.4
144.4
144.4
144.4
144.4
144.4
144.4
144.4
144.4
144.4
144.4
144.401
144.401
144.402
144.404
144.409
144.418
144.438
144.479
144.563
144.739
145.095
145.799
147.099
149.277
152.511
156.82
162.386
144.4
144.4
144.4
144.4
144.4
144.4
144.4
144.4
144.4
144.4
144.4
144.4
144.4
144.4
144.4
144.4
144.4
144.4
144.4
144.4
144.4
144.4
144.4
144.4
144.4
144.4
144.4
144.4
144.4
144.4
144.401
144.401
144.402
144.405
144.41
144.42
144.441
144.484
144.571
144.747
145.101
145.785
147.035
149.111
152.18
156.228
161.114
166.683
172.839
179.711
144.4
144.4
144.4
144.4
144.4
144.4
144.4
144.4
144.4
144.4
144.4
144.4
144.4
144.4
144.4
144.4
144.4
144.4
144.4
144.4
144.4
144.4
144.4
144.4
144.4
144.4
144.4
144.401
144.402
144.403
144.406
144.412
144.423
144.446
144.492
144.585
144.77
145.133
145.823
147.06
149.089
152.064
155.977
160.695
166.067
171.964
178.277
184.893
191.708
198.695
144.4
144.4
144.4
144.4
144.4
144.4
144.4
144.4
144.4
144.4
144.4
144.4
144.4
144.4
144.4
144.4
144.4
144.4
144.4
144.4
144.4
144.4
144.4
144.401
144.401
144.402
144.404
144.407
144.414
144.428
144.454
144.506
144.608
144.809
145.195
145.913
147.174
149.203
152.138
155.964
160.561
165.787
171.523
177.666
184.107
190.721
197.371
203.927
210.303
216.477
144.4
144.4
144.4
144.4
144.4
144.4
144.4
144.4
144.4
144.4
144.4
144.4
144.4
144.4
144.4
144.4
144.4
144.4
144.4
144.4
144.401
144.401
144.403
144.405
144.409
144.418
144.434
144.465
144.526
144.644
144.869
145.293
146.064
147.384
149.457
152.399
156.183
160.696
165.807
171.409
177.407
183.704
190.183
196.715
203.168
209.434
215.437
221.144
226.568
231.751
144.4
144.4
144.4
144.4
144.4
144.4
144.4
144.4
144.4
144.4
144.4
144.4
144.4
144.4
144.4
144.4
144.401
144.401
144.402
144.404
144.407
144.412
144.423
144.443
144.482
144.556
144.695
144.956
145.437
146.289
147.704
149.864
152.854
156.635
161.097
166.122
171.613
177.485
183.649
190
196.417
202.775
208.967
214.913
220.571
225.927
230.994
235.8
240.397
244.838
144.4
144.4
144.4
144.4
144.4
144.4
144.4
144.4
144.4
144.4
144.4
144.4
144.4
144.401
144.402
144.403
144.405
144.409
144.417
144.431
144.457
144.507
144.599
144.77
145.083
145.645
146.608
148.157
150.443
153.518
157.328
161.767
166.73
172.131
177.894
183.939
190.167
196.466
202.721
208.826
214.705
220.312
225.628
230.66
235.426
239.956
244.281
248.433
252.462
256.428
144.4
144.4
144.4
144.4
144.4
144.4
144.4
144.4
144.4
144.401
144.401
144.402
144.404
144.407
144.413
144.424
144.443
144.479
144.544
144.663
144.879
145.266
145.938
147.052
148.775
151.222
154.411
158.276
162.715
167.636
172.966
178.636
184.571
190.682
196.864
203.007
209.014
214.81
220.348
225.608
230.594
235.321
239.813
244.1
248.207
252.163
255.993
259.722
263.388
267.062
144.4
144.4
144.4
144.4
144.4
144.401
144.401
144.402
144.404
144.406
144.411
144.42
144.435
144.463
144.512
144.601
144.76
145.041
145.531
146.353
147.66
149.595
152.233
155.559
159.496
163.952
168.848
174.122
179.711
185.548
191.546
197.609
203.635
209.533
215.23
220.683
225.872
230.796
235.469
239.913
244.155
248.219
252.131
255.914
259.591
263.18
266.696
270.153
273.568
277.016
144.4
144.401
144.401
144.402
144.403
144.406
144.41
144.418
144.43
144.453
144.493
144.564
144.689
144.907
145.283
145.916
146.935
148.483
150.666
153.516
156.99
161.009
165.494
170.378
175.607
181.127
186.871
192.761
198.704
204.607
210.384
215.97
221.323
226.423
231.27
235.876
240.259
244.445
248.456
252.318
256.052
259.678
263.214
266.677
270.077
273.421
276.71
279.944
283.13
286.34
144.403
144.406
144.41
144.417
144.428
144.449
144.484
144.544
144.649
144.829
145.136
145.649
146.476
147.748
149.58
152.036
155.107
158.732
162.838
167.358
172.239
177.433
182.89
188.548
194.33
200.15
205.922
211.569
217.03
222.267
227.264
232.02
236.544
240.854
244.972
248.922
252.726
256.403
259.974
263.455
266.862
270.207
273.496
276.733
279.916
283.043
286.109
289.113
292.065
295.038
144.417
144.428
144.448
144.481
144.536
144.63
144.789
145.056
145.495
146.201
147.287
148.867
151.018
153.757
157.044
160.816
165.007
169.566
174.448
179.612
185.01
190.583
196.256
201.949
207.582
213.087
218.41
223.519
228.398
233.047
237.475
241.701
245.742
249.62
253.357
256.971
260.481
263.902
267.25
270.536
273.767
276.949
280.081
283.159
286.18
289.14
292.039
294.878
297.661
300.4
303.164
144.537
144.628
144.777
145.024
145.425
146.06
147.031
148.442
150.375
152.859
155.872
159.362
163.268
167.539
172.136
177.021
182.157
187.498
192.982
198.541
204.099
209.585
214.936
220.109
225.075
229.823
234.352
238.673
242.801
246.754
250.551
254.213
257.757
261.199
264.556
267.841
271.064
274.236
277.359
280.435
283.461
286.434
289.349
292.205
295.001
297.74
300.423
303.059
305.648
308.205
310.789
145.035
145.422
146.027
146.938
148.252
150.044
152.349
155.155
158.419
162.088
166.113
170.458
175.089
179.977
185.083
190.36
195.751
201.187
206.6
211.926
217.114
222.124
226.935
231.538
235.935
240.136
244.156
248.01
251.718
255.296
258.762
262.132
265.419
268.636
271.794
274.901
277.962
280.979
283.951
286.872
289.739
292.549
295.3
297.994
300.633
303.223
305.765
308.263
310.723
313.149
315.55
317.979
148.27
149.99
152.186
154.85
157.946
161.426
165.248
169.377
173.785
178.446
183.33
188.399
193.605
198.89
204.192
209.447
214.602
219.612
224.447
229.091
233.538
237.792
241.863
245.764
249.511
253.12
256.608
259.99
263.28
266.492
269.637
272.725
275.764
278.761
281.715
284.628
287.494
290.309
293.07
295.774
298.423
301.016
303.558
306.053
308.504
310.915
313.29
315.631
317.942
320.225
322.489
324.783
157.914
161.254
164.914
168.865
173.082
177.544
182.225
187.095
192.115
197.234
202.398
207.549
212.632
217.602
222.422
227.071
231.537
235.818
239.919
243.85
247.623
251.254
254.757
258.147
261.438
264.644
267.775
270.844
273.858
276.827
279.755
282.644
285.493
288.301
291.061
293.77
296.425
299.025
301.57
304.064
306.511
308.914
311.275
313.599
315.89
318.15
320.381
322.586
324.766
326.924
329.068
331.239
172.961
177.25
181.751
186.439
191.279
196.23
201.244
206.267
211.249
216.143
220.913
225.532
229.984
234.263
238.369
242.308
246.091
249.73
253.237
256.628
259.913
263.108
266.223
269.27
272.258
275.195
278.09
280.946
283.766
286.549
289.294
291.996
294.65
297.252
299.801
302.297
304.742
307.138
309.491
311.802
314.076
316.315
318.524
320.703
322.856
324.985
327.09
329.175
331.239
333.284
335.317
337.376
191.095
195.882
200.74
205.622
210.48
215.273
219.961
224.518
228.925
233.172
237.256
241.18
244.952
248.581
252.078
255.457
258.728
261.905
264.998
268.018
270.976
273.879
276.736
279.553
282.334
285.082
287.797
290.476
293.116
295.71
298.257
300.752
303.195
305.589
307.934
310.235
312.495
314.717
316.904
319.06
321.188
323.288
325.364
327.418
329.45
331.463
333.457
335.432
337.389
339.33
341.259
343.211
210.347
215.017
219.599
224.066
228.399
232.585
236.619
240.503
244.24
247.839
251.31
254.662
257.907
261.055
264.118
267.105
270.027
272.892
275.708
278.48
281.217
283.921
286.594
289.237
291.848
294.421
296.954
299.441
301.879
304.267
306.607
308.899
311.147
313.354
315.522
317.657
319.76
321.834
323.881
325.903
327.904
329.884
331.844
333.786
335.71
337.618
339.509
341.383
343.241
345.082
346.912
348.761
228.432
232.53
236.489
240.307
243.987
247.535
250.959
254.268
257.472
260.58
263.603
266.549
269.428
272.248
275.017
277.742
280.428
283.081
285.705
288.301
290.87
293.409
295.914
298.381
300.805
303.183
305.514
307.797
310.034
312.226
314.378
316.493
318.572
320.621
322.64
324.633
326.602
328.548
330.474
332.381
334.27
336.142
337.998
339.839
341.664
343.474
345.268
347.046
348.808
350.553
352.287
354.036
247.693
251.051
254.299
257.446
260.5
263.47
266.365
269.192
271.96
274.676
277.347
279.979
282.577
285.145
287.687
290.204
292.696
295.16
297.594
299.992
302.351
304.666
306.936
309.16
311.339
313.474
315.569
317.627
319.651
321.643
323.607
325.544
327.458
329.349
331.22
333.072
334.907
336.726
338.53
340.318
342.093
343.853
345.599
347.33
349.047
350.749
352.434
354.103
355.755
357.394
359.044
260.832
263.736
266.568
269.334
272.042
274.698
277.309
279.88
282.418
284.925
287.407
289.865
292.301
294.714
297.102
299.462
301.789
304.079
306.328
308.534
310.696
312.814
314.89
316.926
318.926
320.892
322.827
324.734
326.614
328.471
330.306
332.122
333.919
335.698
337.463
339.212
340.947
342.67
344.378
346.074
347.757
349.427
351.083
352.724
354.351
355.963
357.557
359.135
360.695
362.24
363.793
272.504
275.091
277.635
280.14
282.612
285.054
287.47
289.864
292.237
294.59
296.923
299.233
301.517
303.771
305.989
308.17
310.309
312.406
314.461
316.475
318.451
320.39
322.297
324.173
326.021
327.843
329.642
331.42
333.178
334.918
336.642
338.351
340.045
341.726
343.394
345.051
346.695
348.327
349.947
351.556
353.151
354.734
356.303
357.857
359.396
360.919
362.424
363.912
365.38
366.833
368.289
285.538
287.884
290.208
292.513
294.801
297.071
299.322
301.552
303.758
305.936
308.081
310.19
312.26
314.29
316.279
318.229
320.141
322.019
323.864
325.679
327.467
329.23
330.97
332.69
334.39
336.072
337.739
339.39
341.028
342.654
344.267
345.869
347.46
349.04
350.61
352.168
353.715
355.251
356.775
358.286
359.784
361.268
362.737
364.189
365.625
367.042
368.439
369.817
371.178
372.539
295.352
297.553
299.739
301.908
304.057
306.183
308.284
310.353
312.388
314.386
316.346
318.268
320.151
321.998
323.812
325.594
327.347
329.073
330.775
332.455
334.114
335.755
337.379
338.987
340.581
342.161
343.73
345.287
346.834
348.371
349.897
351.414
352.921
354.418
355.905
357.382
358.847
360.301
361.743
363.172
364.586
365.986
367.37
368.737
370.086
371.416
372.724
374.012
375.281
376.547
304.677
306.744
308.79
310.811
312.802
314.761
316.686
318.574
320.425
322.24
324.02
325.768
327.485
329.174
330.838
332.477
334.095
335.693
337.273
338.837
340.386
341.921
343.444
344.955
346.455
347.945
349.426
350.898
352.361
353.815
355.26
356.697
358.124
359.542
360.949
362.347
363.732
365.106
366.467
367.815
369.148
370.465
371.765
373.047
374.309
375.552
376.772
377.971
379.149
380.32
313.514
315.427
317.308
319.157
320.971
322.749
324.494
326.205
327.885
329.536
331.16
332.758
334.335
335.89
337.426
338.945
340.447
341.936
343.411
344.874
346.327
347.769
349.202
350.626
352.042
353.449
354.849
356.242
357.626
359.002
360.37
361.73
363.08
364.421
365.751
367.071
368.379
369.674
370.955
372.222
373.474
374.708
375.925
377.123
378.3
379.456
380.589
381.698
382.786
383.864
321.796
323.533
325.238
326.911
328.551
330.161
331.745
333.301
334.834
336.346
337.837
339.31
340.766
342.207
343.635
345.049
346.452
347.845
349.229
350.603
351.97
353.329
354.68
356.025
357.362
358.693
360.017
361.334
362.643
363.945
365.238
366.523
367.799
369.064
370.319
371.562
372.792
374.01
375.212
376.4
377.57
378.723
379.857
380.971
382.064
383.133
384.179
385.2
386.199
387.185
329.486
331.055
332.594
334.108
335.597
337.063
338.509
339.935
341.344
342.737
344.115
345.481
346.834
348.176
349.509
350.833
352.148
353.456
354.757
356.052
357.34
358.622
359.898
361.169
362.433
363.691
364.942
366.186
367.423
368.652
369.873
371.085
372.287
373.478
374.658
375.825
376.98
378.12
379.244
380.352
381.443
382.515
383.567
384.597
385.605
386.59
387.549
388.483
389.393
390.288
336.623
338.043
339.441
340.82
342.181
343.525
344.854
346.169
347.471
348.763
350.044
351.316
352.579
353.835
355.084
356.327
357.563
358.794
360.02
361.241
362.456
363.667
364.872
366.071
367.265
368.453
369.634
370.808
371.974
373.133
374.282
375.422
376.551
377.669
378.775
379.868
380.946
382.009
383.056
384.086
385.097
386.088
387.058
388.006
388.931
389.831
390.705
391.552
392.374
393.179
344.571
345.849
347.113
348.365
349.604
350.833
352.053
353.263
354.466
355.662
356.851
358.035
359.213
360.387
361.555
362.72
363.879
365.035
366.186
367.333
368.475
369.611
370.743
371.869
372.988
374.101
375.206
376.303
377.392
378.471
379.54
380.597
381.643
382.675
383.693
384.696
385.684
386.653
387.605
388.537
389.448
390.338
391.204
392.046
392.862
393.652
394.414
395.149
395.866
350.7
351.876
353.042
354.199
355.348
356.49
357.626
358.755
359.88
360.999
362.114
363.226
364.333
365.437
366.537
367.633
368.726
369.815
370.9
371.98
373.056
374.127
375.192
376.252
377.304
378.35
379.388
380.416
381.436
382.445
383.444
384.43
385.403
386.363
387.307
388.236
389.148
390.041
390.915
391.769
392.601
393.41
394.195
394.956
395.689
396.395
397.073
397.724
398.353
356.481
357.568
358.649
359.724
360.793
361.858
362.919
363.976
365.029
366.079
367.126
368.17
369.211
370.249
371.285
372.317
373.345
374.37
375.391
376.408
377.419
378.426
379.426
380.42
381.408
382.387
383.358
384.319
385.27
386.211
387.139
388.055
388.957
389.844
390.715
391.57
392.406
393.224
394.021
394.798
395.551
396.281
396.987
397.666
398.318
398.942
399.537
400.104
400.648
362.962
363.967
364.969
365.967
366.962
367.955
368.945
369.933
370.918
371.901
372.882
373.861
374.836
375.81
376.78
377.746
378.709
379.668
380.622
381.571
382.514
383.451
384.381
385.303
386.217
387.121
388.016
388.9
389.771
390.631
391.476
392.307
393.123
393.922
394.703
395.465
396.208
396.929
397.629
398.305
398.957
399.583
400.183
400.755
401.299
401.812
402.297
402.757
368.085
369.023
369.958
370.891
371.822
372.752
373.679
374.606
375.53
376.453
377.373
378.291
379.207
380.12
381.03
381.937
382.839
383.737
384.629
385.517
386.397
387.271
388.138
388.996
389.845
390.684
391.512
392.329
393.133
393.923
394.699
395.46
396.205
396.931
397.64
398.329
398.997
399.644
400.268
400.868
401.443
401.991
402.513
403.006
403.47
403.904
404.308
404.686
373.835
374.708
375.581
376.452
377.322
378.191
379.059
379.925
380.79
381.652
382.512
383.37
384.224
385.075
385.923
386.766
387.603
388.436
389.262
390.081
390.893
391.696
392.491
393.276
394.05
394.812
395.562
396.299
397.022
397.729
398.42
399.094
399.75
400.387
401.003
401.598
402.171
402.72
403.245
403.744
404.217
404.661
405.077
405.463
405.818
406.143
406.442
378.419
379.235
380.05
380.864
381.678
382.491
383.302
384.112
384.92
385.726
386.529
387.33
388.127
388.921
389.71
390.494
391.273
392.046
392.812
393.57
394.32
395.061
395.793
396.514
397.223
397.921
398.605
399.275
399.93
400.57
401.192
401.797
402.382
402.948
403.493
404.016
404.516
404.992
405.442
405.867
406.265
406.634
406.974
407.284
407.562
407.81
408.03
383.548
384.308
385.068
385.827
386.586
387.342
388.097
388.851
389.601
390.349
391.094
391.835
392.572
393.304
394.03
394.75
395.464
396.17
396.868
397.558
398.237
398.906
399.564
400.21
400.843
401.462
402.066
402.655
403.227
403.781
404.317
404.834
405.33
405.804
406.256
406.684
407.088
407.466
407.818
408.142
408.437
408.703
408.938
409.142
409.314
409.458
387.656
388.364
389.071
389.778
390.483
391.186
391.888
392.587
393.284
393.977
394.667
395.353
396.033
396.708
397.378
398.04
398.695
399.343
399.981
400.61
401.228
401.836
402.431
403.014
403.583
404.138
404.677
405.2
405.705
406.193
406.661
407.109
407.536
407.942
408.324
408.682
409.015
409.322
409.602
409.854
410.077
410.27
410.432
410.563
410.661
410.731
391.567
392.224
392.88
393.535
394.188
394.84
395.489
396.135
396.779
397.418
398.054
398.684
399.309
399.929
400.541
401.147
401.744
402.333
402.912
403.481
404.039
404.586
405.12
405.64
406.146
406.637
407.112
407.57
408.01
408.432
408.834
409.215
409.574
409.911
410.225
410.514
410.778
411.015
411.225
411.407
411.559
411.681
411.772
411.831
411.859
411.854
395.287
395.894
396.5
397.104
397.707
398.307
398.905
399.499
400.09
400.676
401.258
401.835
402.405
402.969
403.526
404.075
404.615
405.146
405.667
406.177
406.675
407.161
407.634
408.093
408.537
408.965
409.377
409.771
410.147
410.504
410.84
411.155
411.448
411.719
411.965
412.187
412.382
412.552
412.693
412.806
412.889
412.942
412.963
412.952
412.911
412.837
398.822
399.38
399.937
400.492
401.044
401.594
402.141
402.684
403.223
403.757
404.285
404.808
405.325
405.834
406.335
406.828
407.312
407.786
408.249
408.701
409.14
409.567
409.98
410.378
410.761
411.127
411.477
411.808
412.121
412.413
412.685
412.936
413.164
413.369
413.55
413.705
413.834
413.937
414.011
414.058
414.073
414.058
414.013
413.935
413.825
413.683
402.177
402.687
403.195
403.701
404.204
404.704
405.201
405.693
406.181
406.663
407.139
407.609
408.072
408.527
408.974
409.412
409.84
410.257
410.663
411.058
411.439
411.807
412.161
412.499
412.822
413.128
413.416
413.686
413.936
414.166
414.376
414.563
414.727
414.868
414.984
415.076
415.139
415.178
415.186
415.166
415.118
415.038
414.927
414.783
414.606
414.397
405.356
405.819
406.279
406.737
407.192
407.643
408.09
408.532
408.969
409.4
409.824
410.242
410.652
411.054
411.447
411.83
412.203
412.565
412.915
413.252
413.577
413.887
414.182
414.462
414.726
414.972
415.2
415.409
415.599
415.768
415.915
416.041
416.143
416.221
416.274
416.303
416.303
416.278
416.224
416.141
416.028
415.884
415.709
415.501
415.26
414.986
408.78
409.194
409.604
410.011
410.413
410.811
411.204
411.591
411.971
412.345
412.711
413.069
413.418
413.758
414.087
414.406
414.713
415.008
415.29
415.558
415.811
416.049
416.272
416.477
416.665
416.834
416.984
417.114
417.223
417.311
417.375
417.417
417.434
417.425
417.393
417.333
417.245
417.129
416.984
416.809
416.603
416.365
416.095
415.792
415.455
411.575
411.943
412.306
412.665
413.02
413.37
413.714
414.051
414.382
414.705
415.02
415.327
415.624
415.911
416.188
416.453
416.707
416.947
417.174
417.387
417.585
417.767
417.932
418.081
418.211
418.323
418.415
418.487
418.537
418.566
418.57
418.553
418.512
418.444
418.351
418.231
418.084
417.907
417.702
417.467
417.2
416.902
416.571
416.207
415.809
414.208
414.53
414.847
415.16
415.468
415.77
416.065
416.354
416.636
416.91
417.175
417.431
417.677
417.912
418.137
418.35
418.55
418.737
418.91
419.069
419.212
419.339
419.45
419.542
419.617
419.672
419.707
419.722
419.714
419.687
419.635
419.559
419.46
419.334
419.183
419.004
418.798
418.564
418.3
418.005
417.68
417.323
416.933
416.51
416.053
416.96
417.232
417.499
417.76
418.015
418.263
418.504
418.737
418.962
419.178
419.384
419.58
419.765
419.939
420.1
420.248
420.383
420.504
420.609
420.699
420.772
420.828
420.866
420.887
420.885
420.866
420.826
420.763
420.679
420.571
420.439
420.283
420.101
419.893
419.657
419.394
419.103
418.782
418.431
418.049
417.634
417.187
416.707
416.19
419.237
419.464
419.686
419.901
420.11
420.311
420.505
420.691
420.868
421.035
421.193
421.339
421.474
421.598
421.709
421.806
421.889
421.959
422.011
422.049
422.07
422.072
422.057
422.025
421.971
421.897
421.802
421.685
421.546
421.384
421.197
420.986
420.749
420.486
420.195
419.877
419.53
419.154
418.748
418.31
417.84
417.337
416.799
416.231
421.365
421.548
421.725
421.895
422.058
422.214
422.362
422.501
422.63
422.75
422.86
422.958
423.044
423.119
423.18
423.227
423.26
423.28
423.281
423.267
423.238
423.189
423.122
423.036
422.93
422.804
422.657
422.487
422.295
422.079
421.839
421.574
421.284
420.967
420.623
420.251
419.851
419.421
418.96
418.468
417.943
417.389
416.801
416.181
423.348
423.488
423.621
423.747
423.865
423.976
424.079
424.172
424.255
424.328
424.391
424.441
424.48
424.506
424.519
424.517
424.501
424.471
424.424
424.36
424.28
424.181
424.063
423.927
423.77
423.592
423.393
423.172
422.929
422.661
422.369
422.053
421.71
421.342
420.946
420.522
420.069
419.586
419.072
418.53
417.956
417.352
416.714
416.04
425.287
425.378
425.46
425.535
425.601
425.659
425.707
425.745
425.773
425.79
425.793
425.785
425.764
425.731
425.681
425.617
425.539
425.443
425.331
425.201
425.053
424.886
424.7
424.494
424.266
424.018
423.747
423.453
423.135
422.793
422.426
422.033
421.614
421.167
420.692
420.188
419.655
419.094
418.503
417.882
417.226
416.537
415.813
426.952
426.999
427.039
427.071
427.094
427.109
427.112
427.105
427.088
427.061
427.019
426.965
426.899
426.818
426.723
426.612
426.486
426.344
426.184
426.006
425.811
425.596
425.362
425.107
424.831
424.534
424.214
423.871
423.505
423.114
422.698
422.256
421.788
421.291
420.767
420.217
419.638
419.03
418.39
417.719
417.014
416.276
415.503
428.484
428.491
428.488
428.478
428.459
428.431
428.392
428.341
428.28
428.208
428.123
428.025
427.913
427.787
427.647
427.49
427.318
427.13
426.924
426.7
426.458
426.196
425.915
425.614
425.291
424.946
424.579
424.189
423.775
423.337
422.873
422.383
421.866
421.325
420.756
420.161
419.535
418.879
418.192
417.473
416.721
415.936
415.115
429.855
429.812
429.761
429.7
429.63
429.549
429.456
429.353
429.237
429.109
428.967
428.812
428.642
428.457
428.257
428.04
427.806
427.556
427.287
426.999
426.692
426.366
426.018
425.65
425.26
424.847
424.41
423.951
423.465
422.955
422.421
421.861
421.276
420.662
420.02
419.348
418.646
417.913
417.148
416.351
415.52
414.653
431.097
431.015
430.923
430.822
430.71
430.588
430.454
430.309
430.152
429.981
429.797
429.599
429.386
429.158
428.915
428.655
428.378
428.083
427.77
427.439
427.088
426.717
426.325
425.913
425.478
425.02
424.538
424.033
423.506
422.953
422.377
421.774
421.143
420.485
419.798
419.081
418.335
417.558
416.749
415.907
415.032
414.121
432.221
432.099
431.968
431.828
431.676
431.514
431.34