/*--------------------------------*- C++ -*----------------------------------*\
| =========                 |                                                 |
| \\      /  F ield         | OpenFOAM: The Open Source CFD Toolbox           |
|  \\    /   O peration     | Version:  v1706                                 |
|   \\  /    A nd           | Web:      www.OpenFOAM.com                      |
|    \\/     M anipulation  |                                                 |
\*---------------------------------------------------------------------------*/
FoamFile
{
    version     2.0;
    format      ascii;
    class       volVectorField;
    location    "9e-06";
    object      U;
}
// * * * * * * * * * * * * * * * * * * * * * * * * * * * * * * * * * * * * * //

dimensions      [0 1 -1 0 0 0 0];


internalField   nonuniform List<vector> 
30038
(
(2764.5 -3.88644e-11 7.66707e-15)
(2764.5 -3.34803e-11 4.19758e-15)
(2764.5 -3.49604e-11 5.91367e-15)
(2764.5 -3.62252e-11 2.51294e-15)
(2764.5 -3.81651e-11 4.01768e-15)
(2764.5 -3.92639e-11 6.81533e-15)
(2764.5 -4.13858e-11 5.55123e-15)
(2764.5 -4.04499e-11 9.64645e-15)
(2764.5 -4.45528e-11 5.41e-15)
(2764.5 -4.40806e-11 3.36508e-15)
(2764.5 -4.03966e-11 1.10528e-14)
(2764.5 -3.93585e-11 6.71187e-15)
(2764.5 -3.79186e-11 6.32462e-15)
(2764.5 -3.95217e-11 3.26125e-15)
(2764.5 -4.28923e-11 1.81054e-15)
(2764.5 -4.42444e-11 1.21131e-14)
(2764.5 -4.81811e-11 6.82227e-15)
(2764.5 -4.56226e-11 3.27941e-15)
(2764.5 -4.31385e-11 1.02865e-15)
(2764.5 -4.62832e-11 8.58483e-15)
(2764.5 -5.1335e-11 6.29133e-15)
(2764.5 -5.14341e-11 1.07401e-14)
(2764.5 -5.6382e-11 -2.95215e-17)
(2764.5 -6.20729e-11 8.17834e-15)
(2764.5 -6.24084e-11 6.49032e-15)
(2764.5 -6.07547e-11 2.67848e-15)
(2764.5 -5.69485e-11 1.15447e-15)
(2764.5 -5.84389e-11 5.19722e-15)
(2764.5 -6.20888e-11 1.08057e-14)
(2764.5 -6.36867e-11 9.80352e-15)
(2764.5 -5.91437e-11 4.61065e-15)
(2764.5 -6.43074e-11 1.04312e-14)
(2764.5 -6.61982e-11 8.64185e-15)
(2764.5 -7.07659e-11 6.48528e-15)
(2764.5 -7.2401e-11 8.0006e-15)
(2764.5 -7.33606e-11 8.17234e-15)
(2764.5 -7.43191e-11 1.00209e-15)
(2764.5 -7.84031e-11 4.82108e-15)
(2764.5 -1.17659e-10 2.01381e-14)
(2764.5 -1.16001e-10 2.10762e-14)
(2764.5 -1.17508e-10 2.07738e-14)
(2764.5 -1.13963e-10 1.30455e-14)
(2764.5 -1.15855e-10 2.67824e-14)
(2764.5 -1.13306e-10 2.41223e-14)
(2764.5 -1.16619e-10 2.14823e-14)
(2764.5 -1.17211e-10 2.59065e-14)
(2764.5 -1.18034e-10 1.90856e-14)
(2764.5 -1.25598e-10 1.9714e-14)
(2764.5 -1.31182e-10 2.21406e-14)
(2764.5 -1.28999e-10 1.58839e-14)
(2764.5 -1.35504e-10 1.88377e-14)
(2764.5 -1.30904e-10 1.89488e-14)
(2764.5 -1.34856e-10 1.64515e-14)
(2764.5 -1.34991e-10 2.19047e-14)
(2764.5 -1.38357e-10 1.80992e-14)
(2764.5 -1.47326e-10 2.13057e-14)
(2764.5 -1.46891e-10 1.52636e-14)
(2764.5 -1.43793e-10 1.83135e-14)
(2764.5 -1.44465e-10 1.56408e-14)
(2764.5 -1.46382e-10 2.03555e-14)
(2764.5 -1.39706e-10 2.25559e-14)
(2764.5 -1.45542e-10 2.00373e-14)
(2764.5 -1.51714e-10 1.73771e-14)
(2764.5 -1.63374e-10 1.84818e-14)
(2764.5 -1.64669e-10 1.9007e-14)
(2764.5 -1.68247e-10 1.76993e-14)
(2764.5 -1.68915e-10 1.85143e-14)
(2764.5 -1.78667e-10 2.3266e-14)
(2764.5 -1.79632e-10 1.26404e-14)
(2764.5 -1.78827e-10 2.37538e-14)
(2764.5 -1.86393e-10 2.85557e-14)
(2764.5 -1.85605e-10 2.09554e-14)
(2764.5 -1.96103e-10 2.4247e-14)
(2764.5 -1.94384e-10 1.82084e-14)
(2764.5 -2.02046e-10 1.90021e-14)
(2764.5 -2.08964e-10 2.11967e-14)
(2764.5 -1.86055e-10 3.27167e-14)
(2764.5 -1.87923e-10 3.55701e-14)
(2764.5 -1.88319e-10 3.34568e-14)
(2764.5 -1.92053e-10 2.97215e-14)
(2764.5 -1.91725e-10 3.26908e-14)
(2764.5 -1.93469e-10 3.39615e-14)
(2764.5 -1.92037e-10 3.6311e-14)
(2764.5 -1.94503e-10 2.9371e-14)
(2764.5 -1.9433e-10 2.93155e-14)
(2764.5 -1.99841e-10 2.99773e-14)
(2764.5 -2.08024e-10 2.7333e-14)
(2764.5 -2.10667e-10 3.2312e-14)
(2764.5 -2.1478e-10 3.08661e-14)
(2764.5 -2.14074e-10 3.36459e-14)
(2764.5 -2.18943e-10 3.06769e-14)
(2764.5 -2.17442e-10 3.67144e-14)
(2764.5 -2.19718e-10 3.31873e-14)
(2764.5 -2.29397e-10 3.36064e-14)
(2764.5 -2.35403e-10 3.10967e-14)
(2764.5 -2.38245e-10 3.20127e-14)
(2764.5 -2.39411e-10 2.88014e-14)
(2764.5 -2.43972e-10 3.20839e-14)
(2764.5 -2.42916e-10 2.83989e-14)
(2764.5 -2.41319e-10 2.74853e-14)
(2764.5 -2.43878e-10 3.33343e-14)
(2764.5 -2.548e-10 3.44745e-14)
(2764.5 -2.6111e-10 3.01275e-14)
(2764.5 -2.66714e-10 2.60927e-14)
(2764.5 -2.68634e-10 2.87286e-14)
(2764.5 -2.74502e-10 3.35861e-14)
(2764.5 -2.83271e-10 3.07671e-14)
(2764.5 -2.82255e-10 3.39959e-14)
(2764.5 -2.89844e-10 3.07288e-14)
(2764.5 -2.90172e-10 3.1476e-14)
(2764.5 -3.01547e-10 3.36827e-14)
(2764.5 -3.06681e-10 3.74028e-14)
(2764.5 -3.12515e-10 3.00821e-14)
(2764.5 -3.20052e-10 3.18477e-14)
(2764.5 -2.41954e-10 4.52121e-14)
(2764.5 -2.47068e-10 4.38357e-14)
(2764.5 -2.50744e-10 4.53877e-14)
(2764.5 -2.57684e-10 4.25434e-14)
(2764.5 -2.58672e-10 4.80886e-14)
(2764.5 -2.6015e-10 4.37752e-14)
(2764.5 -2.63482e-10 4.16104e-14)
(2764.5 -2.66829e-10 3.93109e-14)
(2764.5 -2.66392e-10 4.73522e-14)
(2764.5 -2.66148e-10 3.98187e-14)
(2764.5 -2.73163e-10 4.40595e-14)
(2764.5 -2.78933e-10 4.43968e-14)
(2764.5 -2.88347e-10 4.78794e-14)
(2764.5 -2.91697e-10 4.20059e-14)
(2764.5 -2.98072e-10 3.95951e-14)
(2764.5 -2.99993e-10 4.46924e-14)
(2764.5 -3.00393e-10 3.64018e-14)
(2764.5 -3.03826e-10 4.14547e-14)
(2764.5 -3.10648e-10 4.55706e-14)
(2764.5 -3.16374e-10 4.38436e-14)
(2764.5 -3.2007e-10 4.16692e-14)
(2764.5 -3.27198e-10 4.01419e-14)
(2764.5 -3.33089e-10 4.43352e-14)
(2764.5 -3.3647e-10 4.82311e-14)
(2764.5 -3.35892e-10 4.42386e-14)
(2764.5 -3.41059e-10 4.48247e-14)
(2764.5 -3.48074e-10 4.45638e-14)
(2764.5 -3.53641e-10 4.38725e-14)
(2764.5 -3.61243e-10 4.31615e-14)
(2764.5 -3.65866e-10 4.85906e-14)
(2764.5 -3.7694e-10 4.62348e-14)
(2764.5 -3.82296e-10 4.75734e-14)
(2764.5 -3.91111e-10 4.57073e-14)
(2764.5 -3.93067e-10 4.37216e-14)
(2764.5 -4.01245e-10 4.48415e-14)
(2764.5 -4.09784e-10 5.06696e-14)
(2764.5 -4.21796e-10 4.88645e-14)
(2764.5 -4.31883e-10 4.98717e-14)
(2764.5 -3.07034e-10 5.62799e-14)
(2764.5 -3.13093e-10 5.71103e-14)
(2764.5 -3.18782e-10 6.00526e-14)
(2764.5 -3.249e-10 5.80419e-14)
(2764.5 -3.29769e-10 5.54351e-14)
(2764.5 -3.30895e-10 5.30217e-14)
(2764.5 -3.32243e-10 5.74885e-14)
(2764.5 -3.37453e-10 5.96196e-14)
(2764.5 -3.413e-10 6.23602e-14)
(2764.5 -3.3696e-10 5.93732e-14)
(2764.5 -3.39339e-10 5.72521e-14)
(2764.5 -3.45308e-10 5.36728e-14)
(2764.5 -3.54218e-10 5.32889e-14)
(2764.5 -3.60433e-10 5.0468e-14)
(2764.5 -3.70757e-10 5.44281e-14)
(2764.5 -3.76691e-10 5.84797e-14)
(2764.5 -3.81408e-10 6.10027e-14)
(2764.5 -3.87197e-10 5.84686e-14)
(2764.5 -3.92501e-10 5.20704e-14)
(2764.5 -3.96883e-10 6.11699e-14)
(2764.5 -4.00806e-10 5.84666e-14)
(2764.5 -4.05204e-10 4.85358e-14)
(2764.5 -4.13773e-10 5.90112e-14)
(2764.5 -4.22278e-10 5.76478e-14)
(2764.5 -4.29881e-10 5.90559e-14)
(2764.5 -4.33473e-10 6.17053e-14)
(2764.5 -4.39716e-10 6.40871e-14)
(2764.5 -4.43875e-10 5.58128e-14)
(2764.5 -4.51305e-10 5.05501e-14)
(2764.5 -4.53687e-10 4.96272e-14)
(2764.5 -4.61395e-10 5.24304e-14)
(2764.5 -4.68083e-10 6.16456e-14)
(2764.5 -4.7943e-10 5.97871e-14)
(2764.5 -4.88018e-10 5.77746e-14)
(2764.5 -4.97577e-10 5.784e-14)
(2764.5 -5.04348e-10 5.94623e-14)
(2764.5 -5.16348e-10 6.18305e-14)
(2764.5 -5.30562e-10 6.26486e-14)
(2764.5 -3.74004e-10 7.1434e-14)
(2764.5 -3.79154e-10 7.22103e-14)
(2764.5 -3.84736e-10 6.9796e-14)
(2764.5 -3.90877e-10 6.23358e-14)
(2764.5 -3.98779e-10 6.37109e-14)
(2764.5 -4.03423e-10 6.60444e-14)
(2764.5 -4.03443e-10 6.19897e-14)
(2764.5 -4.02706e-10 7.17481e-14)
(2764.5 -4.11497e-10 7.81816e-14)
(2764.5 -4.167e-10 7.27403e-14)
(2764.5 -4.17438e-10 7.10446e-14)
(2764.5 -4.17372e-10 6.74209e-14)
(2764.5 -4.21352e-10 6.68035e-14)
(2764.5 -4.26104e-10 6.93177e-14)
(2764.5 -4.35096e-10 7.09469e-14)
(2764.5 -4.44567e-10 6.88235e-14)
(2764.5 -4.50774e-10 7.31303e-14)
(2764.5 -4.59798e-10 7.08649e-14)
(2764.5 -4.70477e-10 6.4903e-14)
(2764.5 -4.76188e-10 7.02639e-14)
(2764.5 -4.81435e-10 7.1462e-14)
(2764.5 -4.81653e-10 7.37251e-14)
(2764.5 -4.86343e-10 7.42007e-14)
(2764.5 -4.96026e-10 6.82783e-14)
(2764.5 -5.06985e-10 6.67888e-14)
(2764.5 -5.14592e-10 6.72502e-14)
(2764.5 -5.21509e-10 7.67488e-14)
(2764.5 -5.25936e-10 6.83009e-14)
(2764.5 -5.34191e-10 7.18129e-14)
(2764.5 -5.43342e-10 7.51129e-14)
(2764.5 -5.51485e-10 6.90841e-14)
(2764.5 -5.58839e-10 6.96613e-14)
(2764.5 -5.66408e-10 6.87461e-14)
(2764.5 -5.76452e-10 7.40973e-14)
(2764.5 -5.8812e-10 7.67172e-14)
(2764.5 -5.95437e-10 6.88609e-14)
(2764.5 -6.06442e-10 6.83174e-14)
(2764.5 -6.21536e-10 7.25964e-14)
(2764.5 -4.34391e-10 7.98524e-14)
(2764.5 -4.37787e-10 7.37549e-14)
(2764.5 -4.44142e-10 7.90019e-14)
(2764.5 -4.53409e-10 8.53535e-14)
(2764.5 -4.64e-10 8.2735e-14)
(2764.5 -4.75208e-10 7.87604e-14)
(2764.5 -4.80729e-10 8.00604e-14)
(2764.5 -4.77592e-10 8.80048e-14)
(2764.5 -4.76482e-10 7.70778e-14)
(2764.5 -4.81739e-10 8.14422e-14)
(2764.5 -4.86869e-10 8.35771e-14)
(2764.5 -4.88845e-10 7.92415e-14)
(2764.5 -4.92424e-10 7.99416e-14)
(2764.5 -4.97523e-10 7.99156e-14)
(2764.5 -5.02668e-10 7.84736e-14)
(2764.5 -5.08279e-10 8.25389e-14)
(2764.5 -5.15767e-10 7.9636e-14)
(2764.5 -5.23563e-10 8.56209e-14)
(2764.5 -5.3593e-10 8.1703e-14)
(2764.5 -5.44837e-10 8.39454e-14)
(2764.5 -5.5587e-10 8.43332e-14)
(2764.5 -5.61979e-10 8.26976e-14)
(2764.5 -5.67994e-10 8.09701e-14)
(2764.5 -5.74954e-10 8.47792e-14)
(2764.5 -5.8621e-10 8.24823e-14)
(2764.5 -5.97333e-10 8.25967e-14)
(2764.5 -6.08304e-10 8.89959e-14)
(2764.5 -6.16878e-10 7.9151e-14)
(2764.5 -6.22004e-10 7.68565e-14)
(2764.5 -6.27221e-10 8.0805e-14)
(2764.5 -6.39881e-10 8.27357e-14)
(2764.5 -6.54642e-10 8.06812e-14)
(2764.5 -6.65667e-10 8.38106e-14)
(2764.5 -6.74177e-10 8.59046e-14)
(2764.5 -6.86738e-10 9.01035e-14)
(2764.5 -6.94522e-10 8.57298e-14)
(2764.5 -7.01429e-10 8.45793e-14)
(2764.5 -7.12826e-10 8.74931e-14)
(2764.5 -4.89083e-10 9.50449e-14)
(2764.5 -4.93084e-10 9.32042e-14)
(2764.5 -4.9735e-10 9.20023e-14)
(2764.5 -5.09169e-10 9.7922e-14)
(2764.5 -5.23246e-10 9.81271e-14)
(2764.5 -5.35438e-10 9.09881e-14)
(2764.5 -5.43203e-10 9.1355e-14)
(2764.5 -5.4561e-10 9.45899e-14)
(2764.5 -5.43476e-10 9.62618e-14)
(2764.5 -5.47444e-10 9.59392e-14)
(2764.5 -5.54262e-10 8.86597e-14)
(2764.5 -5.58774e-10 9.28824e-14)
(2764.5 -5.60557e-10 8.98552e-14)
(2764.5 -5.64322e-10 9.44816e-14)
(2764.5 -5.69183e-10 9.27036e-14)
(2764.5 -5.71627e-10 9.71144e-14)
(2764.5 -5.74224e-10 9.95311e-14)
(2764.5 -5.81726e-10 9.83893e-14)
(2764.5 -5.95928e-10 9.45208e-14)
(2764.5 -6.06836e-10 9.86339e-14)
(2764.5 -6.1738e-10 9.12718e-14)
(2764.5 -6.26649e-10 9.83082e-14)
(2764.5 -6.34587e-10 9.26684e-14)
(2764.5 -6.43322e-10 9.28601e-14)
(2764.5 -6.54168e-10 8.86666e-14)
(2764.5 -6.65467e-10 9.51169e-14)
(2764.5 -6.78909e-10 9.35514e-14)
(2764.5 -6.91724e-10 9.1488e-14)
(2764.5 -7.03276e-10 9.73677e-14)
(2764.5 -7.06377e-10 9.88614e-14)
(2764.5 -7.09945e-10 1.03088e-13)
(2764.5 -7.22667e-10 1.00902e-13)
(2764.5 -7.39696e-10 1.01903e-13)
(2764.5 -7.52284e-10 9.67931e-14)
(2764.5 -7.64737e-10 9.67393e-14)
(2764.5 -7.73417e-10 1.05127e-13)
(2764.5 -7.86139e-10 9.98967e-14)
(2764.5 -8.00183e-10 9.46766e-14)
(2764.5 -5.40648e-10 1.07457e-13)
(2764.5 -5.43364e-10 1.06704e-13)
(2764.5 -5.43787e-10 1.1265e-13)
(2764.5 -5.47655e-10 1.0969e-13)
(2764.5 -5.56488e-10 1.09167e-13)
(2764.5 -5.71164e-10 1.0763e-13)
(2764.5 -5.84618e-10 1.13486e-13)
(2764.5 -5.94367e-10 1.09398e-13)
(2764.5 -6.03785e-10 1.08598e-13)
(2764.5 -6.07319e-10 1.08525e-13)
(2764.5 -6.07679e-10 9.82364e-14)
(2764.5 -6.12191e-10 1.09011e-13)
(2764.5 -6.20144e-10 9.96896e-14)
(2764.5 -6.25574e-10 1.06358e-13)
(2764.5 -6.29094e-10 1.09499e-13)
(2764.5 -6.33141e-10 1.10158e-13)
(2764.5 -6.36963e-10 1.1195e-13)
(2764.5 -6.40316e-10 1.06036e-13)
(2764.5 -6.48007e-10 1.05715e-13)
(2764.5 -6.63059e-10 1.06192e-13)
(2764.5 -6.7713e-10 1.06999e-13)
(2764.5 -6.84743e-10 1.0719e-13)
(2764.5 -6.91541e-10 1.05509e-13)
(2764.5 -6.97276e-10 1.02448e-13)
(2764.5 -7.03117e-10 1.05953e-13)
(2764.5 -7.15296e-10 1.07102e-13)
(2764.5 -7.30857e-10 1.10499e-13)
(2764.5 -7.44995e-10 1.0595e-13)
(2764.5 -7.54547e-10 1.07728e-13)
(2764.5 -7.66875e-10 1.07335e-13)
(2764.5 -7.75101e-10 1.10405e-13)
(2764.5 -7.82116e-10 1.10636e-13)
(2764.5 -7.89443e-10 1.13182e-13)
(2764.5 -8.02917e-10 1.09096e-13)
(2764.5 -8.16364e-10 1.15679e-13)
(2764.5 -8.33139e-10 1.15582e-13)
(2764.5 -8.43534e-10 1.11765e-13)
(2764.5 -8.57181e-10 1.09407e-13)
(2764.5 -8.78226e-10 1.09148e-13)
(2764.5 -6.05253e-10 1.2325e-13)
(2764.5 -6.03309e-10 1.17042e-13)
(2764.5 -6.00393e-10 1.16843e-13)
(2764.5 -6.01727e-10 1.22878e-13)
(2764.5 -6.08664e-10 1.22377e-13)
(2764.5 -6.16859e-10 1.23498e-13)
(2764.5 -6.30397e-10 1.25931e-13)
(2764.5 -6.43056e-10 1.18104e-13)
(2764.5 -6.55261e-10 1.16654e-13)
(2764.5 -6.63555e-10 1.14874e-13)
(2764.5 -6.67786e-10 1.19704e-13)
(2764.5 -6.71412e-10 1.16883e-13)
(2764.5 -6.78833e-10 1.10404e-13)
(2764.5 -6.86908e-10 1.2155e-13)
(2764.5 -6.92675e-10 1.20345e-13)
(2764.5 -6.98052e-10 1.21736e-13)
(2764.5 -7.02339e-10 1.13642e-13)
(2764.5 -7.08373e-10 1.2035e-13)
(2764.5 -7.20594e-10 1.19099e-13)
(2764.5 -7.36988e-10 1.20903e-13)
(2764.5 -7.50348e-10 1.17314e-13)
(2764.5 -7.55525e-10 1.1611e-13)
(2764.5 -7.58904e-10 1.15822e-13)
(2764.5 -7.62846e-10 1.17666e-13)
(2764.5 -7.69521e-10 1.22284e-13)
(2764.5 -7.82495e-10 1.20052e-13)
(2764.5 -7.98688e-10 1.22681e-13)
(2764.5 -8.14277e-10 1.17264e-13)
(2764.5 -8.24654e-10 1.15517e-13)
(2764.5 -8.34894e-10 1.2187e-13)
(2764.5 -8.41554e-10 1.233e-13)
(2764.5 -8.4843e-10 1.23581e-13)
(2764.5 -8.53953e-10 1.24465e-13)
(2764.5 -8.64096e-10 1.22172e-13)
(2764.5 -8.78644e-10 1.25144e-13)
(2764.5 -8.98407e-10 1.23739e-13)
(2764.5 -9.11124e-10 1.18177e-13)
(2764.5 -9.2504e-10 1.23635e-13)
(2764.5 -9.46636e-10 1.25766e-13)
(2764.5 -6.73141e-10 1.3486e-13)
(2764.5 -6.74348e-10 1.3933e-13)
(2764.5 -6.715e-10 1.3305e-13)
(2764.5 -6.65821e-10 1.34487e-13)
(2764.5 -6.69261e-10 1.2857e-13)
(2764.5 -6.7279e-10 1.28369e-13)
(2764.5 -6.81771e-10 1.338e-13)
(2764.5 -6.92817e-10 1.36026e-13)
(2764.5 -7.08391e-10 1.2866e-13)
(2764.5 -7.18293e-10 1.30369e-13)
(2764.5 -7.24154e-10 1.29719e-13)
(2764.5 -7.32435e-10 1.31829e-13)
(2764.5 -7.39897e-10 1.29857e-13)
(2764.5 -7.46614e-10 1.24796e-13)
(2764.5 -7.53998e-10 1.32868e-13)
(2764.5 -7.61597e-10 1.36725e-13)
(2764.5 -7.6913e-10 1.3953e-13)
(2764.5 -7.766e-10 1.37953e-13)
(2764.5 -7.90283e-10 1.29894e-13)
(2764.5 -8.02718e-10 1.30422e-13)
(2764.5 -8.12542e-10 1.33222e-13)
(2764.5 -8.18073e-10 1.34675e-13)
(2764.5 -8.22701e-10 1.3207e-13)
(2764.5 -8.29857e-10 1.31666e-13)
(2764.5 -8.39929e-10 1.31e-13)
(2764.5 -8.53552e-10 1.36721e-13)
(2764.5 -8.67097e-10 1.29541e-13)
(2764.5 -8.80546e-10 1.27631e-13)
(2764.5 -8.91422e-10 1.3396e-13)
(2764.5 -8.99135e-10 1.36988e-13)
(2764.5 -9.06303e-10 1.37959e-13)
(2764.5 -9.15449e-10 1.33255e-13)
(2764.5 -9.22082e-10 1.33183e-13)
(2764.5 -9.2807e-10 1.32896e-13)
(2764.5 -9.39575e-10 1.34123e-13)
(2764.5 -9.60371e-10 1.33647e-13)
(2764.5 -9.76636e-10 1.3575e-13)
(2764.5 -9.93824e-10 1.38883e-13)
(2764.5 -1.01374e-09 1.35147e-13)
(2764.5 -7.27093e-10 1.5009e-13)
(2764.5 -7.3141e-10 1.46664e-13)
(2764.5 -7.35767e-10 1.42678e-13)
(2764.5 -7.37125e-10 1.4703e-13)
(2764.5 -7.33283e-10 1.45687e-13)
(2764.5 -7.3158e-10 1.47564e-13)
(2764.5 -7.32893e-10 1.45635e-13)
(2764.5 -7.34955e-10 1.47058e-13)
(2764.5 -7.41466e-10 1.44547e-13)
(2764.5 -7.53198e-10 1.47858e-13)
(2764.5 -7.66764e-10 1.4667e-13)
(2764.5 -7.78259e-10 1.47046e-13)
(2764.5 -7.9157e-10 1.44686e-13)
(2764.5 -8.04686e-10 1.38342e-13)
(2764.5 -8.12886e-10 1.44705e-13)
(2764.5 -8.20315e-10 1.47106e-13)
(2764.5 -8.27762e-10 1.43441e-13)
(2764.5 -8.34108e-10 1.44884e-13)
(2764.5 -8.36132e-10 1.45968e-13)
(2764.5 -8.44706e-10 1.46935e-13)
(2764.5 -8.57868e-10 1.40386e-13)
(2764.5 -8.70135e-10 1.41175e-13)
(2764.5 -8.80916e-10 1.42089e-13)
(2764.5 -8.88645e-10 1.39622e-13)
(2764.5 -8.9647e-10 1.39106e-13)
(2764.5 -9.06727e-10 1.49973e-13)
(2764.5 -9.17709e-10 1.46359e-13)
(2764.5 -9.27601e-10 1.38484e-13)
(2764.5 -9.40132e-10 1.45693e-13)
(2764.5 -9.50294e-10 1.44954e-13)
(2764.5 -9.58488e-10 1.48106e-13)
(2764.5 -9.63035e-10 1.44474e-13)
(2764.5 -9.73306e-10 1.44351e-13)
(2764.5 -9.83304e-10 1.46302e-13)
(2764.5 -9.93238e-10 1.49687e-13)
(2764.5 -1.00858e-09 1.51069e-13)
(2764.5 -1.03284e-09 1.47863e-13)
(2764.5 -1.04689e-09 1.52669e-13)
(2764.5 -1.06452e-09 1.44343e-13)
(2764.5 -1.06992e-09 1.52778e-13)
(2764.5 -7.79873e-10 1.62033e-13)
(2764.5 -7.893e-10 1.62601e-13)
(2764.5 -7.98752e-10 1.63851e-13)
(2764.5 -8.03935e-10 1.58384e-13)
(2764.5 -8.0276e-10 1.58868e-13)
(2764.5 -7.97256e-10 1.58704e-13)
(2764.5 -7.96024e-10 1.604e-13)
(2764.5 -7.93753e-10 1.60497e-13)
(2764.5 -7.95831e-10 1.59095e-13)
(2764.5 -8.03301e-10 1.63931e-13)
(2764.5 -8.15919e-10 1.54922e-13)
(2764.5 -8.28586e-10 1.55597e-13)
(2764.5 -8.43169e-10 1.54876e-13)
(2764.5 -8.60116e-10 1.54472e-13)
(2764.5 -8.71844e-10 1.55152e-13)
(2764.5 -8.79543e-10 1.56157e-13)
(2764.5 -8.85003e-10 1.54987e-13)
(2764.5 -8.91766e-10 1.48141e-13)
(2764.5 -8.95942e-10 1.53877e-13)
(2764.5 -9.02006e-10 1.52197e-13)
(2764.5 -9.14812e-10 1.54426e-13)
(2764.5 -9.27027e-10 1.57216e-13)
(2764.5 -9.38175e-10 1.59662e-13)
(2764.5 -9.45708e-10 1.58451e-13)
(2764.5 -9.546e-10 1.53542e-13)
(2764.5 -9.63912e-10 1.55679e-13)
(2764.5 -9.72444e-10 1.55009e-13)
(2764.5 -9.82362e-10 1.55318e-13)
(2764.5 -9.96226e-10 1.54366e-13)
(2764.5 -1.01031e-09 1.56633e-13)
(2764.5 -1.02321e-09 1.58216e-13)
(2764.5 -1.03066e-09 1.58161e-13)
(2764.5 -1.03784e-09 1.58599e-13)
(2764.5 -1.05076e-09 1.58842e-13)
(2764.5 -1.06459e-09 1.64384e-13)
(2764.5 -1.07921e-09 1.56287e-13)
(2764.5 -1.10044e-09 1.56224e-13)
(2764.5 -1.11003e-09 1.60563e-13)
(2764.5 -1.12279e-09 1.59037e-13)
(2764.5 -1.12952e-09 1.60033e-13)
(2764.5 -8.31606e-10 1.76112e-13)
(2764.5 -8.37571e-10 1.70458e-13)
(2764.5 -8.49754e-10 1.71133e-13)
(2764.5 -8.6144e-10 1.73164e-13)
(2764.5 -8.71427e-10 1.74324e-13)
(2764.5 -8.69374e-10 1.78428e-13)
(2764.5 -8.64151e-10 1.73466e-13)
(2764.5 -8.59933e-10 1.65831e-13)
(2764.5 -8.57945e-10 1.7194e-13)
(2764.5 -8.60562e-10 1.76135e-13)
(2764.5 -8.69686e-10 1.67767e-13)
(2764.5 -8.82529e-10 1.74271e-13)
(2764.5 -8.92776e-10 1.74822e-13)
(2764.5 -9.04647e-10 1.69643e-13)
(2764.5 -9.15711e-10 1.71122e-13)
(2764.5 -9.25365e-10 1.64889e-13)
(2764.5 -9.34854e-10 1.61925e-13)
(2764.5 -9.46967e-10 1.64036e-13)
(2764.5 -9.57462e-10 1.66838e-13)
(2764.5 -9.66312e-10 1.64915e-13)
(2764.5 -9.75272e-10 1.76957e-13)
(2764.5 -9.82258e-10 1.7262e-13)
(2764.5 -9.90036e-10 1.68404e-13)
(2764.5 -9.97103e-10 1.68674e-13)
(2764.5 -1.00738e-09 1.69227e-13)
(2764.5 -1.01935e-09 1.67593e-13)
(2764.5 -1.03102e-09 1.68767e-13)
(2764.5 -1.042e-09 1.62402e-13)
(2764.5 -1.05552e-09 1.75171e-13)
(2764.5 -1.07221e-09 1.75014e-13)
(2764.5 -1.08897e-09 1.67851e-13)
(2764.5 -1.10393e-09 1.66424e-13)
(2764.5 -1.11461e-09 1.64645e-13)
(2764.5 -1.12126e-09 1.67112e-13)
(2764.5 -1.12896e-09 1.72322e-13)
(2764.5 -1.13633e-09 1.73387e-13)
(2764.5 -1.15389e-09 1.70287e-13)
(2764.5 -1.16563e-09 1.68911e-13)
(2764.5 -1.18172e-09 1.75083e-13)
(2764.5 -1.19514e-09 1.79926e-13)
(2764.5 -8.86645e-10 1.88955e-13)
(2764.5 -8.9137e-10 1.89045e-13)
(2764.5 -8.98659e-10 1.90574e-13)
(2764.5 -9.10139e-10 1.85296e-13)
(2764.5 -9.2272e-10 1.83241e-13)
(2764.5 -9.32273e-10 1.8811e-13)
(2764.5 -9.34176e-10 1.92057e-13)
(2764.5 -9.30836e-10 1.80103e-13)
(2764.5 -9.24666e-10 1.80459e-13)
(2764.5 -9.22541e-10 1.87895e-13)
(2764.5 -9.24676e-10 1.81503e-13)
(2764.5 -9.33048e-10 1.87808e-13)
(2764.5 -9.40668e-10 1.84757e-13)
(2764.5 -9.48985e-10 1.7847e-13)
(2764.5 -9.60231e-10 1.82171e-13)
(2764.5 -9.72399e-10 1.82626e-13)
(2764.5 -9.85533e-10 1.76703e-13)
(2764.5 -1.0006e-09 1.78489e-13)
(2764.5 -1.01395e-09 1.79955e-13)
(2764.5 -1.0239e-09 1.83502e-13)
(2764.5 -1.03237e-09 1.87127e-13)
(2764.5 -1.03941e-09 1.79434e-13)
(2764.5 -1.04475e-09 1.83083e-13)
(2764.5 -1.05356e-09 1.85958e-13)
(2764.5 -1.06343e-09 1.77655e-13)
(2764.5 -1.07428e-09 1.85153e-13)
(2764.5 -1.08472e-09 1.79073e-13)
(2764.5 -1.09585e-09 1.79395e-13)
(2764.5 -1.10892e-09 1.83198e-13)
(2764.5 -1.12826e-09 1.76192e-13)
(2764.5 -1.14967e-09 1.80689e-13)
(2764.5 -1.16616e-09 1.82918e-13)
(2764.5 -1.17968e-09 1.82944e-13)
(2764.5 -1.18627e-09 1.76074e-13)
(2764.5 -1.19423e-09 1.82724e-13)
(2764.5 -1.20245e-09 1.82731e-13)
(2764.5 -1.22039e-09 1.83232e-13)
(2764.5 -1.23319e-09 1.84684e-13)
(2764.5 -1.24861e-09 1.83052e-13)
(2764.5 -1.26288e-09 1.79119e-13)
(2764.5 -9.44069e-10 1.99968e-13)
(2764.5 -9.4501e-10 2.0154e-13)
(2764.5 -9.47917e-10 1.99515e-13)
(2764.5 -9.58848e-10 1.99653e-13)
(2764.5 -9.73319e-10 1.98041e-13)
(2764.5 -9.84271e-10 1.93059e-13)
(2764.5 -9.93775e-10 1.95964e-13)
(2764.5 -9.98077e-10 1.95489e-13)
(2764.5 -9.94577e-10 1.95945e-13)
(2764.5 -9.90515e-10 1.97215e-13)
(2764.5 -9.88792e-10 1.94107e-13)
(2764.5 -9.90812e-10 1.96674e-13)
(2764.5 -9.9343e-10 1.92199e-13)
(2764.5 -9.98059e-10 1.901e-13)
(2764.5 -1.00449e-09 1.93928e-13)
(2764.5 -1.01551e-09 1.94788e-13)
(2764.5 -1.03414e-09 1.94422e-13)
(2764.5 -1.05414e-09 1.94917e-13)
(2764.5 -1.0697e-09 1.91375e-13)
(2764.5 -1.08015e-09 1.92647e-13)
(2764.5 -1.08715e-09 1.93834e-13)
(2764.5 -1.09248e-09 1.92387e-13)
(2764.5 -1.09674e-09 1.91405e-13)
(2764.5 -1.10633e-09 1.91618e-13)
(2764.5 -1.11716e-09 1.9049e-13)
(2764.5 -1.12904e-09 1.90551e-13)
(2764.5 -1.13994e-09 1.91172e-13)
(2764.5 -1.15018e-09 1.94316e-13)
(2764.5 -1.16362e-09 1.88248e-13)
(2764.5 -1.1801e-09 1.94329e-13)
(2764.5 -1.19662e-09 1.92981e-13)
(2764.5 -1.21144e-09 1.99998e-13)
(2764.5 -1.22417e-09 1.96094e-13)
(2764.5 -1.23645e-09 1.90742e-13)
(2764.5 -1.24872e-09 1.94189e-13)
(2764.5 -1.25995e-09 1.99326e-13)
(2764.5 -1.27802e-09 1.99709e-13)
(2764.5 -1.29254e-09 1.97287e-13)
(2764.5 -1.31016e-09 1.94054e-13)
(2764.5 -1.3261e-09 1.98772e-13)
(2764.5 -9.96533e-10 2.13944e-13)
(2764.5 -1.00053e-09 2.11784e-13)
(2764.5 -1.00286e-09 2.13094e-13)
(2764.5 -1.00643e-09 2.09474e-13)
(2764.5 -1.01871e-09 2.07288e-13)
(2764.5 -1.03126e-09 2.13936e-13)
(2764.5 -1.0432e-09 2.15916e-13)
(2764.5 -1.0526e-09 2.08876e-13)
(2764.5 -1.05775e-09 2.08073e-13)
(2764.5 -1.05791e-09 2.11265e-13)
(2764.5 -1.05526e-09 2.0916e-13)
(2764.5 -1.05382e-09 2.11431e-13)
(2764.5 -1.05213e-09 2.05317e-13)
(2764.5 -1.05516e-09 2.02906e-13)
(2764.5 -1.05868e-09 2.10476e-13)
(2764.5 -1.06442e-09 2.05436e-13)
(2764.5 -1.07699e-09 2.03759e-13)
(2764.5 -1.09553e-09 2.1004e-13)
(2764.5 -1.11395e-09 2.08824e-13)
(2764.5 -1.12818e-09 2.03704e-13)
(2764.5 -1.13827e-09 2.04794e-13)
(2764.5 -1.14717e-09 1.98077e-13)
(2764.5 -1.15268e-09 2.03784e-13)
(2764.5 -1.15967e-09 2.06859e-13)
(2764.5 -1.16898e-09 2.09694e-13)
(2764.5 -1.18113e-09 2.1005e-13)
(2764.5 -1.19385e-09 2.03556e-13)
(2764.5 -1.20508e-09 2.0457e-13)
(2764.5 -1.21762e-09 2.01282e-13)
(2764.5 -1.23108e-09 2.07172e-13)
(2764.5 -1.24567e-09 2.05528e-13)
(2764.5 -1.25888e-09 2.02769e-13)
(2764.5 -1.2703e-09 2.05284e-13)
(2764.5 -1.28212e-09 2.08044e-13)
(2764.5 -1.29705e-09 2.01797e-13)
(2764.5 -1.3122e-09 2.04529e-13)
(2764.5 -1.33306e-09 2.06779e-13)
(2764.5 -1.35119e-09 2.0388e-13)
(2764.5 -1.37237e-09 2.03186e-13)
(2764.5 -1.39023e-09 2.07506e-13)
(2764.5 -1.03627e-09 2.30096e-13)
(2764.5 -1.04333e-09 2.28192e-13)
(2764.5 -1.0493e-09 2.26532e-13)
(2764.5 -1.05572e-09 2.21398e-13)
(2764.5 -1.06621e-09 2.24805e-13)
(2764.5 -1.07811e-09 2.20801e-13)
(2764.5 -1.0905e-09 2.22642e-13)
(2764.5 -1.10035e-09 2.21895e-13)
(2764.5 -1.10983e-09 2.26328e-13)
(2764.5 -1.11707e-09 2.25415e-13)
(2764.5 -1.11903e-09 2.18916e-13)
(2764.5 -1.11984e-09 2.22348e-13)
(2764.5 -1.11777e-09 2.19014e-13)
(2764.5 -1.11896e-09 2.21924e-13)
(2764.5 -1.1216e-09 2.21617e-13)
(2764.5 -1.12683e-09 2.2434e-13)
(2764.5 -1.13711e-09 2.25906e-13)
(2764.5 -1.1479e-09 2.21112e-13)
(2764.5 -1.1612e-09 2.22625e-13)
(2764.5 -1.17783e-09 2.268e-13)
(2764.5 -1.19099e-09 2.20892e-13)
(2764.5 -1.20368e-09 2.17629e-13)
(2764.5 -1.21446e-09 2.19815e-13)
(2764.5 -1.22214e-09 2.15155e-13)
(2764.5 -1.22861e-09 2.18037e-13)
(2764.5 -1.2385e-09 2.16085e-13)
(2764.5 -1.24967e-09 2.14996e-13)
(2764.5 -1.26179e-09 2.17773e-13)
(2764.5 -1.27567e-09 2.1208e-13)
(2764.5 -1.28837e-09 2.14854e-13)
(2764.5 -1.30162e-09 2.17948e-13)
(2764.5 -1.31193e-09 2.18993e-13)
(2764.5 -1.32349e-09 2.21281e-13)
(2764.5 -1.33652e-09 2.1745e-13)
(2764.5 -1.35341e-09 2.16025e-13)
(2764.5 -1.36651e-09 2.18739e-13)
(2764.5 -1.38491e-09 2.20371e-13)
(2764.5 -1.39782e-09 2.19557e-13)
(2764.5 -1.42153e-09 2.18807e-13)
(2764.5 -1.43998e-09 2.21624e-13)
(2764.5 -1.07042e-09 2.41753e-13)
(2764.5 -1.08173e-09 2.43206e-13)
(2764.5 -1.09139e-09 2.39395e-13)
(2764.5 -1.09879e-09 2.37503e-13)
(2764.5 -1.10745e-09 2.42808e-13)
(2764.5 -1.11753e-09 2.34654e-13)
(2764.5 -1.12798e-09 2.38782e-13)
(2764.5 -1.13974e-09 2.37635e-13)
(2764.5 -1.14677e-09 2.31078e-13)
(2764.5 -1.15296e-09 2.34887e-13)
(2764.5 -1.16166e-09 2.35412e-13)
(2764.5 -1.1693e-09 2.3197e-13)
(2764.5 -1.17564e-09 2.30556e-13)
(2764.5 -1.18098e-09 2.3356e-13)
(2764.5 -1.18447e-09 2.34277e-13)
(2764.5 -1.18734e-09 2.31831e-13)
(2764.5 -1.18886e-09 2.38373e-13)
(2764.5 -1.19488e-09 2.33714e-13)
(2764.5 -1.20324e-09 2.29187e-13)
(2764.5 -1.21323e-09 2.29574e-13)
(2764.5 -1.22626e-09 2.32235e-13)
(2764.5 -1.2397e-09 2.29196e-13)
(2764.5 -1.25502e-09 2.30815e-13)
(2764.5 -1.26972e-09 2.30788e-13)
(2764.5 -1.2817e-09 2.25738e-13)
(2764.5 -1.28914e-09 2.32477e-13)
(2764.5 -1.29647e-09 2.32631e-13)
(2764.5 -1.30809e-09 2.28106e-13)
(2764.5 -1.3208e-09 2.27893e-13)
(2764.5 -1.33356e-09 2.30849e-13)
(2764.5 -1.3421e-09 2.35561e-13)
(2764.5 -1.34944e-09 2.26795e-13)
(2764.5 -1.36056e-09 2.28626e-13)
(2764.5 -1.37439e-09 2.35933e-13)
(2764.5 -1.391e-09 2.29019e-13)
(2764.5 -1.40847e-09 2.29528e-13)
(2764.5 -1.42714e-09 2.3341e-13)
(2764.5 -1.44628e-09 2.35549e-13)
(2764.5 -1.46936e-09 2.30684e-13)
(2764.5 -1.48656e-09 2.32137e-13)
(2764.5 -1.48838e-09 2.31176e-13)
(2764.5 -1.1109e-09 2.59359e-13)
(2764.5 -1.12432e-09 2.61496e-13)
(2764.5 -1.13651e-09 2.54789e-13)
(2764.5 -1.14538e-09 2.52765e-13)
(2764.5 -1.15561e-09 2.57061e-13)
(2764.5 -1.16654e-09 2.48616e-13)
(2764.5 -1.17542e-09 2.48711e-13)
(2764.5 -1.18468e-09 2.45531e-13)
(2764.5 -1.19274e-09 2.47138e-13)
(2764.5 -1.19981e-09 2.5133e-13)
(2764.5 -1.20766e-09 2.47418e-13)
(2764.5 -1.21619e-09 2.45404e-13)
(2764.5 -1.22286e-09 2.48309e-13)
(2764.5 -1.23049e-09 2.48086e-13)
(2764.5 -1.2385e-09 2.45874e-13)
(2764.5 -1.24472e-09 2.43735e-13)
(2764.5 -1.25003e-09 2.46815e-13)
(2764.5 -1.25623e-09 2.45302e-13)
(2764.5 -1.26394e-09 2.4386e-13)
(2764.5 -1.27488e-09 2.44272e-13)
(2764.5 -1.28426e-09 2.4186e-13)
(2764.5 -1.292e-09 2.48526e-13)
(2764.5 -1.30271e-09 2.43528e-13)
(2764.5 -1.31734e-09 2.3257e-13)
(2764.5 -1.3325e-09 2.3782e-13)
(2764.5 -1.34516e-09 2.44329e-13)
(2764.5 -1.35206e-09 2.38833e-13)
(2764.5 -1.36339e-09 2.39382e-13)
(2764.5 -1.376e-09 2.38823e-13)
(2764.5 -1.38842e-09 2.40947e-13)
(2764.5 -1.39788e-09 2.38456e-13)
(2764.5 -1.40722e-09 2.40058e-13)
(2764.5 -1.41779e-09 2.46879e-13)
(2764.5 -1.43041e-09 2.44421e-13)
(2764.5 -1.4439e-09 2.48219e-13)
(2764.5 -1.46757e-09 2.48577e-13)
(2764.5 -1.48027e-09 2.43797e-13)
(2764.5 -1.4929e-09 2.44598e-13)
(2764.5 -1.47626e-09 2.5161e-13)
(2764.5 -1.48678e-09 2.45583e-13)
(2764.5 -1.5052e-09 2.45496e-13)
(2764.5 -1.12825e-09 2.78587e-13)
(2764.5 -1.14677e-09 2.79527e-13)
(2764.5 -1.16194e-09 2.66226e-13)
(2764.5 -1.17453e-09 2.66263e-13)
(2764.5 -1.18476e-09 2.69939e-13)
(2764.5 -1.19678e-09 2.63808e-13)
(2764.5 -1.20936e-09 2.59596e-13)
(2764.5 -1.21978e-09 2.67126e-13)
(2764.5 -1.22853e-09 2.6324e-13)
(2764.5 -1.23569e-09 2.65923e-13)
(2764.5 -1.24324e-09 2.69866e-13)
(2764.5 -1.25156e-09 2.58264e-13)
(2764.5 -1.26195e-09 2.59383e-13)
(2764.5 -1.26662e-09 2.59355e-13)
(2764.5 -1.27097e-09 2.59994e-13)
(2764.5 -1.27821e-09 2.59811e-13)
(2764.5 -1.28647e-09 2.65382e-13)
(2764.5 -1.29793e-09 2.62953e-13)
(2764.5 -1.30818e-09 2.5515e-13)
(2764.5 -1.31518e-09 2.52358e-13)
(2764.5 -1.32548e-09 2.53043e-13)
(2764.5 -1.33562e-09 2.56035e-13)
(2764.5 -1.345e-09 2.53351e-13)
(2764.5 -1.35247e-09 2.50546e-13)
(2764.5 -1.36277e-09 2.57203e-13)
(2764.5 -1.37523e-09 2.57626e-13)
(2764.5 -1.38719e-09 2.5736e-13)
(2764.5 -1.39777e-09 2.5643e-13)
(2764.5 -1.41034e-09 2.56674e-13)
(2764.5 -1.42593e-09 2.52439e-13)
(2764.5 -1.43811e-09 2.53633e-13)
(2764.5 -1.44895e-09 2.64914e-13)
(2764.5 -1.45629e-09 2.61803e-13)
(2764.5 -1.4692e-09 2.49524e-13)
(2764.5 -1.482e-09 2.49744e-13)
(2764.5 -1.48824e-09 2.51911e-13)
(2764.5 -1.46922e-09 2.53595e-13)
(2764.5 -1.47747e-09 2.51297e-13)
(2764.5 -1.51237e-09 2.59002e-13)
(2764.5 -1.45923e-09 2.59179e-13)
(2764.5 -1.06285e-09 2.57062e-13)
(2764.5 -1.06392e-11 2.57684e-13)
(2764.5 -1.15371e-09 2.87497e-13)
(2764.5 -1.16408e-09 2.84049e-13)
(2764.5 -1.18012e-09 2.79782e-13)
(2764.5 -1.19452e-09 2.83275e-13)
(2764.5 -1.20793e-09 2.87257e-13)
(2764.5 -1.21979e-09 2.82952e-13)
(2764.5 -1.23324e-09 2.7689e-13)
(2764.5 -1.24638e-09 2.79436e-13)
(2764.5 -1.25994e-09 2.8038e-13)
(2764.5 -1.27109e-09 2.78541e-13)
(2764.5 -1.27916e-09 2.80017e-13)
(2764.5 -1.28715e-09 2.75313e-13)
(2764.5 -1.2943e-09 2.68817e-13)
(2764.5 -1.3042e-09 2.73337e-13)
(2764.5 -1.30985e-09 2.73401e-13)
(2764.5 -1.31486e-09 2.70993e-13)
(2764.5 -1.32085e-09 2.71812e-13)
(2764.5 -1.32919e-09 2.70236e-13)
(2764.5 -1.33913e-09 2.67062e-13)
(2764.5 -1.35091e-09 2.6048e-13)
(2764.5 -1.36042e-09 2.64291e-13)
(2764.5 -1.37057e-09 2.71666e-13)
(2764.5 -1.3833e-09 2.69875e-13)
(2764.5 -1.3956e-09 2.64643e-13)
(2764.5 -1.40446e-09 2.67796e-13)
(2764.5 -1.41439e-09 2.68778e-13)
(2764.5 -1.42555e-09 2.68101e-13)
(2764.5 -1.4359e-09 2.64458e-13)
(2764.5 -1.44332e-09 2.66008e-13)
(2764.5 -1.4519e-09 2.62133e-13)
(2764.5 -1.46485e-09 2.62256e-13)
(2764.5 -1.47837e-09 2.68728e-13)
(2764.5 -1.49039e-09 2.69496e-13)
(2764.5 -1.48974e-09 2.62646e-13)
(2764.5 -1.46998e-09 2.61241e-13)
(2764.5 -1.4658e-09 2.60068e-13)
(2764.5 -1.50997e-09 2.63102e-13)