/*--------------------------------*- C++ -*----------------------------------*\
| =========                 |                                                 |
| \\      /  F ield         | OpenFOAM: The Open Source CFD Toolbox           |
|  \\    /   O peration     | Version:  v1706                                 |
|   \\  /    A nd           | Web:      www.OpenFOAM.com                      |
|    \\/     M anipulation  |                                                 |
\*---------------------------------------------------------------------------*/
FoamFile
{
    version     2.0;
    format      ascii;
    class       volScalarField;
    location    "9e-06";
    object      wallHeatFlux;
}
// * * * * * * * * * * * * * * * * * * * * * * * * * * * * * * * * * * * * * //

dimensions      [1 0 -3 0 0 0 0];


internalField   uniform 0;

boundaryField
{
    cone
    {
        type            calculated;
        value           nonuniform List<scalar> 
153
(
354775
349614
344489
339401
334351
329341
324370
319441
314553
309709
304909
300154
295445
290782
286166
281597
277077
272604
268180
263805
259477
255197
250964
246777
242635
238536
234480
230463
226485
222543
218635
214757
210907
207083
203281
199500
195737
191990
188257
184540
180837
177152
173480
169829
166197
162575
158950
155234
151430
147816
144446
141308
138374
135631
133076
130711
128545
126589
124854
123351
122092
121106
120442
120128
120119
120390
120983
121928
123221
124839
126754
128928
131309
133826
136392
138901
141230
143239
144794
145751
145974
145361
143845
141393
138036
133859
128988
123584
117829
111912
106008
100275
94839.9
89797.7
85212.2
81118.6
77529.1
74439.9
71836.5
69694.8
67981.6
66654.6
65650.2
64891.4
64362.8
63997.3
63722
63467.7
63160.6
62718.8
62057.8
61101.2
59795.1
58105.5
56044.5
53662.3
51037.2
48260.4
45422.1
42600.2
39855.1
37227.8
34742.9
32412.2
30239
28221.9
26357.1
24640.7
23068.5
21636.7
20341.1
19176.9
18138.9
17220.7
16415.7
15716.7
15116.6
14609
14187.9
13847.1
13585.9
13401.9
13289.4
13245.5
13268.1
13355
13504.8
13716.7
13989.5
14322.6
14716.2
15171.2
15688.6
)
;
    }
    inlet
    {
        type            calculated;
        value           uniform 0;
    }
    rWedge
    {
        type            wedge;
    }
    lWedge
    {
        type            wedge;
    }
    outlet
    {
        type            calculated;
        value           nonuniform 0();
    }
    procBoundary2to0
    {
        type            processor;
        value           uniform 0;
    }
    procBoundary2to1
    {
        type            processor;
        value           uniform 0;
    }
    procBoundary2to3
    {
        type            processor;
        value           uniform 0;
    }
}


// ************************************************************************* //
