# Force      
# CofR       : (0.000000e+00 0.000000e+00 0.000000e+00)
#            
# Time       	(total_x total_y total_z)	(pressure_x pressure_y pressure_z)	(viscous_x viscous_y viscous_z)
1.200048e-10	(4.353013e-04 -9.028666e-04 8.554052e-23)	(4.353013e-04 -9.028666e-04 8.571151e-23)	(-3.717624e-20 7.783680e-20 -1.709912e-25)
2.640175e-10	(4.945016e-04 -1.027047e-03 9.659285e-23)	(4.360394e-04 -9.043973e-04 8.585661e-23)	(5.846222e-05 -1.226494e-04 1.073624e-23)
4.368327e-10	(4.409170e-04 -9.167387e-04 8.650516e-23)	(4.376825e-04 -9.078049e-04 8.617957e-23)	(3.234505e-06 -8.933862e-06 3.255933e-25)
6.442109e-10	(4.396987e-04 -9.138801e-04 8.712709e-23)	(4.392336e-04 -9.110218e-04 8.648446e-23)	(4.650326e-07 -2.858254e-06 6.426314e-25)
8.930545e-10	(4.401303e-04 -9.145218e-04 8.777604e-23)	(4.407402e-04 -9.141462e-04 8.678057e-23)	(-6.098084e-07 -3.756211e-07 9.954644e-25)
1.191652e-09	(4.406649e-04 -9.154280e-04 8.863851e-23)	(4.422281e-04 -9.172320e-04 8.707303e-23)	(-1.563229e-06 1.804058e-06 1.565483e-24)
1.549905e-09	(4.413849e-04 -9.167539e-04 8.919600e-23)	(4.437118e-04 -9.203091e-04 8.736464e-23)	(-2.326839e-06 3.555117e-06 1.831357e-24)
1.979715e-09	(4.421982e-04 -9.182966e-04 8.988727e-23)	(4.452005e-04 -9.233966e-04 8.765724e-23)	(-3.002298e-06 5.100000e-06 2.230023e-24)
2.495488e-09	(4.430742e-04 -9.199855e-04 9.106139e-23)	(4.467003e-04 -9.265069e-04 8.795199e-23)	(-3.626066e-06 6.521412e-06 3.109399e-24)
3.114287e-09	(4.441022e-04 -9.219900e-04 9.126289e-23)	(4.482155e-04 -9.296493e-04 8.824978e-23)	(-4.113267e-06 7.659358e-06 3.013113e-24)
3.856570e-09	(4.451380e-04 -9.240118e-04 9.105373e-23)	(4.497494e-04 -9.328305e-04 8.855124e-23)	(-4.611413e-06 8.818716e-06 2.502497e-24)
4.747575e-09	(4.462966e-04 -9.262800e-04 9.088899e-23)	(4.513030e-04 -9.360525e-04 8.885655e-23)	(-5.006472e-06 9.772579e-06 2.032437e-24)
5.816589e-09	(4.474564e-04 -9.285448e-04 9.051530e-23)	(4.528774e-04 -9.393177e-04 8.916597e-23)	(-5.421067e-06 1.077295e-05 1.349333e-24)
7.099407e-09	(4.487611e-04 -9.310938e-04 8.968468e-23)	(4.544729e-04 -9.426265e-04 8.947952e-23)	(-5.711762e-06 1.153273e-05 2.051594e-25)
8.610671e-09	(4.500710e-04 -9.336361e-04 8.874785e-23)	(4.560839e-04 -9.459677e-04 8.979615e-23)	(-6.012906e-06 1.233160e-05 -1.048297e-24)
1.034084e-08	(4.513916e-04 -9.361842e-04 8.764677e-23)	(4.577026e-04 -9.493249e-04 9.011433e-23)	(-6.311025e-06 1.314071e-05 -2.467564e-24)
1.228135e-08	(4.527293e-04 -9.387507e-04 8.439809e-23)	(4.593252e-04 -9.526902e-04 9.043331e-23)	(-6.595960e-06 1.393953e-05 -6.035216e-24)
1.430952e-08	(4.536810e-04 -9.405226e-04 8.195922e-23)	(4.609364e-04 -9.560319e-04 9.075009e-23)	(-7.255443e-06 1.550926e-05 -8.790864e-24)
1.628485e-08	(4.544764e-04 -9.419870e-04 8.069474e-23)	(4.625210e-04 -9.593185e-04 9.106169e-23)	(-8.044606e-06 1.733147e-05 -1.036696e-23)
1.822512e-08	(4.554328e-04 -9.437913e-04 7.730129e-23)	(4.640776e-04 -9.625470e-04 9.136784e-23)	(-8.644779e-06 1.875567e-05 -1.406655e-23)
2.013891e-08	(4.562374e-04 -9.452922e-04 7.494330e-23)	(4.656027e-04 -9.657103e-04 9.166785e-23)	(-9.365332e-06 2.041812e-05 -1.672455e-23)
2.203054e-08	(4.571176e-04 -9.469542e-04 7.171373e-23)	(4.670980e-04 -9.688118e-04 9.196204e-23)	(-9.980418e-06 2.185756e-05 -2.024831e-23)
2.391125e-08	(4.579396e-04 -9.485024e-04 6.894426e-23)	(4.685655e-04 -9.718557e-04 9.225081e-23)	(-1.062588e-05 2.335329e-05 -2.330655e-23)
2.578115e-08	(4.587589e-04 -9.500497e-04 6.565052e-23)	(4.700017e-04 -9.748348e-04 9.253347e-23)	(-1.124280e-05 2.478510e-05 -2.688295e-23)
2.764390e-08	(4.595947e-04 -9.516331e-04 6.242873e-23)	(4.714098e-04 -9.777554e-04 9.281063e-23)	(-1.181505e-05 2.612236e-05 -3.038190e-23)
2.950309e-08	(4.603680e-04 -9.530911e-04 5.952267e-23)	(4.727917e-04 -9.806221e-04 9.308270e-23)	(-1.242375e-05 2.753093e-05 -3.356003e-23)
3.135872e-08	(4.611514e-04 -9.545733e-04 5.639275e-23)	(4.741490e-04 -9.834376e-04 9.334995e-23)	(-1.299763e-05 2.886423e-05 -3.695720e-23)
3.321436e-08	(4.619266e-04 -9.560413e-04 5.424641e-23)	(4.754831e-04 -9.862048e-04 9.361265e-23)	(-1.355646e-05 3.016358e-05 -3.936624e-23)
3.507356e-08	(4.627001e-04 -9.575076e-04 5.106491e-23)	(4.767950e-04 -9.889263e-04 9.387103e-23)	(-1.409487e-05 3.141871e-05 -4.280612e-23)
3.693635e-08	(4.634899e-04 -9.590060e-04 4.809022e-23)	(4.780858e-04 -9.916040e-04 9.412528e-23)	(-1.459584e-05 3.259804e-05 -4.603506e-23)
3.880276e-08	(4.642456e-04 -9.604344e-04 4.529703e-23)	(4.793506e-04 -9.942279e-04 9.437446e-23)	(-1.510502e-05 3.379351e-05 -4.907743e-23)
4.067279e-08	(4.650156e-04 -9.618906e-04 4.188830e-23)	(4.805925e-04 -9.968042e-04 9.461915e-23)	(-1.557691e-05 3.491363e-05 -5.273084e-23)
4.255014e-08	(4.657163e-04 -9.632047e-04 3.894815e-23)	(4.818133e-04 -9.993369e-04 9.485972e-23)	(-1.609703e-05 3.613215e-05 -5.591157e-23)
4.443489e-08	(4.664337e-04 -9.645537e-04 3.680965e-23)	(4.830143e-04 -1.001828e-03 9.509642e-23)	(-1.658068e-05 3.727471e-05 -5.828677e-23)
4.633085e-08	(4.671453e-04 -9.658913e-04 3.350345e-23)	(4.841967e-04 -1.004281e-03 9.532948e-23)	(-1.705138e-05 3.839007e-05 -6.182603e-23)
4.823438e-08	(4.678280e-04 -9.671700e-04 3.041457e-23)	(4.853612e-04 -1.006697e-03 9.555904e-23)	(-1.753321e-05 3.952724e-05 -6.514447e-23)
5.014940e-08	(4.685306e-04 -9.684901e-04 2.579264e-23)	(4.865085e-04 -1.009078e-03 9.578526e-23)	(-1.797791e-05 4.058752e-05 -6.999262e-23)
5.207608e-08	(4.692091e-04 -9.697609e-04 2.266246e-23)	(4.876394e-04 -1.011424e-03 9.600826e-23)	(-1.843030e-05 4.166305e-05 -7.334580e-23)
5.401061e-08	(4.698705e-04 -9.709973e-04 1.811861e-23)	(4.887544e-04 -1.013737e-03 9.622814e-23)	(-1.888394e-05 4.273998e-05 -7.810953e-23)
5.595709e-08	(4.705483e-04 -9.722678e-04 1.537311e-23)	(4.898539e-04 -1.016018e-03 9.644500e-23)	(-1.930561e-05 4.375065e-05 -8.107189e-23)
5.789161e-08	(4.710968e-04 -9.732767e-04 1.139472e-23)	(4.909382e-04 -1.018268e-03 9.665889e-23)	(-1.984148e-05 4.499164e-05 -8.526418e-23)
5.981428e-08	(4.717095e-04 -9.744215e-04 8.467489e-24)	(4.920074e-04 -1.020487e-03 9.686982e-23)	(-2.029795e-05 4.606515e-05 -8.840233e-23)
6.172135e-08	(4.722624e-04 -9.754481e-04 4.350126e-24)	(4.930618e-04 -1.022674e-03 9.707785e-23)	(-2.079945e-05 4.722633e-05 -9.272772e-23)
6.362070e-08	(4.728732e-04 -9.765964e-04 -9.152528e-25)	(4.941017e-04 -1.024832e-03 9.728303e-23)	(-2.122849e-05 4.823558e-05 -9.819828e-23)
6.550856e-08	(4.734258e-04 -9.776288e-04 -5.251408e-24)	(4.951275e-04 -1.026960e-03 9.748546e-23)	(-2.170162e-05 4.933165e-05 -1.027369e-22)
6.738882e-08	(4.740175e-04 -9.787438e-04 -8.258487e-24)	(4.961394e-04 -1.029060e-03 9.768516e-23)	(-2.212185e-05 5.031634e-05 -1.059437e-22)
6.926531e-08	(4.745966e-04 -9.798350e-04 -1.031815e-23)	(4.971379e-04 -1.031132e-03 9.788224e-23)	(-2.254127e-05 5.129710e-05 -1.082004e-22)
7.113801e-08	(4.751707e-04 -9.809174e-04 -1.783632e-23)	(4.981233e-04 -1.033177e-03 9.807676e-23)	(-2.295265e-05 5.225951e-05 -1.159131e-22)
7.300695e-08	(4.757376e-04 -9.819869e-04 -2.121475e-23)	(4.990960e-04 -1.035195e-03 9.826877e-23)	(-2.335846e-05 5.320842e-05 -1.194835e-22)
7.487213e-08	(4.762916e-04 -9.830312e-04 -2.425516e-23)	(5.000563e-04 -1.037188e-03 9.845834e-23)	(-2.376466e-05 5.415663e-05 -1.227135e-22)
7.673730e-08	(4.768593e-04 -9.841046e-04 -2.813946e-23)	(5.010043e-04 -1.039155e-03 9.864552e-23)	(-2.414500e-05 5.505051e-05 -1.267850e-22)
7.860248e-08	(4.774109e-04 -9.851459e-04 -3.099278e-23)	(5.019404e-04 -1.041098e-03 9.883036e-23)	(-2.452954e-05 5.595187e-05 -1.298231e-22)
8.046766e-08	(4.779621e-04 -9.861872e-04 -3.477354e-23)	(5.028650e-04 -1.043016e-03 9.901293e-23)	(-2.490292e-05 5.682910e-05 -1.337865e-22)
8.233283e-08	(4.785048e-04 -9.872122e-04 -3.963508e-23)	(5.037782e-04 -1.044911e-03 9.919327e-23)	(-2.527341e-05 5.769918e-05 -1.388284e-22)
8.419801e-08	(4.790429e-04 -9.882288e-04 -4.260968e-23)	(5.046803e-04 -1.046783e-03 9.937144e-23)	(-2.563736e-05 5.855462e-05 -1.419811e-22)
8.606319e-08	(4.795747e-04 -9.892335e-04 -4.616881e-23)	(5.055715e-04 -1.048633e-03 9.954746e-23)	(-2.599675e-05 5.939947e-05 -1.457163e-22)
8.792837e-08	(4.801012e-04 -9.902281e-04 -5.107595e-23)	(5.064521e-04 -1.050460e-03 9.972140e-23)	(-2.635084e-05 6.023223e-05 -1.507974e-22)
8.979737e-08	(4.806408e-04 -9.912502e-04 -5.588253e-23)	(5.073222e-04 -1.052266e-03 9.989328e-23)	(-2.668131e-05 6.101588e-05 -1.557758e-22)
9.166636e-08	(4.811456e-04 -9.922015e-04 -6.042635e-23)	(5.081821e-04 -1.054051e-03 1.000632e-22)	(-2.703651e-05 6.184922e-05 -1.604895e-22)
9.353922e-08	(4.816798e-04 -9.932137e-04 -6.485445e-23)	(5.090319e-04 -1.055814e-03 1.002311e-22)	(-2.735216e-05 6.260071e-05 -1.650855e-22)
9.541207e-08	(4.821709e-04 -9.941384e-04 -6.956098e-23)	(5.098720e-04 -1.057558e-03 1.003971e-22)	(-2.770116e-05 6.341951e-05 -1.699580e-22)
9.728881e-08	(4.826960e-04 -9.951335e-04 -7.260999e-23)	(5.107024e-04 -1.059281e-03 1.005611e-22)	(-2.800637e-05 6.414783e-05 -1.731711e-22)
9.916946e-08	(4.831956e-04 -9.960763e-04 -7.865669e-23)	(5.115233e-04 -1.060985e-03 1.007234e-22)	(-2.832774e-05 6.490874e-05 -1.793800e-22)
1.010501e-07	(4.836804e-04 -9.969898e-04 -8.172029e-23)	(5.123350e-04 -1.062670e-03 1.008838e-22)	(-2.865458e-05 6.567982e-05 -1.826040e-22)
1.029347e-07	(4.841861e-04 -9.979469e-04 -8.628506e-23)	(5.131374e-04 -1.064335e-03 1.010424e-22)	(-2.895128e-05 6.638827e-05 -1.873274e-22)
1.048233e-07	(4.846732e-04 -9.988658e-04 -9.082324e-23)	(5.139309e-04 -1.065982e-03 1.011992e-22)	(-2.925774e-05 6.711634e-05 -1.920224e-22)
1.067158e-07	(4.851625e-04 -9.997897e-04 -9.549065e-23)	(5.147156e-04 -1.067611e-03 1.013543e-22)	(-2.955309e-05 6.782106e-05 -1.968449e-22)
1.086124e-07	(4.856437e-04 -1.000697e-03 -9.989836e-23)	(5.154916e-04 -1.069221e-03 1.015077e-22)	(-2.984789e-05 6.852410e-05 -2.014060e-22)
1.105130e-07	(4.861220e-04 -1.001599e-03 -1.063039e-22)	(5.162590e-04 -1.070814e-03 1.016594e-22)	(-3.013709e-05 6.921513e-05 -2.079633e-22)
1.124177e-07	(4.865949e-04 -1.002491e-03 -1.120093e-22)	(5.170181e-04 -1.072390e-03 1.018095e-22)	(-3.042317e-05 6.989921e-05 -2.138187e-22)
1.143224e-07	(4.870428e-04 -1.003332e-03 -1.160359e-22)	(5.177690e-04 -1.073949e-03 1.019579e-22)	(-3.072621e-05 7.061694e-05 -2.179938e-22)
1.162230e-07	(4.874765e-04 -1.004145e-03 -1.146929e-22)	(5.185119e-04 -1.075491e-03 1.021048e-22)	(-3.103536e-05 7.134528e-05 -2.167978e-22)
1.181195e-07	(4.879123e-04 -1.004965e-03 -1.241474e-22)	(5.192469e-04 -1.077016e-03 1.022502e-22)	(-3.133453e-05 7.205111e-05 -2.263975e-22)
1.200119e-07	(4.883416e-04 -1.005773e-03 -1.299812e-22)	(5.199740e-04 -1.078525e-03 1.023940e-22)	(-3.163238e-05 7.275238e-05 -2.323752e-22)
1.218963e-07	(4.887364e-04 -1.006512e-03 -1.357134e-22)	(5.206935e-04 -1.080019e-03 1.025363e-22)	(-3.195709e-05 7.350712e-05 -2.382496e-22)
1.237766e-07	(4.891641e-04 -1.007320e-03 -1.362305e-22)	(5.214052e-04 -1.081496e-03 1.026770e-22)	(-3.224117e-05 7.417675e-05 -2.389076e-22)
1.256569e-07	(4.895936e-04 -1.008132e-03 -1.441871e-22)	(5.221093e-04 -1.082958e-03 1.028163e-22)	(-3.251574e-05 7.482604e-05 -2.470034e-22)
1.275331e-07	(4.899968e-04 -1.008891e-03 -1.478803e-22)	(5.228060e-04 -1.084404e-03 1.029541e-22)	(-3.280926e-05 7.551303e-05 -2.508344e-22)
1.294054e-07	(4.904097e-04 -1.009672e-03 -1.517249e-22)	(5.234954e-04 -1.085835e-03 1.030905e-22)	(-3.308570e-05 7.616337e-05 -2.548153e-22)
1.312776e-07	(4.908343e-04 -1.010477e-03 -1.560055e-22)	(5.241775e-04 -1.087251e-03 1.032254e-22)	(-3.334313e-05 7.677385e-05 -2.592309e-22)
1.331459e-07	(4.912263e-04 -1.011217e-03 -1.614556e-22)	(5.248525e-04 -1.088652e-03 1.033589e-22)	(-3.362614e-05 7.743566e-05 -2.648145e-22)
1.350141e-07	(4.916516e-04 -1.012025e-03 -1.613633e-22)	(5.255203e-04 -1.090039e-03 1.034911e-22)	(-3.386876e-05 7.801363e-05 -2.648544e-22)
1.368823e-07	(4.920544e-04 -1.012788e-03 -1.690413e-22)	(5.261812e-04 -1.091411e-03 1.036219e-22)	(-3.412680e-05 7.862266e-05 -2.726631e-22)
1.387465e-07	(4.924417e-04 -1.013520e-03 -1.736302e-22)	(5.268353e-04 -1.092769e-03 1.037513e-22)	(-3.439366e-05 7.924857e-05 -2.773815e-22)
1.406107e-07	(4.928536e-04 -1.014304e-03 -1.761757e-22)	(5.274826e-04 -1.094113e-03 1.038794e-22)	(-3.462899e-05 7.980881e-05 -2.800551e-22)
1.424749e-07	(4.932473e-04 -1.015050e-03 -1.827927e-22)	(5.281231e-04 -1.095442e-03 1.040062e-22)	(-3.487581e-05 8.039209e-05 -2.867989e-22)
1.443390e-07	(4.936447e-04 -1.015805e-03 -1.870088e-22)	(5.287570e-04 -1.096758e-03 1.041317e-22)	(-3.511228e-05 8.095346e-05 -2.911404e-22)
1.462032e-07	(4.940347e-04 -1.016545e-03 -1.926853e-22)	(5.293842e-04 -1.098060e-03 1.042558e-22)	(-3.534951e-05 8.151572e-05 -2.969411e-22)
1.480674e-07	(4.944228e-04 -1.017281e-03 -1.993030e-22)	(5.300050e-04 -1.099349e-03 1.043788e-22)	(-3.558222e-05 8.206802e-05 -3.036818e-22)
1.499316e-07	(4.948063e-04 -1.018009e-03 -2.004239e-22)	(5.306194e-04 -1.100625e-03 1.045004e-22)	(-3.581307e-05 8.261578e-05 -3.049243e-22)
1.517958e-07	(4.951866e-04 -1.018731e-03 -2.100590e-22)	(5.312274e-04 -1.101887e-03 1.046208e-22)	(-3.604083e-05 8.315652e-05 -3.146798e-22)
1.536600e-07	(4.955630e-04 -1.019445e-03 -2.140530e-22)	(5.318292e-04 -1.103136e-03 1.047400e-22)	(-3.626620e-05 8.369161e-05 -3.187930e-22)
1.555242e-07	(4.959357e-04 -1.020152e-03 -2.182728e-22)	(5.324247e-04 -1.104373e-03 1.048580e-22)	(-3.648894e-05 8.422058e-05 -3.231308e-22)
1.573883e-07	(4.963048e-04 -1.020852e-03 -2.231098e-22)	(5.330141e-04 -1.105596e-03 1.049748e-22)	(-3.670930e-05 8.474389e-05 -3.280846e-22)
1.592525e-07	(4.966700e-04 -1.021546e-03 -2.292770e-22)	(5.335973e-04 -1.106807e-03 1.050904e-22)	(-3.692728e-05 8.526157e-05 -3.343674e-22)
1.611167e-07	(4.970315e-04 -1.022232e-03 -2.326829e-22)	(5.341745e-04 -1.108006e-03 1.052048e-22)	(-3.714303e-05 8.577387e-05 -3.378877e-22)
1.629809e-07	(4.973891e-04 -1.022910e-03 -2.404853e-22)	(5.347457e-04 -1.109191e-03 1.053180e-22)	(-3.735663e-05 8.628097e-05 -3.458033e-22)
1.648451e-07	(4.977428e-04 -1.023582e-03 -2.423671e-22)	(5.353110e-04 -1.110365e-03 1.054301e-22)	(-3.756822e-05 8.678312e-05 -3.477972e-22)
1.667134e-07	(4.981149e-04 -1.024291e-03 -2.488893e-22)	(5.358701e-04 -1.111526e-03 1.055410e-22)	(-3.775521e-05 8.723452e-05 -3.544303e-22)
1.685818e-07	(4.984485e-04 -1.024922e-03 -2.552960e-22)	(5.364235e-04 -1.112674e-03 1.056508e-22)	(-3.797499e-05 8.775264e-05 -3.609468e-22)
1.704501e-07	(4.987950e-04 -1.025580e-03 -2.615039e-22)	(5.369709e-04 -1.113811e-03 1.057594e-22)	(-3.817593e-05 8.823104e-05 -3.672633e-22)
1.723227e-07	(4.991513e-04 -1.026258e-03 -2.642350e-22)	(5.375124e-04 -1.114935e-03 1.058669e-22)	(-3.836116e-05 8.867676e-05 -3.701019e-22)
1.741953e-07	(4.994725e-04 -1.026865e-03 -2.735298e-22)	(5.380482e-04 -1.116047e-03 1.059733e-22)	(-3.857570e-05 8.918191e-05 -3.795030e-22)
1.760721e-07	(4.998273e-04 -1.027542e-03 -2.770322e-22)	(5.385780e-04 -1.117147e-03 1.060785e-22)	(-3.875067e-05 8.960520e-05 -3.831106e-22)
1.779489e-07	(5.001345e-04 -1.028122e-03 -2.838004e-22)	(5.391022e-04 -1.118235e-03 1.061826e-22)	(-3.896767e-05 9.011386e-05 -3.899830e-22)
1.798258e-07	(5.004581e-04 -1.028736e-03 -2.885708e-22)	(5.396207e-04 -1.119312e-03 1.062856e-22)	(-3.916263e-05 9.057590e-05 -3.948564e-22)
1.816983e-07	(5.007427e-04 -1.029272e-03 -2.950460e-22)	(5.401338e-04 -1.120377e-03 1.063876e-22)	(-3.939106e-05 9.110466e-05 -4.014336e-22)
1.835709e-07	(5.010626e-04 -1.029882e-03 -2.990782e-22)	(5.406412e-04 -1.121430e-03 1.064884e-22)	(-3.957862e-05 9.154788e-05 -4.055666e-22)
1.854391e-07	(5.013339e-04 -1.030394e-03 -3.039196e-22)	(5.411432e-04 -1.122472e-03 1.065882e-22)	(-3.980930e-05 9.207762e-05 -4.105078e-22)
1.873031e-07	(5.016218e-04 -1.030943e-03 -3.093765e-22)	(5.416398e-04 -1.123503e-03 1.066870e-22)	(-4.001799e-05 9.255991e-05 -4.160635e-22)
1.891671e-07	(5.019164e-04 -1.031506e-03 -3.151404e-22)	(5.421309e-04 -1.124522e-03 1.067846e-22)	(-4.021451e-05 9.301546e-05 -4.219250e-22)
1.910268e-07	(5.021763e-04 -1.032001e-03 -3.212371e-22)	(5.426166e-04 -1.125530e-03 1.068812e-22)	(-4.044037e-05 9.352922e-05 -4.281183e-22)
1.928822e-07	(5.024452e-04 -1.032516e-03 -3.270909e-22)	(5.430971e-04 -1.126527e-03 1.069768e-22)	(-4.065193e-05 9.401105e-05 -4.340677e-22)
1.947377e-07	(5.027236e-04 -1.033052e-03 -3.304249e-22)	(5.435722e-04 -1.127513e-03 1.070712e-22)	(-4.084854e-05 9.446035e-05 -4.374962e-22)
1.965889e-07	(5.029662e-04 -1.033517e-03 -3.388910e-22)	(5.440421e-04 -1.128488e-03 1.071647e-22)	(-4.107589e-05 9.497045e-05 -4.460558e-22)
1.984400e-07	(5.032404e-04 -1.034049e-03 -3.443587e-22)	(5.445067e-04 -1.129452e-03 1.072571e-22)	(-4.126630e-05 9.540267e-05 -4.516158e-22)
2.002912e-07	(5.034900e-04 -1.034532e-03 -3.495320e-22)	(5.449661e-04 -1.130405e-03 1.073485e-22)	(-4.147609e-05 9.587279e-05 -4.568805e-22)
2.021381e-07	(5.037046e-04 -1.034945e-03 -3.561427e-22)	(5.454207e-04 -1.131348e-03 1.074389e-22)	(-4.171605e-05 9.640336e-05 -4.635816e-22)
2.039850e-07	(5.039489e-04 -1.035420e-03 -3.617855e-22)	(5.458700e-04 -1.132280e-03 1.075282e-22)	(-4.192112e-05 9.686020e-05 -4.693137e-22)
2.058319e-07	(5.041752e-04 -1.035861e-03 -3.650645e-22)	(5.463144e-04 -1.133202e-03 1.076166e-22)	(-4.213917e-05 9.734174e-05 -4.726811e-22)
2.076788e-07	(5.044058e-04 -1.036311e-03 -3.721095e-22)	(5.467538e-04 -1.134114e-03 1.077039e-22)	(-4.234805e-05 9.780243e-05 -4.798135e-22)
2.095257e-07	(5.046288e-04 -1.036749e-03 -3.786778e-22)	(5.471884e-04 -1.135015e-03 1.077903e-22)	(-4.255964e-05 9.826647e-05 -4.864681e-22)
2.113726e-07	(5.048500e-04 -1.037185e-03 -3.831614e-22)	(5.476183e-04 -1.135907e-03 1.078757e-22)	(-4.276831e-05 9.872234e-05 -4.910372e-22)
2.132152e-07	(5.050461e-04 -1.037572e-03 -3.899435e-22)	(5.480439e-04 -1.136790e-03 1.079603e-22)	(-4.299782e-05 9.921804e-05 -4.979038e-22)
2.150578e-07	(5.052708e-04 -1.038020e-03 -3.948385e-22)	(5.484648e-04 -1.137663e-03 1.080439e-22)	(-4.319403e-05 9.964309e-05 -5.028824e-22)
2.169004e-07	(5.054768e-04 -1.038432e-03 -4.003839e-22)	(5.488813e-04 -1.138527e-03 1.081266e-22)	(-4.340454e-05 1.000952e-04 -5.085105e-22)
2.187430e-07	(5.056877e-04 -1.038855e-03 -4.074236e-22)	(5.492934e-04 -1.139382e-03 1.082084e-22)	(-4.360579e-05 1.005263e-04 -5.156321e-22)
2.205856e-07	(5.058918e-04 -1.039267e-03 -4.151484e-22)	(5.497013e-04 -1.140227e-03 1.082894e-22)	(-4.380948e-05 1.009601e-04 -5.234378e-22)
2.224282e-07	(5.060953e-04 -1.039680e-03 -4.222636e-22)	(5.501049e-04 -1.141065e-03 1.083695e-22)	(-4.400957e-05 1.013845e-04 -5.306331e-22)
2.242707e-07	(5.062956e-04 -1.040088e-03 -4.281565e-22)	(5.505044e-04 -1.141893e-03 1.084488e-22)	(-4.420881e-05 1.018049e-04 -5.366053e-22)
2.261133e-07	(5.064942e-04 -1.040495e-03 -4.339348e-22)	(5.508998e-04 -1.142713e-03 1.085273e-22)	(-4.440561e-05 1.022184e-04 -5.424620e-22)
2.279559e-07	(5.066907e-04 -1.040899e-03 -4.392661e-22)	(5.512913e-04 -1.143525e-03 1.086049e-22)	(-4.460056e-05 1.026260e-04 -5.478710e-22)
2.297985e-07	(5.068857e-04 -1.041302e-03 -4.454170e-22)	(5.516788e-04 -1.144329e-03 1.086818e-22)	(-4.479317e-05 1.030270e-04 -5.540988e-22)
2.316455e-07	(5.070979e-04 -1.041741e-03 -4.519863e-22)	(5.520623e-04 -1.145124e-03 1.087579e-22)	(-4.496431e-05 1.033829e-04 -5.607442e-22)
2.334925e-07	(5.072801e-04 -1.042120e-03 -4.585375e-22)	(5.524420e-04 -1.145911e-03 1.088332e-22)	(-4.516186e-05 1.037909e-04 -5.673707e-22)
2.353395e-07	(5.074747e-04 -1.042527e-03 -4.626671e-22)	(5.528180e-04 -1.146691e-03 1.089077e-22)	(-4.534328e-05 1.041643e-04 -5.715748e-22)
2.371865e-07	(5.076613e-04 -1.042918e-03 -4.712937e-22)	(5.531903e-04 -1.147463e-03 1.089816e-22)	(-4.552906e-05 1.045449e-04 -5.802753e-22)
2.390335e-07	(5.078503e-04 -1.043317e-03 -4.746619e-22)	(5.535591e-04 -1.148228e-03 1.090547e-22)	(-4.570873e-05 1.049114e-04 -5.837166e-22)
2.408850e-07	(5.080550e-04 -1.043747e-03 -4.823136e-22)	(5.539240e-04 -1.148985e-03 1.091271e-22)	(-4.586897e-05 1.052373e-04 -5.914407e-22)
2.427365e-07	(5.082322e-04 -1.044123e-03 -4.881609e-22)	(5.542854e-04 -1.149734e-03 1.091987e-22)	(-4.605327e-05 1.056110e-04 -5.973597e-22)
2.445880e-07	(5.084211e-04 -1.044524e-03 -4.914016e-22)	(5.546435e-04 -1.150477e-03 1.092697e-22)	(-4.622239e-05 1.059523e-04 -6.006713e-22)
2.464350e-07	(5.085853e-04 -1.044877e-03 -4.969082e-22)	(5.549985e-04 -1.151213e-03 1.093401e-22)	(-4.641319e-05 1.063358e-04 -6.062483e-22)
2.482820e-07	(5.087788e-04 -1.045291e-03 -5.015721e-22)	(5.553500e-04 -1.151942e-03 1.094098e-22)	(-4.657128e-05 1.066515e-04 -6.109819e-22)
2.501244e-07	(5.089403e-04 -1.045641e-03 -5.103790e-22)	(5.556987e-04 -1.152665e-03 1.094789e-22)	(-4.675838e-05 1.070244e-04 -6.198580e-22)
2.519669e-07	(5.091343e-04 -1.046058e-03 -5.162144e-22)	(5.560439e-04 -1.153381e-03 1.095474e-22)	(-4.690958e-05 1.073234e-04 -6.257618e-22)
2.538048e-07	(5.092951e-04 -1.046408e-03 -5.216468e-22)	(5.563863e-04 -1.154091e-03 1.096153e-22)	(-4.709121e-05 1.076825e-04 -6.312621e-22)
2.556427e-07	(5.094885e-04 -1.046826e-03 -5.263535e-22)	(5.567254e-04 -1.154794e-03 1.096825e-22)	(-4.723687e-05 1.079679e-04 -6.360360e-22)
2.574806e-07	(5.096655e-04 -1.047212e-03 -5.292517e-22)	(5.570613e-04 -1.155491e-03 1.097491e-22)	(-4.739583e-05 1.082793e-04 -6.390008e-22)
2.593140e-07	(5.098331e-04 -1.047579e-03 -5.367733e-22)	(5.573944e-04 -1.156182e-03 1.098152e-22)	(-4.756133e-05 1.086029e-04 -6.465885e-22)
2.611474e-07	(5.100207e-04 -1.047987e-03 -5.408055e-22)	(5.577244e-04 -1.156866e-03 1.098806e-22)	(-4.770368e-05 1.088787e-04 -6.506861e-22)
2.629808e-07	(5.101982e-04 -1.048376e-03 -5.483732e-22)	(5.580513e-04 -1.157544e-03 1.099454e-22)	(-4.785310e-05 1.091682e-04 -6.583186e-22)
2.648142e-07	(5.103797e-04 -1.048773e-03 -5.541876e-22)	(5.583752e-04 -1.158216e-03 1.100096e-22)	(-4.799549e-05 1.094431e-04 -6.641972e-22)
2.666430e-07	(5.105420e-04 -1.049132e-03 -5.587340e-22)	(5.586964e-04 -1.158882e-03 1.100733e-22)	(-4.815439e-05 1.097503e-04 -6.688073e-22)
2.684718e-07	(5.107285e-04 -1.049540e-03 -5.657117e-22)	(5.590145e-04 -1.159542e-03 1.101364e-22)	(-4.828603e-05 1.100018e-04 -6.758481e-22)
2.703006e-07	(5.109028e-04 -1.049924e-03 -5.713334e-22)	(5.593298e-04 -1.160195e-03 1.101989e-22)	(-4.842690e-05 1.102714e-04 -6.815324e-22)
2.721294e-07	(5.110822e-04 -1.050318e-03 -5.777544e-22)	(5.596420e-04 -1.160843e-03 1.102609e-22)	(-4.855990e-05 1.105249e-04 -6.880153e-22)
2.739583e-07	(5.112577e-04 -1.050705e-03 -5.809260e-22)	(5.599515e-04 -1.161485e-03 1.103222e-22)	(-4.869374e-05 1.107796e-04 -6.912482e-22)
2.757871e-07	(5.114339e-04 -1.051094e-03 -5.889705e-22)	(5.602580e-04 -1.162121e-03 1.103830e-22)	(-4.882411e-05 1.110270e-04 -6.993536e-22)
2.776159e-07	(5.116086e-04 -1.051479e-03 -5.929607e-22)	(5.605618e-04 -1.162751e-03 1.104433e-22)	(-4.895317e-05 1.112714e-04 -7.034040e-22)
2.794401e-07	(5.117676e-04 -1.051834e-03 -5.996254e-22)	(5.608631e-04 -1.163376e-03 1.105031e-22)	(-4.909548e-05 1.115419e-04 -7.101284e-22)
2.812643e-07	(5.119482e-04 -1.052232e-03 -6.073144e-22)	(5.611615e-04 -1.163995e-03 1.105623e-22)	(-4.921336e-05 1.117627e-04 -7.178767e-22)
2.830885e-07	(5.121180e-04 -1.052609e-03 -6.138578e-22)	(5.614572e-04 -1.164608e-03 1.106209e-22)	(-4.933925e-05 1.119993e-04 -7.244787e-22)
2.849127e-07	(5.122920e-04 -1.052994e-03 -6.186954e-22)	(5.617502e-04 -1.165216e-03 1.106790e-22)	(-4.945820e-05 1.122219e-04 -7.293744e-22)
2.867369e-07	(5.124627e-04 -1.053372e-03 -6.291256e-22)	(5.620406e-04 -1.165818e-03 1.107366e-22)	(-4.957786e-05 1.124456e-04 -7.398622e-22)
2.885611e-07	(5.126337e-04 -1.053752e-03 -6.343724e-22)	(5.623282e-04 -1.166415e-03 1.107937e-22)	(-4.969445e-05 1.126630e-04 -7.451661e-22)
2.903853e-07	(5.128033e-04 -1.054128e-03 -6.417026e-22)	(5.626132e-04 -1.167006e-03 1.108502e-22)	(-4.980986e-05 1.128778e-04 -7.525528e-22)
2.922095e-07	(5.129724e-04 -1.054503e-03 -6.468127e-22)	(5.628956e-04 -1.167591e-03 1.109063e-22)	(-4.992318e-05 1.130883e-04 -7.577190e-22)
2.940337e-07	(5.131405e-04 -1.054876e-03 -6.541445e-22)	(5.631754e-04 -1.168172e-03 1.109618e-22)	(-5.003489e-05 1.132954e-04 -7.651063e-22)
2.958579e-07	(5.133078e-04 -1.055248e-03 -6.621105e-22)	(5.634526e-04 -1.168747e-03 1.110168e-22)	(-5.014479e-05 1.134988e-04 -7.731273e-22)
2.976821e-07	(5.134743e-04 -1.055618e-03 -6.674324e-22)	(5.637273e-04 -1.169317e-03 1.110713e-22)	(-5.025301e-05 1.136986e-04 -7.785037e-22)
2.995063e-07	(5.136400e-04 -1.055986e-03 -6.722328e-22)	(5.639995e-04 -1.169881e-03 1.111253e-22)	(-5.035951e-05 1.138949e-04 -7.833582e-22)
3.013353e-07	(5.138193e-04 -1.056382e-03 -6.774334e-22)	(5.642688e-04 -1.170440e-03 1.111788e-22)	(-5.044953e-05 1.140583e-04 -7.886122e-22)
3.031643e-07	(5.139767e-04 -1.056733e-03 -6.859635e-22)	(5.645357e-04 -1.170994e-03 1.112318e-22)	(-5.055903e-05 1.142609e-04 -7.971953e-22)
3.049932e-07	(5.141423e-04 -1.057100e-03 -6.931633e-22)	(5.648002e-04 -1.171542e-03 1.112843e-22)	(-5.065787e-05 1.144421e-04 -8.044476e-22)
3.068222e-07	(5.142992e-04 -1.057450e-03 -7.013487e-22)	(5.650589e-04 -1.172079e-03 1.113356e-22)	(-5.075964e-05 1.146289e-04 -8.126843e-22)
3.086512e-07	(5.144834e-04 -1.057854e-03 -7.042569e-22)	(5.653165e-04 -1.172613e-03 1.113868e-22)	(-5.083306e-05 1.147595e-04 -8.156437e-22)
3.104753e-07	(5.145692e-04 -1.058058e-03 -7.115956e-22)	(5.655694e-04 -1.173138e-03 1.114370e-22)	(-5.100011e-05 1.150797e-04 -8.230326e-22)
3.122994e-07	(5.147851e-04 -1.058527e-03 -7.149400e-22)	(5.658181e-04 -1.173654e-03 1.114864e-22)	(-5.103303e-05 1.151267e-04 -8.264264e-22)
3.141236e-07	(5.148921e-04 -1.058773e-03 -7.226602e-22)	(5.660668e-04 -1.174170e-03 1.115358e-22)	(-5.117466e-05 1.153969e-04 -8.341960e-22)
3.159429e-07	(5.150166e-04 -1.059057e-03 -7.317119e-22)	(5.663112e-04 -1.174677e-03 1.115844e-22)	(-5.129460e-05 1.156199e-04 -8.432962e-22)
3.177622e-07	(5.152105e-04 -1.059481e-03 -7.381672e-22)	(5.665521e-04 -1.175177e-03 1.116322e-22)	(-5.134166e-05 1.156954e-04 -8.497994e-22)
3.195815e-07	(5.153226e-04 -1.059737e-03 -7.446455e-22)	(5.667899e-04 -1.175670e-03 1.116795e-22)	(-5.146722e-05 1.159323e-04 -8.563250e-22)
3.214008e-07	(5.154771e-04 -1.060081e-03 -7.518244e-22)	(5.670246e-04 -1.176157e-03 1.117261e-22)	(-5.154743e-05 1.160762e-04 -8.635505e-22)
3.232152e-07	(5.155955e-04 -1.060351e-03 -7.618535e-22)	(5.672570e-04 -1.176639e-03 1.117723e-22)	(-5.166145e-05 1.162882e-04 -8.736258e-22)
3.250296e-07	(5.157438e-04 -1.060681e-03 -7.655972e-22)	(5.674866e-04 -1.177115e-03 1.118180e-22)	(-5.174288e-05 1.164346e-04 -8.774153e-22)
3.268441e-07	(5.158780e-04 -1.060983e-03 -7.728238e-22)	(5.677138e-04 -1.177587e-03 1.118632e-22)	(-5.183580e-05 1.166038e-04 -8.846870e-22)
3.286585e-07	(5.160183e-04 -1.061297e-03 -7.801335e-22)	(5.679385e-04 -1.178053e-03 1.119079e-22)	(-5.192023e-05 1.167562e-04 -8.920415e-22)
3.304730e-07	(5.161546e-04 -1.061603e-03 -7.843711e-22)	(5.681609e-04 -1.178514e-03 1.119522e-22)	(-5.200624e-05 1.169116e-04 -8.963232e-22)
3.322874e-07	(5.162920e-04 -1.061910e-03 -7.921773e-22)	(5.683809e-04 -1.178971e-03 1.119959e-22)	(-5.208888e-05 1.170602e-04 -9.041732e-22)
3.340969e-07	(5.164143e-04 -1.062188e-03 -8.013569e-22)	(5.685991e-04 -1.179423e-03 1.120394e-22)	(-5.218475e-05 1.172349e-04 -9.133963e-22)
3.359064e-07	(5.165560e-04 -1.062505e-03 -8.055725e-22)	(5.688150e-04 -1.179871e-03 1.120824e-22)	(-5.225896e-05 1.173664e-04 -9.176549e-22)
3.377160e-07	(5.166680e-04 -1.062760e-03 -8.117559e-22)	(5.690287e-04 -1.180315e-03 1.121249e-22)	(-5.236070e-05 1.175549e-04 -9.238808e-22)
3.395255e-07	(5.167925e-04 -1.063040e-03 -8.207617e-22)	(5.692402e-04 -1.180754e-03 1.121670e-22)	(-5.244773e-05 1.177141e-04 -9.329287e-22)
3.413350e-07	(5.169160e-04 -1.063317e-03 -8.266655e-22)	(5.694496e-04 -1.181188e-03 1.122087e-22)	(-5.253364e-05 1.178710e-04 -9.388742e-22)
3.431445e-07	(5.170428e-04 -1.063601e-03 -8.319070e-22)	(5.696569e-04 -1.181618e-03 1.122500e-22)	(-5.261412e-05 1.180170e-04 -9.441570e-22)
3.449540e-07	(5.171695e-04 -1.063885e-03 -8.373304e-22)	(5.698621e-04 -1.182044e-03 1.122909e-22)	(-5.269256e-05 1.181589e-04 -9.496213e-22)
3.467635e-07	(5.172972e-04 -1.064171e-03 -8.494240e-22)	(5.700653e-04 -1.182466e-03 1.123314e-22)	(-5.276803e-05 1.182950e-04 -9.617554e-22)
3.485731e-07	(5.174249e-04 -1.064456e-03 -8.567859e-22)	(5.702664e-04 -1.182883e-03 1.123715e-22)	(-5.284150e-05 1.184269e-04 -9.691573e-22)
3.503826e-07	(5.175528e-04 -1.064742e-03 -8.617208e-22)	(5.704656e-04 -1.183296e-03 1.124112e-22)	(-5.291283e-05 1.185547e-04 -9.741320e-22)
3.521921e-07	(5.176805e-04 -1.065027e-03 -8.678290e-22)	(5.706629e-04 -1.183706e-03 1.124505e-22)	(-5.298235e-05 1.186788e-04 -9.802795e-22)
3.540016e-07	(5.178081e-04 -1.065312e-03 -8.735757e-22)	(5.708582e-04 -1.184111e-03 1.124895e-22)	(-5.305010e-05 1.187994e-04 -9.860651e-22)
3.558111e-07	(5.179354e-04 -1.065596e-03 -8.801338e-22)	(5.710516e-04 -1.184512e-03 1.125280e-22)	(-5.311621e-05 1.189167e-04 -9.926619e-22)
3.576207e-07	(5.180624e-04 -1.065879e-03 -8.867866e-22)	(5.712431e-04 -1.184910e-03 1.125662e-22)	(-5.318074e-05 1.190308e-04 -9.993529e-22)
3.594302e-07	(5.181891e-04 -1.066162e-03 -8.933469e-22)	(5.714328e-04 -1.185304e-03 1.126041e-22)	(-5.324377e-05 1.191419e-04 -1.005951e-21)
3.612397e-07	(5.183153e-04 -1.066443e-03 -8.997326e-22)	(5.716207e-04 -1.185693e-03 1.126415e-22)	(-5.330535e-05 1.192502e-04 -1.012374e-21)
3.630492e-07	(5.184412e-04 -1.066724e-03 -9.071210e-22)	(5.718067e-04 -1.186080e-03 1.126787e-22)	(-5.336553e-05 1.193556e-04 -1.019800e-21)
3.648587e-07	(5.185667e-04 -1.067004e-03 -9.122383e-22)	(5.719910e-04 -1.186462e-03 1.127154e-22)	(-5.342435e-05 1.194584e-04 -1.024954e-21)
3.666683e-07	(5.186917e-04 -1.067282e-03 -9.208188e-22)	(5.721735e-04 -1.186841e-03 1.127519e-22)	(-5.348185e-05 1.195585e-04 -1.033571e-21)
3.684778e-07	(5.188162e-04 -1.067560e-03 -9.297074e-22)	(5.723542e-04 -1.187216e-03 1.127879e-22)	(-5.353807e-05 1.196561e-04 -1.042495e-21)
3.702873e-07	(5.189402e-04 -1.067836e-03 -9.360575e-22)	(5.725332e-04 -1.187587e-03 1.128237e-22)	(-5.359305e-05 1.197512e-04 -1.048881e-21)
3.720968e-07	(5.190637e-04 -1.068112e-03 -9.416628e-22)	(5.727105e-04 -1.187955e-03 1.128590e-22)	(-5.364680e-05 1.198438e-04 -1.054522e-21)