# Moment     
# CofR       : (0.000000e+00 0.000000e+00 0.000000e+00)
#            
# Time       	(total_x total_y total_z)	(pressure_x pressure_y pressure_z)	(viscous_x viscous_y viscous_z)
1.200048e-10	(1.591421e-24 -4.104442e-24 -3.930118e-05)	(1.597427e-24 -4.117619e-24 -3.930118e-05)	(-6.005981e-27 1.317692e-26 3.406331e-21)
2.640175e-10	(1.769193e-24 -4.580559e-24 -4.470665e-05)	(1.600131e-24 -4.124589e-24 -3.936777e-05)	(1.690618e-25 -4.559703e-25 -5.338880e-06)
4.368327e-10	(1.591500e-24 -4.114842e-24 -3.988772e-05)	(1.606149e-24 -4.140101e-24 -3.951603e-05)	(-1.464971e-26 2.525978e-26 -3.716917e-07)
6.442109e-10	(1.603259e-24 -4.138331e-24 -3.976703e-05)	(1.611831e-24 -4.154746e-24 -3.965599e-05)	(-8.571889e-27 1.641496e-26 -1.110365e-07)
8.930545e-10	(1.610225e-24 -4.154358e-24 -3.979650e-05)	(1.617348e-24 -4.168969e-24 -3.979192e-05)	(-7.122967e-27 1.461041e-26 -4.572972e-09)
1.191652e-09	(1.621977e-24 -4.180616e-24 -3.983718e-05)	(1.622798e-24 -4.183016e-24 -3.992618e-05)	(-8.214914e-28 2.400307e-27 8.900379e-08)
1.549905e-09	(1.628549e-24 -4.195841e-24 -3.989595e-05)	(1.628232e-24 -4.197023e-24 -4.006005e-05)	(3.172788e-28 1.182256e-27 1.640947e-07)
1.979715e-09	(1.634667e-24 -4.210619e-24 -3.996405e-05)	(1.633684e-24 -4.211077e-24 -4.019438e-05)	(9.828560e-28 4.584854e-28 2.303291e-07)
2.495488e-09	(1.648654e-24 -4.242748e-24 -4.003843e-05)	(1.639177e-24 -4.225234e-24 -4.032969e-05)	(9.477240e-27 -1.751398e-26 2.912590e-07)
3.114287e-09	(1.644892e-24 -4.236141e-24 -4.012656e-05)	(1.644726e-24 -4.239538e-24 -4.046640e-05)	(1.667006e-28 3.397192e-27 3.398443e-07)
3.856570e-09	(1.632044e-24 -4.209775e-24 -4.021543e-05)	(1.650343e-24 -4.254017e-24 -4.060480e-05)	(-1.829880e-26 4.424169e-26 3.893712e-07)
4.747575e-09	(1.622300e-24 -4.190034e-24 -4.031508e-05)	(1.656032e-24 -4.268682e-24 -4.074498e-05)	(-3.373243e-26 7.864810e-26 4.298908e-07)
5.816589e-09	(1.606676e-24 -4.157654e-24 -4.041466e-05)	(1.661798e-24 -4.283544e-24 -4.088703e-05)	(-5.512168e-26 1.258902e-25 4.723701e-07)
7.099407e-09	(1.584780e-24 -4.111341e-24 -4.052672e-05)	(1.667640e-24 -4.298604e-24 -4.103098e-05)	(-8.286042e-26 1.872629e-25 5.042586e-07)
8.610671e-09	(1.563054e-24 -4.065085e-24 -4.063861e-05)	(1.673541e-24 -4.313813e-24 -4.117634e-05)	(-1.104863e-25 2.487281e-25 5.377253e-07)
1.034084e-08	(1.544157e-24 -4.024916e-24 -4.075089e-05)	(1.679470e-24 -4.329096e-24 -4.132240e-05)	(-1.353123e-25 3.041805e-25 5.715108e-07)
1.228135e-08	(1.479037e-24 -3.883628e-24 -4.086410e-05)	(1.685414e-24 -4.344418e-24 -4.146882e-05)	(-2.063772e-25 4.607897e-25 6.047149e-07)
1.430952e-08	(1.436683e-24 -3.790932e-24 -4.094279e-05)	(1.691317e-24 -4.359634e-24 -4.161422e-05)	(-2.546342e-25 5.687022e-25 6.714277e-07)
1.628485e-08	(1.410238e-24 -3.733645e-24 -4.100798e-05)	(1.697124e-24 -4.374603e-24 -4.175723e-05)	(-2.868863e-25 6.409576e-25 7.492501e-07)
1.822512e-08	(1.355002e-24 -3.612725e-24 -4.108790e-05)	(1.702829e-24 -4.389309e-24 -4.189771e-05)	(-3.478273e-25 7.765841e-25 8.098088e-07)
2.013891e-08	(1.317160e-24 -3.529175e-24 -4.115459e-05)	(1.708420e-24 -4.403721e-24 -4.203537e-05)	(-3.912599e-25 8.745453e-25 8.807813e-07)
2.203054e-08	(1.267753e-24 -3.420207e-24 -4.122822e-05)	(1.713903e-24 -4.417853e-24 -4.217034e-05)	(-4.461501e-25 9.976464e-25 9.421233e-07)
2.391125e-08	(1.221543e-24 -3.318959e-24 -4.129689e-05)	(1.719285e-24 -4.431726e-24 -4.230282e-05)	(-4.977423e-25 1.112766e-24 1.005931e-06)
2.578115e-08	(1.171827e-24 -3.209193e-24 -4.136546e-05)	(1.724553e-24 -4.445305e-24 -4.243248e-05)	(-5.527260e-25 1.236112e-24 1.067015e-06)
2.764390e-08	(1.122988e-24 -3.102190e-24 -4.143560e-05)	(1.729718e-24 -4.458620e-24 -4.255960e-05)	(-6.067303e-25 1.356430e-24 1.124000e-06)
2.950309e-08	(1.078122e-24 -3.003240e-24 -4.150027e-05)	(1.734789e-24 -4.471691e-24 -4.268438e-05)	(-6.566676e-25 1.468451e-24 1.184108e-06)
3.135872e-08	(1.030575e-24 -2.899148e-24 -4.156596e-05)	(1.739770e-24 -4.484531e-24 -4.280693e-05)	(-7.091952e-25 1.585383e-24 1.240973e-06)
3.321436e-08	(9.966907e-25 -2.824384e-24 -4.163102e-05)	(1.744667e-24 -4.497152e-24 -4.292740e-05)	(-7.479760e-25 1.672768e-24 1.296379e-06)
3.507356e-08	(9.456506e-25 -2.711473e-24 -4.169599e-05)	(1.749483e-24 -4.509567e-24 -4.304587e-05)	(-8.038321e-25 1.798094e-24 1.349879e-06)
3.693635e-08	(9.093413e-25 -2.629915e-24 -4.176234e-05)	(1.754222e-24 -4.521783e-24 -4.316244e-05)	(-8.448804e-25 1.891868e-24 1.400101e-06)
3.880276e-08	(8.757010e-25 -2.554300e-24 -4.182564e-05)	(1.758866e-24 -4.533755e-24 -4.327667e-05)	(-8.831653e-25 1.979455e-24 1.451030e-06)
4.067279e-08	(8.311539e-25 -2.454598e-24 -4.189017e-05)	(1.763427e-24 -4.545512e-24 -4.338884e-05)	(-9.322734e-25 2.090914e-24 1.498666e-06)
4.255014e-08	(7.867042e-25 -2.355626e-24 -4.194853e-05)	(1.767912e-24 -4.557071e-24 -4.349911e-05)	(-9.812075e-25 2.201446e-24 1.550576e-06)
4.443489e-08	(7.596806e-25 -2.295120e-24 -4.200840e-05)	(1.772324e-24 -4.568445e-24 -4.360759e-05)	(-1.012643e-24 2.273324e-24 1.599190e-06)
4.633085e-08	(7.167234e-25 -2.198031e-24 -4.206779e-05)	(1.776668e-24 -4.579643e-24 -4.371440e-05)	(-1.059945e-24 2.381613e-24 1.646615e-06)
4.823438e-08	(6.835386e-25 -2.122771e-24 -4.212461e-05)	(1.780948e-24 -4.590675e-24 -4.381960e-05)	(-1.097409e-24 2.467903e-24 1.694995e-06)
5.014940e-08	(6.115576e-25 -1.964553e-24 -4.218322e-05)	(1.785165e-24 -4.601545e-24 -4.392326e-05)	(-1.173607e-24 2.636992e-24 1.740034e-06)
5.207608e-08	(5.708363e-25 -1.872718e-24 -4.223970e-05)	(1.789322e-24 -4.612261e-24 -4.402544e-05)	(-1.218486e-24 2.739543e-24 1.785735e-06)
5.401061e-08	(5.052785e-25 -1.727772e-24 -4.229467e-05)	(1.793421e-24 -4.622827e-24 -4.412618e-05)	(-1.288142e-24 2.895056e-24 1.831505e-06)
5.595709e-08	(4.799642e-25 -1.669099e-24 -4.235113e-05)	(1.797464e-24 -4.633249e-24 -4.422553e-05)	(-1.317500e-24 2.964150e-24 1.874397e-06)
5.789161e-08	(4.246109e-25 -1.545301e-24 -4.239618e-05)	(1.801451e-24 -4.643528e-24 -4.432351e-05)	(-1.376840e-24 3.098227e-24 1.927331e-06)
5.981428e-08	(3.920119e-25 -1.470897e-24 -4.244710e-05)	(1.805384e-24 -4.653664e-24 -4.442013e-05)	(-1.413372e-24 3.182767e-24 1.973031e-06)
6.172135e-08	(3.282394e-25 -1.328602e-24 -4.249285e-05)	(1.809262e-24 -4.663661e-24 -4.451542e-05)	(-1.481023e-24 3.335059e-24 2.022567e-06)
6.362070e-08	(2.503373e-25 -1.155134e-24 -4.254386e-05)	(1.813087e-24 -4.673522e-24 -4.460939e-05)	(-1.562750e-24 3.518389e-24 2.065535e-06)
6.550856e-08	(1.911528e-25 -1.021311e-24 -4.258981e-05)	(1.816861e-24 -4.683251e-24 -4.470210e-05)	(-1.625708e-24 3.661940e-24 2.112295e-06)
6.738882e-08	(1.575021e-25 -9.451298e-25 -4.263932e-05)	(1.820585e-24 -4.692848e-24 -4.479356e-05)	(-1.663083e-24 3.747719e-24 2.154247e-06)
6.926531e-08	(1.350485e-25 -8.940264e-25 -4.268778e-05)	(1.824259e-24 -4.702320e-24 -4.488382e-05)	(-1.689211e-24 3.808294e-24 2.196034e-06)
7.113801e-08	(1.886514e-26 -6.363619e-25 -4.273584e-05)	(1.827886e-24 -4.711669e-24 -4.497289e-05)	(-1.809021e-24 4.075307e-24 2.237046e-06)
7.300695e-08	(-2.377566e-26 -5.395449e-25 -4.278333e-05)	(1.831466e-24 -4.720897e-24 -4.506081e-05)	(-1.855241e-24 4.181353e-24 2.277481e-06)
7.487213e-08	(-6.065540e-26 -4.545799e-25 -4.282972e-05)	(1.835000e-24 -4.730009e-24 -4.514761e-05)	(-1.895656e-24 4.275429e-24 2.317899e-06)
7.673730e-08	(-1.110874e-25 -3.418987e-25 -4.287735e-05)	(1.838490e-24 -4.739005e-24 -4.523332e-05)	(-1.949577e-24 4.397106e-24 2.355962e-06)
7.860248e-08	(-1.416305e-25 -2.711228e-25 -4.292359e-05)	(1.841937e-24 -4.747889e-24 -4.531795e-05)	(-1.983567e-24 4.476766e-24 2.394358e-06)
8.046766e-08	(-1.878389e-25 -1.648129e-25 -4.296982e-05)	(1.845341e-24 -4.756664e-24 -4.540153e-05)	(-2.033180e-24 4.591851e-24 2.431716e-06)
8.233283e-08	(-2.444094e-25 -3.622575e-26 -4.301532e-05)	(1.848703e-24 -4.765332e-24 -4.548409e-05)	(-2.093113e-24 4.729107e-24 2.468770e-06)
8.419801e-08	(-2.855925e-25 5.742025e-26 -4.306046e-05)	(1.852025e-24 -4.773896e-24 -4.556565e-05)	(-2.137618e-24 4.831316e-24 2.505198e-06)
8.606319e-08	(-3.256050e-25 1.495889e-25 -4.310506e-05)	(1.855308e-24 -4.782357e-24 -4.564624e-05)	(-2.180913e-24 4.931946e-24 2.541175e-06)
8.792837e-08	(-4.031495e-25 3.233784e-25 -4.314922e-05)	(1.858551e-24 -4.790718e-24 -4.572586e-05)	(-2.261701e-24 5.114096e-24 2.576634e-06)
8.979737e-08	(-4.640540e-25 4.614129e-25 -4.319457e-05)	(1.861756e-24 -4.798979e-24 -4.580453e-05)	(-2.325810e-24 5.260392e-24 2.609963e-06)
9.166636e-08	(-5.319659e-25 6.134559e-25 -4.323683e-05)	(1.864924e-24 -4.807146e-24 -4.588229e-05)	(-2.396890e-24 5.420602e-24 2.645459e-06)
9.353922e-08	(-5.831643e-25 7.313940e-25 -4.328174e-05)	(1.868055e-24 -4.815217e-24 -4.595914e-05)	(-2.451219e-24 5.546611e-24 2.677404e-06)
9.541207e-08	(-6.425099e-25 8.657492e-25 -4.332283e-05)	(1.871150e-24 -4.823196e-24 -4.603511e-05)	(-2.513660e-24 5.688945e-24 2.712279e-06)
9.728881e-08	(-6.740841e-25 9.383819e-25 -4.336698e-05)	(1.874210e-24 -4.831083e-24 -4.611021e-05)	(-2.548294e-24 5.769465e-24 2.743230e-06)
9.916946e-08	(-7.571993e-25 1.125715e-24 -4.340886e-05)	(1.877235e-24 -4.838881e-24 -4.618445e-05)	(-2.634434e-24 5.964596e-24 2.775594e-06)
1.010501e-07	(-8.031996e-25 1.229226e-24 -4.344944e-05)	(1.880226e-24 -4.846592e-24 -4.625786e-05)	(-2.683426e-24 6.075818e-24 2.808415e-06)
1.029347e-07	(-8.560662e-25 1.350324e-24 -4.349192e-05)	(1.883184e-24 -4.854216e-24 -4.633044e-05)	(-2.739250e-24 6.204541e-24 2.838515e-06)
1.048233e-07	(-9.169988e-25 1.488808e-24 -4.353274e-05)	(1.886109e-24 -4.861756e-24 -4.640221e-05)	(-2.803108e-24 6.350564e-24 2.869469e-06)
1.067158e-07	(-9.791469e-25 1.630370e-24 -4.357377e-05)	(1.889001e-24 -4.869212e-24 -4.647318e-05)	(-2.868148e-24 6.499582e-24 2.899414e-06)
1.086124e-07	(-1.029522e-24 1.745558e-24 -4.361408e-05)	(1.891862e-24 -4.876587e-24 -4.654337e-05)	(-2.921384e-24 6.622145e-24 2.929288e-06)
1.105130e-07	(-1.112378e-24 1.933655e-24 -4.365415e-05)	(1.894692e-24 -4.883881e-24 -4.661279e-05)	(-3.007069e-24 6.817536e-24 2.958643e-06)
1.124177e-07	(-1.189318e-24 2.107417e-24 -4.369376e-05)	(1.897490e-24 -4.891096e-24 -4.668146e-05)	(-3.086808e-24 6.998513e-24 2.987700e-06)
1.143224e-07	(-1.227498e-24 2.198137e-24 -4.373116e-05)	(1.900259e-24 -4.898234e-24 -4.674939e-05)	(-3.127758e-24 7.096370e-24 3.018228e-06)
1.162230e-07	(-1.170485e-24 2.078853e-24 -4.376736e-05)	(1.902999e-24 -4.905296e-24 -4.681660e-05)	(-3.073484e-24 6.984149e-24 3.049235e-06)
1.181195e-07	(-1.333681e-24 2.441506e-24 -4.380381e-05)	(1.905710e-24 -4.912283e-24 -4.688309e-05)	(-3.239391e-24 7.353789e-24 3.079279e-06)
1.200119e-07	(-1.390631e-24 2.573314e-24 -4.383973e-05)	(1.908391e-24 -4.919196e-24 -4.694887e-05)	(-3.299022e-24 7.492510e-24 3.109139e-06)
1.218963e-07	(-1.472180e-24 2.757296e-24 -4.387263e-05)	(1.911045e-24 -4.926038e-24 -4.701396e-05)	(-3.383225e-24 7.683334e-24 3.141336e-06)
1.237766e-07	(-1.487372e-24 2.794714e-24 -4.390851e-05)	(1.913671e-24 -4.932806e-24 -4.707836e-05)	(-3.401043e-24 7.727520e-24 3.169848e-06)
1.256569e-07	(-1.578820e-24 3.001418e-24 -4.394459e-05)	(1.916268e-24 -4.939502e-24 -4.714207e-05)	(-3.495089e-24 7.940920e-24 3.197476e-06)
1.275331e-07	(-1.611807e-24 3.080482e-24 -4.397835e-05)	(1.918839e-24 -4.946128e-24 -4.720511e-05)	(-3.530645e-24 8.026610e-24 3.226755e-06)
1.294054e-07	(-1.645467e-24 3.160938e-24 -4.401303e-05)	(1.921382e-24 -4.952685e-24 -4.726749e-05)	(-3.566850e-24 8.113623e-24 3.254455e-06)
1.312776e-07	(-1.695017e-24 3.276065e-24 -4.404878e-05)	(1.923899e-24 -4.959172e-24 -4.732921e-05)	(-3.618916e-24 8.235237e-24 3.280426e-06)
1.331459e-07	(-1.762685e-24 3.429985e-24 -4.408165e-05)	(1.926390e-24 -4.965593e-24 -4.739029e-05)	(-3.689075e-24 8.395578e-24 3.308638e-06)
1.350141e-07	(-1.739224e-24 3.383958e-24 -4.411751e-05)	(1.928854e-24 -4.971947e-24 -4.745072e-05)	(-3.668078e-24 8.355905e-24 3.333215e-06)
1.368823e-07	(-1.845194e-24 3.621393e-24 -4.415139e-05)	(1.931294e-24 -4.978235e-24 -4.751053e-05)	(-3.776487e-24 8.599628e-24 3.359142e-06)
1.387465e-07	(-1.896916e-24 3.742452e-24 -4.418391e-05)	(1.933708e-24 -4.984459e-24 -4.756973e-05)	(-3.830624e-24 8.726911e-24 3.385818e-06)
1.406107e-07	(-1.914257e-24 3.786266e-24 -4.421866e-05)	(1.936097e-24 -4.990618e-24 -4.762831e-05)	(-3.850354e-24 8.776884e-24 3.409641e-06)
1.424749e-07	(-2.000936e-24 3.983529e-24 -4.425181e-05)	(1.938462e-24 -4.996714e-24 -4.768628e-05)	(-3.939398e-24 8.980243e-24 3.434467e-06)
1.443390e-07	(-2.045088e-24 4.087733e-24 -4.428530e-05)	(1.940803e-24 -5.002748e-24 -4.774365e-05)	(-3.985890e-24 9.090481e-24 3.458346e-06)
1.462032e-07	(-2.105049e-24 4.226581e-24 -4.431816e-05)	(1.943119e-24 -5.008719e-24 -4.780042e-05)	(-4.048168e-24 9.235301e-24 3.482265e-06)
1.480674e-07	(-2.193191e-24 4.427308e-24 -4.435086e-05)	(1.945412e-24 -5.014630e-24 -4.785662e-05)	(-4.138603e-24 9.441938e-24 3.505757e-06)
1.499316e-07	(-2.195894e-24 4.438441e-24 -4.438317e-05)	(1.947681e-24 -5.020480e-24 -4.791223e-05)	(-4.143575e-24 9.458921e-24 3.529055e-06)
1.517958e-07	(-2.322249e-24 4.723077e-24 -4.441522e-05)	(1.949928e-24 -5.026270e-24 -4.796727e-05)	(-4.272176e-24 9.749347e-24 3.552051e-06)
1.536600e-07	(-2.359411e-24 4.811658e-24 -4.444693e-05)	(1.952151e-24 -5.032002e-24 -4.802174e-05)	(-4.311562e-24 9.843660e-24 3.574807e-06)
1.555242e-07	(-2.406841e-24 4.923020e-24 -4.447835e-05)	(1.954352e-24 -5.037675e-24 -4.807565e-05)	(-4.361193e-24 9.960695e-24 3.597300e-06)
1.573883e-07	(-2.457990e-24 5.043052e-24 -4.450946e-05)	(1.956530e-24 -5.043290e-24 -4.812901e-05)	(-4.414520e-24 1.008634e-23 3.619551e-06)
1.592525e-07	(-2.531629e-24 5.212864e-24 -4.454026e-05)	(1.958686e-24 -5.048848e-24 -4.818182e-05)	(-4.490315e-24 1.026171e-23 3.641560e-06)
1.611167e-07	(-2.573517e-24 5.311292e-24 -4.457074e-05)	(1.960820e-24 -5.054350e-24 -4.823408e-05)	(-4.534337e-24 1.036564e-23 3.663339e-06)
1.629809e-07	(-2.676605e-24 5.545338e-24 -4.460090e-05)	(1.962932e-24 -5.059795e-24 -4.828580e-05)	(-4.639537e-24 1.060513e-23 3.684895e-06)
1.648451e-07	(-2.677984e-24 5.555413e-24 -4.463074e-05)	(1.965023e-24 -5.065184e-24 -4.833698e-05)	(-4.643007e-24 1.062060e-23 3.706238e-06)
1.667134e-07	(-2.767774e-24 5.757997e-24 -4.466224e-05)	(1.967092e-24 -5.070517e-24 -4.838761e-05)	(-4.734865e-24 1.082851e-23 3.725371e-06)
1.685818e-07	(-2.842517e-24 5.930855e-24 -4.469031e-05)	(1.969139e-24 -5.075795e-24 -4.843771e-05)	(-4.811656e-24 1.100665e-23 3.747404e-06)
1.704501e-07	(-2.919442e-24 6.107005e-24 -4.471958e-05)	(1.971165e-24 -5.081018e-24 -4.848729e-05)	(-4.890607e-24 1.118802e-23 3.767718e-06)
1.723227e-07	(-2.945954e-24 6.172617e-24 -4.474973e-05)	(1.973170e-24 -5.086186e-24 -4.853633e-05)	(-4.919124e-24 1.125880e-23 3.786602e-06)
1.741953e-07	(-3.071162e-24 6.455756e-24 -4.477678e-05)	(1.975154e-24 -5.091300e-24 -4.858485e-05)	(-5.046316e-24 1.154706e-23 3.808074e-06)
1.760721e-07	(-3.104269e-24 6.534271e-24 -4.480685e-05)	(1.977116e-24 -5.096358e-24 -4.863283e-05)	(-5.081385e-24 1.163063e-23 3.825984e-06)
1.779489e-07	(-3.191594e-24 6.735529e-24 -4.483270e-05)	(1.979058e-24 -5.101364e-24 -4.868031e-05)	(-5.170652e-24 1.183689e-23 3.847607e-06)
1.798258e-07	(-3.246664e-24 6.863938e-24 -4.486006e-05)	(1.980980e-24 -5.106317e-24 -4.872727e-05)	(-5.227644e-24 1.197025e-23 3.867213e-06)
1.816983e-07	(-3.324539e-24 7.044055e-24 -4.488401e-05)	(1.982881e-24 -5.111219e-24 -4.877374e-05)	(-5.307421e-24 1.215527e-23 3.889731e-06)
1.835709e-07	(-3.363304e-24 7.137076e-24 -4.491116e-05)	(1.984762e-24 -5.116067e-24 -4.881969e-05)	(-5.348066e-24 1.225314e-23 3.908539e-06)
1.854391e-07	(-3.412606e-24 7.253332e-24 -4.493404e-05)	(1.986624e-24 -5.120866e-24 -4.886516e-05)	(-5.399230e-24 1.237420e-23 3.931123e-06)
1.873031e-07	(-3.479336e-24 7.408574e-24 -4.495848e-05)	(1.988466e-24 -5.125612e-24 -4.891014e-05)	(-5.467802e-24 1.253419e-23 3.951667e-06)
1.891671e-07	(-3.542348e-24 7.556003e-24 -4.498356e-05)	(1.990287e-24 -5.130306e-24 -4.895461e-05)	(-5.532635e-24 1.268631e-23 3.971052e-06)
1.910268e-07	(-3.614677e-24 7.722648e-24 -4.500561e-05)	(1.992088e-24 -5.134951e-24 -4.899861e-05)	(-5.606765e-24 1.285760e-23 3.992998e-06)
1.928822e-07	(-3.683952e-24 7.882889e-24 -4.502854e-05)	(1.993871e-24 -5.139544e-24 -4.904212e-05)	(-5.677823e-24 1.302243e-23 4.013579e-06)
1.947377e-07	(-3.706886e-24 7.942000e-24 -4.505237e-05)	(1.995633e-24 -5.144086e-24 -4.908513e-05)	(-5.702519e-24 1.308609e-23 4.032761e-06)
1.965889e-07	(-3.819460e-24 8.198005e-24 -4.507306e-05)	(1.997376e-24 -5.148578e-24 -4.912769e-05)	(-5.816836e-24 1.334658e-23 4.054622e-06)
1.984400e-07	(-3.871913e-24 8.322081e-24 -4.509663e-05)	(1.999099e-24 -5.153020e-24 -4.916975e-05)	(-5.871012e-24 1.347510e-23 4.073115e-06)
2.002912e-07	(-3.939123e-24 8.477639e-24 -4.511806e-05)	(2.000803e-24 -5.157411e-24 -4.921134e-05)	(-5.939925e-24 1.363505e-23 4.093284e-06)
2.021381e-07	(-4.018069e-24 8.660043e-24 -4.513637e-05)	(2.002488e-24 -5.161755e-24 -4.925249e-05)	(-6.020557e-24 1.382180e-23 4.116115e-06)
2.039850e-07	(-4.072152e-24 8.787921e-24 -4.515740e-05)	(2.004154e-24 -5.166048e-24 -4.929316e-05)	(-6.076307e-24 1.395397e-23 4.135759e-06)
2.058319e-07	(-4.102505e-24 8.863510e-24 -4.517687e-05)	(2.005802e-24 -5.170294e-24 -4.933338e-05)	(-6.108307e-24 1.403380e-23 4.156508e-06)
2.076788e-07	(-4.184693e-24 9.053927e-24 -4.519676e-05)	(2.007430e-24 -5.174491e-24 -4.937315e-05)	(-6.192124e-24 1.422842e-23 4.176383e-06)
2.095257e-07	(-4.257353e-24 9.222042e-24 -4.521604e-05)	(2.009041e-24 -5.178642e-24 -4.941248e-05)	(-6.266394e-24 1.440068e-23 4.196435e-06)
2.113726e-07	(-4.297490e-24 9.319293e-24 -4.523521e-05)	(2.010634e-24 -5.182746e-24 -4.945137e-05)	(-6.308124e-24 1.450204e-23 4.216164e-06)
2.132152e-07	(-4.394324e-24 9.538871e-24 -4.525220e-05)	(2.012210e-24 -5.186808e-24 -4.948987e-05)	(-6.406534e-24 1.472568e-23 4.237670e-06)
2.150578e-07	(-4.451139e-24 9.671469e-24 -4.527183e-05)	(2.013769e-24 -5.190825e-24 -4.952795e-05)	(-6.464907e-24 1.486229e-23 4.256127e-06)
2.169004e-07	(-4.493130e-24 9.775666e-24 -4.528984e-05)	(2.015311e-24 -5.194799e-24 -4.956563e-05)	(-6.508441e-24 1.497047e-23 4.275793e-06)
2.187430e-07	(-4.581415e-24 9.979368e-24 -4.530833e-05)	(2.016836e-24 -5.198730e-24 -4.960290e-05)	(-6.598251e-24 1.517810e-23 4.294571e-06)
2.205856e-07	(-4.676518e-24 1.019784e-23 -4.532630e-05)	(2.018345e-24 -5.202619e-24 -4.963979e-05)	(-6.694863e-24 1.540046e-23 4.313493e-06)
2.224282e-07	(-4.768814e-24 1.041000e-23 -4.534426e-05)	(2.019838e-24 -5.206468e-24 -4.967629e-05)	(-6.788652e-24 1.561647e-23 4.332031e-06)
2.242707e-07	(-4.833654e-24 1.056217e-23 -4.536199e-05)	(2.021316e-24 -5.210276e-24 -4.971242e-05)	(-6.854970e-24 1.577244e-23 4.350422e-06)
2.261133e-07	(-4.899735e-24 1.071555e-23 -4.537964e-05)	(2.022779e-24 -5.214045e-24 -4.974817e-05)	(-6.922513e-24 1.592960e-23 4.368530e-06)
2.279559e-07	(-4.959896e-24 1.085743e-23 -4.539717e-05)	(2.024226e-24 -5.217775e-24 -4.978357e-05)	(-6.984122e-24 1.607521e-23 4.386405e-06)
2.297985e-07	(-5.026743e-24 1.101527e-23 -4.541461e-05)	(2.025659e-24 -5.221468e-24 -4.981861e-05)	(-7.052402e-24 1.623673e-23 4.404006e-06)
2.316455e-07	(-5.112272e-24 1.121209e-23 -4.543363e-05)	(2.027077e-24 -5.225121e-24 -4.985328e-05)	(-7.139349e-24 1.643721e-23 4.419653e-06)
2.334925e-07	(-5.182006e-24 1.137427e-23 -4.545002e-05)	(2.028480e-24 -5.228738e-24 -4.988761e-05)	(-7.210487e-24 1.660301e-23 4.437586e-06)
2.353395e-07	(-5.211222e-24 1.144945e-23 -4.546757e-05)	(2.029870e-24 -5.232319e-24 -4.992160e-05)	(-7.241092e-24 1.668176e-23 4.454028e-06)
2.371865e-07	(-5.324184e-24 1.170780e-23 -4.548447e-05)	(2.031246e-24 -5.235865e-24 -4.995526e-05)	(-7.355430e-24 1.694367e-23 4.470787e-06)
2.390335e-07	(-5.339605e-24 1.175197e-23 -4.550165e-05)	(2.032609e-24 -5.239377e-24 -4.998860e-05)	(-7.372214e-24 1.699135e-23 4.486951e-06)
2.408850e-07	(-5.429843e-24 1.196249e-23 -4.552024e-05)	(2.033958e-24 -5.242852e-24 -5.002159e-05)	(-7.463801e-24 1.720534e-23 4.501350e-06)
2.427365e-07	(-5.492456e-24 1.210975e-23 -4.553644e-05)	(2.035293e-24 -5.246294e-24 -5.005427e-05)	(-7.527750e-24 1.735604e-23 4.517829e-06)
2.445880e-07	(-5.526998e-24 1.219325e-23 -4.555372e-05)	(2.036616e-24 -5.249703e-24 -5.008663e-05)	(-7.563614e-24 1.744296e-23 4.532914e-06)
2.464350e-07	(-5.584237e-24 1.232896e-23 -4.556889e-05)	(2.037928e-24 -5.253084e-24 -5.011872e-05)	(-7.622165e-24 1.758205e-23 4.549837e-06)
2.482820e-07	(-5.619066e-24 1.241853e-23 -4.558668e-05)	(2.039227e-24 -5.256431e-24 -5.015051e-05)	(-7.658293e-24 1.767496e-23 4.563825e-06)
2.501244e-07	(-5.742545e-24 1.269746e-23 -4.560173e-05)	(2.040515e-24 -5.259751e-24 -5.018202e-05)	(-7.783060e-24 1.795721e-23 4.580296e-06)
2.519669e-07	(-5.797363e-24 1.282941e-23 -4.561966e-05)	(2.041791e-24 -5.263038e-24 -5.021323e-05)	(-7.839154e-24 1.809245e-23 4.593570e-06)
2.538048e-07	(-5.879054e-24 1.301662e-23 -4.563474e-05)	(2.043056e-24 -5.266298e-24 -5.024419e-05)	(-7.922110e-24 1.828292e-23 4.609448e-06)
2.556427e-07	(-5.898684e-24 1.307215e-23 -4.565270e-05)	(2.044309e-24 -5.269527e-24 -5.027484e-05)	(-7.942993e-24 1.834168e-23 4.622139e-06)
2.574806e-07	(-5.908739e-24 1.310488e-23 -4.566927e-05)	(2.045551e-24 -5.272726e-24 -5.030521e-05)	(-7.954290e-24 1.837760e-23 4.635947e-06)
2.593140e-07	(-5.988607e-24 1.329223e-23 -4.568504e-05)	(2.046782e-24 -5.275898e-24 -5.033533e-05)	(-8.035388e-24 1.856813e-23 4.650294e-06)
2.611474e-07	(-6.018116e-24 1.336818e-23 -4.570259e-05)	(2.048001e-24 -5.279040e-24 -5.036516e-05)	(-8.066117e-24 1.864722e-23 4.662569e-06)
2.629808e-07	(-6.124417e-24 1.361015e-23 -4.571928e-05)	(2.049209e-24 -5.282153e-24 -5.039472e-05)	(-8.173626e-24 1.889230e-23 4.675434e-06)
2.648142e-07	(-6.166739e-24 1.371633e-23 -4.573634e-05)	(2.050406e-24 -5.285237e-24 -5.042400e-05)	(-8.217145e-24 1.900157e-23 4.687662e-06)
2.666430e-07	(-6.208250e-24 1.381871e-23 -4.575175e-05)	(2.051593e-24 -5.288296e-24 -5.045304e-05)	(-8.259843e-24 1.910700e-23 4.701289e-06)
2.684718e-07	(-6.293921e-24 1.401502e-23 -4.576929e-05)	(2.052769e-24 -5.291326e-24 -5.048180e-05)	(-8.346690e-24 1.930635e-23 4.712513e-06)
2.703006e-07	(-6.349822e-24 1.414783e-23 -4.578580e-05)	(2.053934e-24 -5.294328e-24 -5.051031e-05)	(-8.403756e-24 1.944216e-23 4.724509e-06)
2.721294e-07	(-6.419412e-24 1.431241e-23 -4.580273e-05)	(2.055088e-24 -5.297302e-24 -5.053854e-05)	(-8.474500e-24 1.960972e-23 4.735809e-06)
2.739583e-07	(-6.438986e-24 1.436561e-23 -4.581937e-05)	(2.056232e-24 -5.300250e-24 -5.056652e-05)	(-8.495217e-24 1.966586e-23 4.747156e-06)
2.757871e-07	(-6.544434e-24 1.460564e-23 -4.583605e-05)	(2.057365e-24 -5.303170e-24 -5.059424e-05)	(-8.601799e-24 1.990881e-23 4.758188e-06)
2.776159e-07	(-6.587640e-24 1.471165e-23 -4.585262e-05)	(2.058488e-24 -5.306063e-24 -5.062171e-05)	(-8.646128e-24 2.001772e-23 4.769085e-06)
2.794401e-07	(-6.661228e-24 1.488459e-23 -4.586785e-05)	(2.059602e-24 -5.308933e-24 -5.064895e-05)	(-8.720830e-24 2.019352e-23 4.781105e-06)
2.812643e-07	(-6.749401e-24 1.508886e-23 -4.588495e-05)	(2.060705e-24 -5.311777e-24 -5.067594e-05)	(-8.810106e-24 2.040063e-23 4.790986e-06)
2.830885e-07	(-6.826704e-24 1.526953e-23 -4.590115e-05)	(2.061799e-24 -5.314594e-24 -5.070268e-05)	(-8.888503e-24 2.058412e-23 4.801537e-06)
2.849127e-07	(-6.866249e-24 1.536587e-23 -4.591770e-05)	(2.062882e-24 -5.317386e-24 -5.072918e-05)	(-8.929131e-24 2.068325e-23 4.811484e-06)
2.867369e-07	(-7.002349e-24 1.567585e-23 -4.593396e-05)	(2.063955e-24 -5.320152e-24 -5.075543e-05)	(-9.066304e-24 2.099600e-23 4.821473e-06)
2.885611e-07	(-7.061490e-24 1.581646e-23 -4.595026e-05)	(2.065019e-24 -5.322893e-24 -5.078145e-05)	(-9.126509e-24 2.113935e-23 4.831190e-06)
2.903853e-07	(-7.149925e-24 1.602139e-23 -4.596643e-05)	(2.066073e-24 -5.325609e-24 -5.080722e-05)	(-9.215998e-24 2.134700e-23 4.840791e-06)
2.922095e-07	(-7.179295e-24 1.609948e-23 -4.598256e-05)	(2.067117e-24 -5.328300e-24 -5.083276e-05)	(-9.246413e-24 2.142778e-23 4.850202e-06)
2.940337e-07	(-7.262137e-24 1.629163e-23 -4.599861e-05)	(2.068152e-24 -5.330966e-24 -5.085807e-05)	(-9.330290e-24 2.162259e-23 4.859463e-06)
2.958579e-07	(-7.356916e-24 1.651253e-23 -4.601459e-05)	(2.069178e-24 -5.333609e-24 -5.088314e-05)	(-9.426094e-24 2.184614e-23 4.868558e-06)
2.976821e-07	(-7.407911e-24 1.663507e-23 -4.603049e-05)	(2.070194e-24 -5.336227e-24 -5.090799e-05)	(-9.478105e-24 2.197130e-23 4.877498e-06)
2.995063e-07	(-7.456417e-24 1.675290e-23 -4.604633e-05)	(2.071201e-24 -5.338821e-24 -5.093261e-05)	(-9.527618e-24 2.209173e-23 4.886282e-06)
3.013353e-07	(-7.497885e-24 1.685520e-23 -4.606332e-05)	(2.072197e-24 -5.341389e-24 -5.095697e-05)	(-9.570082e-24 2.219659e-23 4.893649e-06)
3.031643e-07	(-7.598595e-24 1.708855e-23 -4.607843e-05)	(2.073185e-24 -5.343933e-24 -5.098111e-05)	(-9.671780e-24 2.243249e-23 4.902686e-06)
3.049932e-07	(-7.695307e-24 1.731170e-23 -4.609423e-05)	(2.074163e-24 -5.346455e-24 -5.100504e-05)	(-9.769471e-24 2.265816e-23 4.910812e-06)
3.068222e-07	(-7.772458e-24 1.749346e-23 -4.610927e-05)	(2.075120e-24 -5.348921e-24 -5.102844e-05)	(-9.847578e-24 2.284238e-23 4.919168e-06)
3.086512e-07	(-7.780733e-24 1.752458e-23 -4.612668e-05)	(2.076074e-24 -5.351378e-24 -5.105174e-05)	(-9.856807e-24 2.287595e-23 4.925070e-06)
3.104753e-07	(-7.868851e-24 1.772924e-23 -4.613540e-05)	(2.077010e-24 -5.353790e-24 -5.107462e-05)	(-9.945861e-24 2.308303e-23 4.939216e-06)
3.122994e-07	(-7.889341e-24 1.778348e-23 -4.615563e-05)	(2.077931e-24 -5.356163e-24 -5.109713e-05)	(-9.967272e-24 2.313965e-23 4.941491e-06)
3.141236e-07	(-7.962953e-24 1.796083e-23 -4.616617e-05)	(2.078851e-24 -5.358536e-24 -5.111963e-05)	(-1.004180e-23 2.331937e-23 4.953453e-06)
3.159429e-07	(-8.088127e-24 1.824641e-23 -4.617837e-05)	(2.079757e-24 -5.360869e-24 -5.114175e-05)	(-1.016788e-23 2.360728e-23 4.963376e-06)
3.177622e-07	(-8.153027e-24 1.840043e-23 -4.619667e-05)	(2.080649e-24 -5.363168e-24 -5.116354e-05)	(-1.023368e-23 2.376360e-23 4.966877e-06)
3.195815e-07	(-8.214018e-24 1.854551e-23 -4.620766e-05)	(2.081530e-24 -5.365437e-24 -5.118506e-05)	(-1.029555e-23 2.391094e-23 4.977395e-06)
3.214008e-07	(-8.284877e-24 1.871418e-23 -4.622243e-05)	(2.082399e-24 -5.367678e-24 -5.120630e-05)	(-1.036728e-23 2.408186e-23 4.983867e-06)
3.232152e-07	(-8.402406e-24 1.898681e-23 -4.623405e-05)	(2.083260e-24 -5.369897e-24 -5.122733e-05)	(-1.048567e-23 2.435670e-23 4.993282e-06)
3.250296e-07	(-8.431872e-24 1.906239e-23 -4.624824e-05)	(2.084112e-24 -5.372091e-24 -5.124812e-05)	(-1.051598e-23 2.443449e-23 4.999875e-06)
3.268441e-07	(-8.512938e-24 1.925348e-23 -4.626125e-05)	(2.084954e-24 -5.374261e-24 -5.126868e-05)	(-1.059789e-23 2.462774e-23 5.007434e-06)
3.286585e-07	(-8.584828e-24 1.942404e-23 -4.627475e-05)	(2.085787e-24 -5.376408e-24 -5.128902e-05)	(-1.067062e-23 2.480045e-23 5.014273e-06)
3.304730e-07	(-8.621148e-24 1.951664e-23 -4.628792e-05)	(2.086611e-24 -5.378532e-24 -5.130915e-05)	(-1.070776e-23 2.489517e-23 5.021232e-06)
3.322874e-07	(-8.714922e-24 1.973208e-23 -4.630117e-05)	(2.087427e-24 -5.380635e-24 -5.132907e-05)	(-1.080235e-23 2.511272e-23 5.027904e-06)
3.340969e-07	(-8.820587e-24 1.997728e-23 -4.631314e-05)	(2.088237e-24 -5.382720e-24 -5.134882e-05)	(-1.090882e-23 2.536000e-23 5.035684e-06)
3.359064e-07	(-8.846296e-24 2.004493e-23 -4.632675e-05)	(2.089038e-24 -5.384784e-24 -5.136837e-05)	(-1.093533e-23 2.542972e-23 5.041618e-06)
3.377160e-07	(-8.915501e-24 2.020943e-23 -4.633772e-05)	(2.089831e-24 -5.386828e-24 -5.138772e-05)	(-1.100533e-23 2.559626e-23 5.050001e-06)
3.395255e-07	(-9.017320e-24 2.044638e-23 -4.634976e-05)	(2.090615e-24 -5.388850e-24 -5.140687e-05)	(-1.110794e-23 2.583523e-23 5.057117e-06)
3.413350e-07	(-9.079835e-24 2.059615e-23 -4.636172e-05)	(2.091392e-24 -5.390852e-24 -5.142583e-05)	(-1.117123e-23 2.598700e-23 5.064114e-06)
3.431445e-07	(-9.125895e-24 2.070843e-23 -4.637395e-05)	(2.092162e-24 -5.392835e-24 -5.144460e-05)	(-1.121806e-23 2.610127e-23 5.070647e-06)
3.449540e-07	(-9.179856e-24 2.083946e-23 -4.638619e-05)	(2.092923e-24 -5.394798e-24 -5.146318e-05)	(-1.127278e-23 2.623426e-23 5.076993e-06)
3.467635e-07	(-9.335238e-24 2.119357e-23 -4.639850e-05)	(2.093678e-24 -5.396742e-24 -5.148158e-05)	(-1.142892e-23 2.659031e-23 5.083084e-06)
3.485731e-07	(-9.410835e-24 2.137162e-23 -4.641080e-05)	(2.094425e-24 -5.398667e-24 -5.149980e-05)	(-1.150526e-23 2.677029e-23 5.088996e-06)
3.503826e-07	(-9.455027e-24 2.148170e-23 -4.642312e-05)	(2.095164e-24 -5.400573e-24 -5.151784e-05)	(-1.155019e-23 2.688227e-23 5.094722e-06)
3.521921e-07	(-9.515085e-24 2.162795e-23 -4.643542e-05)	(2.095897e-24 -5.402461e-24 -5.153571e-05)	(-1.161098e-23 2.703041e-23 5.100289e-06)
3.540016e-07	(-9.560812e-24 2.173879e-23 -4.644770e-05)	(2.096622e-24 -5.404330e-24 -5.155340e-05)	(-1.165743e-23 2.714312e-23 5.105701e-06)
3.558111e-07	(-9.644100e-24 2.193355e-23 -4.645995e-05)	(2.097341e-24 -5.406182e-24 -5.157092e-05)	(-1.174144e-23 2.733973e-23 5.110969e-06)
3.576207e-07	(-9.705815e-24 2.208251e-23 -4.647217e-05)	(2.098053e-24 -5.408016e-24 -5.158827e-05)	(-1.180387e-23 2.749053e-23 5.116098e-06)
3.594302e-07	(-9.773183e-24 2.224275e-23 -4.648436e-05)	(2.098758e-24 -5.409832e-24 -5.160545e-05)	(-1.187194e-23 2.765258e-23 5.121096e-06)
3.612397e-07	(-9.836217e-24 2.239538e-23 -4.649651e-05)	(2.099456e-24 -5.411632e-24 -5.162247e-05)	(-1.193567e-23 2.780701e-23 5.125966e-06)
3.630492e-07	(-9.910404e-24 2.257198e-23 -4.650861e-05)	(2.100147e-24 -5.413414e-24 -5.163933e-05)	(-1.201055e-23 2.798539e-23 5.130714e-06)
3.648587e-07	(-9.951950e-24 2.267650e-23 -4.652068e-05)	(2.100832e-24 -5.415179e-24 -5.165602e-05)	(-1.205278e-23 2.809168e-23 5.135343e-06)
3.666683e-07	(-1.005766e-23 2.292061e-23 -4.653270e-05)	(2.101511e-24 -5.416927e-24 -5.167256e-05)	(-1.215917e-23 2.833754e-23 5.139857e-06)
3.684778e-07	(-1.015755e-23 2.315269e-23 -4.654468e-05)	(2.102183e-24 -5.418659e-24 -5.168893e-05)	(-1.225973e-23 2.857134e-23 5.144259e-06)
3.702873e-07	(-1.022519e-23 2.331384e-23 -4.655660e-05)	(2.102848e-24 -5.420374e-24 -5.170515e-05)	(-1.232804e-23 2.873422e-23 5.148551e-06)
3.720968e-07	(-1.026132e-23 2.340984e-23 -4.656848e-05)	(2.103508e-24 -5.422073e-24 -5.172122e-05)	(-1.236483e-23 2.883191e-23 5.152738e-06)