/*--------------------------------*- C++ -*----------------------------------*\
| =========                 |                                                 |
| \\      /  F ield         | OpenFOAM: The Open Source CFD Toolbox           |
|  \\    /   O peration     | Version:  v1706                                 |
|   \\  /    A nd           | Web:      www.OpenFOAM.com                      |
|    \\/     M anipulation  |                                                 |
\*---------------------------------------------------------------------------*/
FoamFile
{
    version     2.0;
    format      ascii;
    class       volScalarField;
    location    "3e-06";
    object      alpha;
}
// * * * * * * * * * * * * * * * * * * * * * * * * * * * * * * * * * * * * * //

dimensions      [1 -1 -1 0 0 0 0];


internalField   nonuniform List<scalar> 
30038
(
1.40478e-05
1.40478e-05
1.40478e-05
1.40478e-05
1.40478e-05
1.40478e-05
1.40478e-05
1.40478e-05
1.40478e-05
1.40478e-05
1.40478e-05
1.40478e-05
1.40478e-05
1.40478e-05
1.40478e-05
1.40478e-05
1.40478e-05
1.40478e-05
1.40478e-05
1.40478e-05
1.40478e-05
1.40478e-05
1.40478e-05
1.40478e-05
1.40478e-05
1.40478e-05
1.40478e-05
1.40478e-05
1.40478e-05
1.40478e-05
1.40478e-05
1.40478e-05
1.40478e-05
1.40478e-05
1.40478e-05
1.40478e-05
1.40478e-05
1.40478e-05
1.40478e-05
1.40478e-05
1.40478e-05
1.40478e-05
1.40478e-05
1.40478e-05
1.40478e-05
1.40478e-05
1.40478e-05
1.40478e-05
1.40478e-05
1.40478e-05
1.40478e-05
1.40478e-05
1.40478e-05
1.40478e-05
1.40478e-05
1.40478e-05
1.40478e-05
1.40478e-05
1.40478e-05
1.40478e-05
1.40478e-05
1.40478e-05
1.40478e-05
1.40478e-05
1.40478e-05
1.40478e-05
1.40478e-05
1.40478e-05
1.40478e-05
1.40478e-05
1.40478e-05
1.40478e-05
1.40478e-05
1.40478e-05
1.40478e-05
1.40478e-05
1.40478e-05
1.40478e-05
1.40478e-05
1.40478e-05
1.40478e-05
1.40478e-05
1.40478e-05
1.40478e-05
1.40478e-05
1.40478e-05
1.40478e-05
1.40478e-05
1.40478e-05
1.40478e-05
1.40478e-05
1.40478e-05
1.40478e-05
1.40478e-05
1.40478e-05
1.40478e-05
1.40478e-05
1.40478e-05
1.40478e-05
1.40478e-05
1.40478e-05
1.40478e-05
1.40478e-05
1.40478e-05
1.40478e-05
1.40478e-05
1.40478e-05
1.40478e-05
1.40478e-05
1.40478e-05
1.40478e-05
1.40478e-05
1.40478e-05
1.40478e-05
1.40478e-05
1.40478e-05
1.40478e-05
1.40478e-05
1.40478e-05
1.40478e-05
1.40478e-05
1.40478e-05
1.40478e-05
1.40478e-05
1.40478e-05
1.40478e-05
1.40478e-05
1.40478e-05
1.40478e-05
1.40478e-05
1.40478e-05
1.40478e-05
1.40478e-05
1.40478e-05
1.40478e-05
1.40478e-05
1.40478e-05
1.40478e-05
1.40478e-05
1.40478e-05
1.40478e-05
1.40478e-05
1.40478e-05
1.40478e-05
1.40478e-05
1.40478e-05
1.40478e-05
1.40478e-05
1.40478e-05
1.40478e-05
1.40478e-05
1.40478e-05
1.40478e-05
1.40478e-05
1.40478e-05
1.40478e-05
1.40478e-05
1.40478e-05
1.40478e-05
1.40478e-05
1.40478e-05
1.40478e-05
1.40478e-05
1.40478e-05
1.40478e-05
1.40478e-05
1.40478e-05
1.40478e-05
1.40478e-05
1.40478e-05
1.40478e-05
1.40478e-05
1.40478e-05
1.40478e-05
1.40478e-05
1.40478e-05
1.40478e-05
1.40478e-05
1.40478e-05
1.40478e-05
1.40478e-05
1.40478e-05
1.40478e-05
1.40478e-05
1.40478e-05
1.40478e-05
1.40478e-05
1.40478e-05
1.40478e-05
1.40478e-05
1.40478e-05
1.40478e-05
1.40478e-05
1.40478e-05
1.40478e-05
1.40478e-05
1.40478e-05
1.40478e-05
1.40478e-05
1.40478e-05
1.40478e-05
1.40478e-05
1.40478e-05
1.40478e-05
1.40478e-05
1.40478e-05
1.40478e-05
1.40478e-05
1.40478e-05
1.40478e-05
1.40478e-05
1.40478e-05
1.40478e-05
1.40478e-05
1.40478e-05
1.40478e-05
1.40478e-05
1.40478e-05
1.40478e-05
1.40478e-05
1.40478e-05
1.40478e-05
1.40478e-05
1.40478e-05
1.40478e-05
1.40478e-05
1.40478e-05
1.40478e-05
1.40478e-05
1.40478e-05
1.40478e-05
1.40478e-05
1.40478e-05
1.40478e-05
1.40478e-05
1.40478e-05
1.40478e-05
1.40478e-05
1.40478e-05
1.40478e-05
1.40478e-05
1.40478e-05
1.40478e-05
1.40478e-05
1.40478e-05
1.40478e-05
1.40478e-05
1.40478e-05
1.40478e-05
1.40478e-05
1.40478e-05
1.40478e-05
1.40478e-05
1.40478e-05
1.40478e-05
1.40478e-05
1.40478e-05
1.40478e-05
1.40478e-05
1.40478e-05
1.40478e-05
1.40478e-05
1.40478e-05
1.40478e-05
1.40478e-05
1.40478e-05
1.40478e-05
1.40478e-05
1.40478e-05
1.40478e-05
1.40478e-05
1.40478e-05
1.40478e-05
1.40478e-05
1.40478e-05
1.40478e-05
1.40478e-05
1.40478e-05
1.40478e-05
1.40478e-05
1.40478e-05
1.40478e-05
1.40478e-05
1.40478e-05
1.40478e-05
1.40478e-05
1.40478e-05
1.40478e-05
1.40478e-05
1.40478e-05
1.40478e-05
1.40478e-05
1.40478e-05
1.40478e-05
1.40478e-05
1.40478e-05
1.40478e-05
1.40478e-05
1.40478e-05
1.40478e-05
1.40479e-05
1.40479e-05
1.4048e-05
1.40481e-05
1.40478e-05
1.40478e-05
1.40478e-05
1.40478e-05
1.40478e-05
1.40478e-05
1.40478e-05
1.40478e-05
1.40478e-05
1.40478e-05
1.40478e-05
1.40478e-05
1.40478e-05
1.40478e-05
1.40478e-05
1.40478e-05
1.40478e-05
1.40478e-05
1.40478e-05
1.40478e-05
1.40478e-05
1.40478e-05
1.40478e-05
1.40478e-05
1.40478e-05
1.40478e-05
1.40478e-05
1.40478e-05
1.40478e-05
1.40478e-05
1.40478e-05
1.40479e-05
1.40479e-05
1.4048e-05
1.40481e-05
1.40482e-05
1.40484e-05
1.40488e-05
1.40494e-05
1.40478e-05
1.40478e-05
1.40478e-05
1.40478e-05
1.40478e-05
1.40478e-05
1.40478e-05
1.40478e-05
1.40478e-05
1.40478e-05
1.40478e-05
1.40478e-05
1.40478e-05
1.40478e-05
1.40478e-05
1.40478e-05
1.40478e-05
1.40478e-05
1.40478e-05
1.40478e-05
1.40478e-05
1.40478e-05
1.40478e-05
1.40478e-05
1.40478e-05
1.40478e-05
1.40478e-05
1.40479e-05
1.40479e-05
1.4048e-05
1.40481e-05
1.40482e-05
1.40485e-05
1.40488e-05
1.40493e-05
1.405e-05
1.40511e-05
1.40529e-05
1.40559e-05
1.40478e-05
1.40478e-05
1.40478e-05
1.40478e-05
1.40478e-05
1.40478e-05
1.40478e-05
1.40478e-05
1.40478e-05
1.40478e-05
1.40478e-05
1.40478e-05
1.40478e-05
1.40478e-05
1.40478e-05
1.40478e-05
1.40478e-05
1.40478e-05
1.40478e-05
1.40478e-05
1.40478e-05
1.40478e-05
1.40479e-05
1.40479e-05
1.40479e-05
1.4048e-05
1.40481e-05
1.40482e-05
1.40485e-05
1.40488e-05
1.40493e-05
1.40501e-05
1.40512e-05
1.40529e-05
1.40554e-05
1.40592e-05
1.40649e-05
1.40736e-05
1.40889e-05
1.40478e-05
1.40478e-05
1.40478e-05
1.40478e-05
1.40478e-05
1.40478e-05
1.40478e-05
1.40478e-05
1.40478e-05
1.40478e-05
1.40478e-05
1.40478e-05
1.40478e-05
1.40478e-05
1.40478e-05
1.40478e-05
1.40478e-05
1.40478e-05
1.40478e-05
1.40479e-05
1.40479e-05
1.40479e-05
1.4048e-05
1.40481e-05
1.40483e-05
1.40485e-05
1.40488e-05
1.40494e-05
1.40501e-05
1.40513e-05
1.4053e-05
1.40555e-05
1.40593e-05
1.40649e-05
1.40734e-05
1.40861e-05
1.41051e-05
1.41336e-05
1.41772e-05
1.42515e-05
1.40478e-05
1.40478e-05
1.40478e-05
1.40478e-05
1.40478e-05
1.40478e-05
1.40478e-05
1.40478e-05
1.40478e-05
1.40478e-05
1.40478e-05
1.40478e-05
1.40478e-05
1.40478e-05
1.40478e-05
1.40479e-05
1.40479e-05
1.40479e-05
1.4048e-05
1.40481e-05
1.40483e-05
1.40485e-05
1.40489e-05
1.40494e-05
1.40502e-05
1.40514e-05
1.40531e-05
1.40556e-05
1.40595e-05
1.40651e-05
1.40736e-05
1.40862e-05
1.41051e-05
1.41332e-05
1.41751e-05
1.42375e-05
1.43303e-05
1.44679e-05
1.46739e-05
1.50072e-05
1.40478e-05
1.40478e-05
1.40478e-05
1.40478e-05
1.40478e-05
1.40478e-05
1.40478e-05
1.40478e-05
1.40478e-05
1.40478e-05
1.40478e-05
1.40479e-05
1.40479e-05
1.4048e-05
1.4048e-05
1.40482e-05
1.40483e-05
1.40486e-05
1.4049e-05
1.40495e-05
1.40503e-05
1.40515e-05
1.40533e-05
1.40559e-05
1.40597e-05
1.40655e-05
1.4074e-05
1.40866e-05
1.41054e-05
1.41333e-05
1.41748e-05
1.42363e-05
1.43274e-05
1.44617e-05
1.46588e-05
1.49453e-05
1.53572e-05
1.59401e-05
1.67582e-05
1.79366e-05
1.40478e-05
1.40478e-05
1.40478e-05
1.40478e-05
1.40478e-05
1.40478e-05
1.40478e-05
1.40479e-05
1.40479e-05
1.4048e-05
1.40481e-05
1.40482e-05
1.40484e-05
1.40486e-05
1.4049e-05
1.40496e-05
1.40504e-05
1.40517e-05
1.40535e-05
1.40562e-05
1.40601e-05
1.4066e-05
1.40746e-05
1.40873e-05
1.41062e-05
1.41341e-05
1.41754e-05
1.42364e-05
1.43263e-05
1.44585e-05
1.46517e-05
1.49317e-05
1.53329e-05
1.58986e-05
1.66799e-05
1.77305e-05
1.91031e-05
2.08365e-05
2.29694e-05
2.55563e-05
1.40478e-05
1.40478e-05
1.40479e-05
1.40479e-05
1.40479e-05
1.4048e-05
1.40481e-05
1.40482e-05
1.40484e-05
1.40487e-05
1.40491e-05
1.40497e-05
1.40506e-05
1.40519e-05
1.40538e-05
1.40566e-05
1.40606e-05
1.40666e-05
1.40754e-05
1.40884e-05
1.41075e-05
1.41356e-05
1.4177e-05
1.42379e-05
1.43273e-05
1.44581e-05
1.46486e-05
1.49238e-05
1.53167e-05
1.58693e-05
1.66312e-05
1.7655e-05
1.89904e-05
2.0677e-05
2.27305e-05
2.51327e-05
2.78401e-05
3.07897e-05
3.39064e-05
3.71576e-05
1.40479e-05
1.4048e-05
1.40481e-05
1.40483e-05
1.40485e-05
1.40488e-05
1.40492e-05
1.40499e-05
1.40508e-05
1.40522e-05
1.40541e-05
1.4057e-05
1.40613e-05
1.40675e-05
1.40765e-05
1.40898e-05
1.41093e-05
1.41378e-05
1.41796e-05
1.42409e-05
1.43304e-05
1.44608e-05
1.46499e-05
1.49219e-05
1.5309e-05
1.58515e-05
1.65977e-05
1.7599e-05
1.89038e-05
2.05507e-05
2.25597e-05
2.49185e-05
2.75822e-05
3.04903e-05
3.35607e-05
3.66797e-05
3.97656e-05
4.27977e-05
4.55714e-05
4.79789e-05
1.40485e-05
1.40489e-05
1.40493e-05
1.405e-05
1.4051e-05
1.40525e-05
1.40546e-05
1.40576e-05
1.40621e-05
1.40685e-05
1.40779e-05
1.40917e-05
1.41117e-05
1.41409e-05
1.41835e-05
1.42456e-05
1.43359e-05
1.44668e-05
1.46558e-05
1.49266e-05
1.53102e-05
1.5846e-05
1.65804e-05
1.75638e-05
1.88436e-05
2.04571e-05
2.24251e-05
2.4742e-05
2.7367e-05
3.02369e-05
3.32832e-05
3.64081e-05
3.95053e-05
4.25203e-05
4.53851e-05
4.78619e-05
4.98187e-05
5.12412e-05
5.2208e-05
5.29141e-05
1.40503e-05
1.40513e-05
1.40529e-05
1.40551e-05
1.40584e-05
1.40631e-05
1.40698e-05
1.40797e-05
1.4094e-05
1.41148e-05
1.41449e-05
1.41887e-05
1.42521e-05
1.4344e-05
1.44766e-05
1.46669e-05
1.49383e-05
1.53212e-05
1.58537e-05
1.65807e-05
1.75511e-05
1.88113e-05
2.03978e-05
2.23308e-05
2.46081e-05
2.71959e-05
3.00322e-05
3.30467e-05
3.61633e-05
3.92761e-05
4.22958e-05
4.51879e-05
4.78073e-05
4.99624e-05
5.15843e-05
5.27068e-05
5.34568e-05
5.39849e-05
5.43878e-05
5.46473e-05
5.48813e-05
1.40593e-05
1.40643e-05
1.40715e-05
1.40819e-05
1.40969e-05
1.41187e-05
1.415e-05
1.41954e-05
1.42608e-05
1.43551e-05
1.44904e-05
1.46837e-05
1.49579e-05
1.53428e-05
1.58756e-05
1.65998e-05
1.75626e-05
1.88091e-05
2.0375e-05
2.22798e-05
2.45219e-05
2.70736e-05
2.98779e-05
3.28631e-05
3.59582e-05
3.90769e-05
4.21175e-05
4.50101e-05
4.77102e-05
5.00317e-05
5.1849e-05
5.31479e-05
5.4016e-05
5.46053e-05
5.50464e-05
5.53498e-05
5.55534e-05
5.57467e-05
5.59524e-05
5.61685e-05
5.63735e-05
1.40846e-05
1.41006e-05
1.41235e-05
1.41565e-05
1.42039e-05
1.42719e-05
1.43695e-05
1.45088e-05
1.47067e-05
1.4986e-05
1.53759e-05
1.59128e-05
1.6639e-05
1.76e-05
1.88391e-05
2.03911e-05
2.22747e-05
2.44881e-05
2.70064e-05
2.97792e-05
3.27367e-05
3.58063e-05
3.8916e-05
4.19731e-05
4.48888e-05
4.7609e-05
5.00497e-05
5.20407e-05
5.35231e-05
5.45316e-05
5.52017e-05
5.56831e-05
5.60364e-05
5.6255e-05
5.64352e-05
5.66241e-05
5.68248e-05
5.70091e-05
5.7183e-05
5.73642e-05
5.7549e-05
5.77533e-05
1.41645e-05
1.42145e-05
1.4286e-05
1.43878e-05
1.45324e-05
1.47368e-05
1.50235e-05
1.54216e-05
1.59666e-05
1.66998e-05
1.76649e-05
1.89035e-05
2.04486e-05
2.23181e-05
2.45099e-05
2.69998e-05
2.97422e-05
3.26723e-05
3.57176e-05
3.8808e-05
4.18681e-05
4.48067e-05
4.7549e-05
5.00459e-05
5.21765e-05
5.38288e-05
5.49971e-05
5.57692e-05
5.63005e-05
5.66956e-05
5.69444e-05
5.71246e-05
5.72981e-05
5.748e-05
5.76649e-05
5.78297e-05
5.79994e-05
5.81716e-05
5.83405e-05
5.85197e-05
5.87265e-05
5.89621e-05
5.92342e-05
1.45622e-05
1.47751e-05
1.50719e-05
1.54814e-05
1.60387e-05
1.6784e-05
1.77593e-05
1.90042e-05
2.05498e-05
2.24126e-05
2.45899e-05
2.70579e-05
2.97729e-05
3.26756e-05
3.56966e-05
3.87658e-05
4.18149e-05
4.47661e-05
4.7536e-05
5.00599e-05
5.22807e-05
5.40788e-05
5.5404e-05
5.63003e-05
5.68977e-05
5.73307e-05
5.76286e-05
5.7813e-05
5.79727e-05
5.81384e-05
5.83194e-05
5.84761e-05
5.86338e-05
5.8795e-05
5.89527e-05
5.91139e-05
5.92955e-05
5.95044e-05
5.97331e-05
5.9979e-05
6.02468e-05
6.05396e-05
6.08681e-05
1.55578e-05
1.61319e-05
1.68944e-05
1.78858e-05
1.91438e-05
2.0697e-05
2.25602e-05
2.47299e-05
2.71824e-05
2.98752e-05
3.27519e-05
3.57478e-05
3.87951e-05
4.18272e-05
4.47765e-05
4.75661e-05
5.01219e-05
5.23853e-05
5.42924e-05
5.57581e-05
5.6788e-05
5.74707e-05
5.79453e-05
5.82872e-05
5.84935e-05
5.86472e-05
5.88003e-05
5.89594e-05
5.91187e-05
5.92666e-05
5.94172e-05
5.95661e-05
5.97125e-05
5.98724e-05
6.00572e-05
6.02635e-05
6.0486e-05
6.07277e-05
6.09915e-05
6.12752e-05
6.15766e-05
6.18956e-05
6.22341e-05
6.2602e-05
1.80491e-05
1.93267e-05
2.08944e-05
2.27648e-05
2.49331e-05
2.73755e-05
3.00507e-05
3.29043e-05
3.58752e-05
3.88991e-05
4.19119e-05
4.48497e-05
4.76457e-05
5.02272e-05
5.25283e-05
5.44966e-05
5.60753e-05
5.72302e-05
5.80143e-05
5.85419e-05
5.89212e-05
5.91632e-05
5.93207e-05
5.94618e-05
5.96039e-05
5.97596e-05
5.98976e-05
6.0038e-05
6.01791e-05
6.03141e-05
6.04556e-05
6.06171e-05
6.08014e-05
6.10022e-05
6.12197e-05
6.1458e-05
6.17168e-05
6.19934e-05
6.22869e-05
6.25971e-05
6.2923e-05
6.3263e-05
6.3616e-05
6.39832e-05
6.43714e-05
2.30325e-05
2.5205e-05
2.76418e-05
3.03027e-05
3.31355e-05
3.60817e-05
3.90806e-05
4.20712e-05
4.4993e-05
4.77839e-05
5.0379e-05
5.27115e-05
5.47243e-05
5.63768e-05
5.76376e-05
5.85226e-05
5.91185e-05
5.95342e-05
5.98194e-05
5.99891e-05
6.01209e-05
6.02525e-05
6.03922e-05
6.0527e-05
6.06565e-05
6.07888e-05
6.0916e-05
6.10426e-05
6.11838e-05
6.13464e-05
6.15264e-05
6.17215e-05
6.19353e-05
6.21695e-05
6.2422e-05
6.26909e-05
6.29765e-05
6.32782e-05
6.35945e-05
6.39239e-05
6.42653e-05
6.46171e-05
6.49781e-05
6.53466e-05
6.57235e-05
6.61125e-05
2.79891e-05
3.06381e-05
3.34508e-05
3.63717e-05
3.93433e-05
4.23079e-05
4.52085e-05
4.79872e-05
5.05838e-05
5.2936e-05
5.49861e-05
5.669e-05
5.8027e-05
5.90018e-05
5.96706e-05
6.01297e-05
6.04519e-05
6.06445e-05
6.07789e-05
6.09001e-05
6.10201e-05
6.11529e-05
6.12731e-05
6.13955e-05
6.15173e-05
6.16319e-05
6.17555e-05
6.18973e-05
6.20574e-05
6.22319e-05
6.24227e-05
6.2633e-05
6.28618e-05
6.31069e-05
6.33683e-05
6.36458e-05
6.39384e-05
6.42447e-05
6.45636e-05
6.48938e-05
6.5234e-05
6.55824e-05
6.59376e-05
6.62978e-05
6.66614e-05
6.70267e-05
6.73942e-05
6.77645e-05
3.96942e-05
4.2628e-05
4.55009e-05
4.82593e-05
5.08473e-05
5.32069e-05
5.52818e-05
5.70275e-05
5.84201e-05
5.94643e-05
6.02002e-05
6.07066e-05
6.10631e-05
6.12934e-05
6.14325e-05
6.15443e-05
6.1654e-05
6.17759e-05
6.18876e-05
6.19993e-05
6.2114e-05
6.22213e-05
6.23301e-05
6.24533e-05
6.25942e-05
6.27494e-05
6.29191e-05
6.31065e-05
6.33122e-05
6.35344e-05
6.37722e-05
6.4026e-05
6.42951e-05
6.45782e-05
6.48743e-05
6.51824e-05
6.55014e-05
6.58296e-05
6.61658e-05
6.65083e-05
6.68554e-05
6.72055e-05
6.75567e-05
6.79072e-05
6.82554e-05
6.85994e-05
6.89394e-05
6.92734e-05
4.58788e-05
4.8608e-05
5.11766e-05
5.35306e-05
5.56166e-05
5.73906e-05
5.88267e-05
5.99252e-05
6.07174e-05
6.12682e-05
6.16555e-05
6.19221e-05
6.20763e-05
6.2186e-05
6.22867e-05
6.23877e-05
6.24991e-05
6.26015e-05
6.27061e-05
6.2809e-05
6.29061e-05
6.3013e-05
6.31355e-05
6.32727e-05
6.3423e-05
6.35889e-05
6.37726e-05
6.39726e-05
6.41879e-05
6.44185e-05
6.46644e-05
6.49246e-05
6.5198e-05
6.54838e-05
6.57811e-05
6.60885e-05
6.64048e-05
6.67286e-05
6.70584e-05
6.73925e-05
6.77294e-05
6.80672e-05
6.84043e-05
6.87388e-05
6.90689e-05
6.93927e-05
6.97086e-05
7.00147e-05
7.03109e-05
7.05932e-05
5.59999e-05
5.77872e-05
5.92519e-05
6.03914e-05
6.12299e-05
6.18207e-05
6.22354e-05
6.25291e-05
6.271e-05
6.28235e-05
6.29155e-05
6.30042e-05
6.31067e-05
6.3201e-05
6.32952e-05
6.33932e-05
6.34823e-05
6.35749e-05
6.36807e-05
6.38006e-05
6.39331e-05
6.40794e-05
6.42419e-05
6.44207e-05
6.46143e-05
6.48228e-05
6.50462e-05
6.52838e-05
6.55348e-05
6.57984e-05
6.60739e-05
6.63601e-05
6.6656e-05
6.69603e-05
6.72716e-05
6.75887e-05
6.79098e-05
6.82335e-05
6.85582e-05
6.8882e-05
6.92032e-05
6.95201e-05
6.98309e-05
7.01337e-05
7.04268e-05
7.07085e-05
7.09772e-05
7.1231e-05
7.14697e-05
7.16878e-05
6.17444e-05
6.2369e-05
6.28086e-05
6.3122e-05
6.33309e-05
6.34523e-05
6.35404e-05
6.36208e-05
6.37056e-05
6.37974e-05
6.38824e-05
6.39703e-05
6.40559e-05
6.41375e-05
6.42285e-05
6.43323e-05
6.44482e-05
6.45765e-05
6.47193e-05
6.48777e-05
6.50508e-05
6.5238e-05
6.54397e-05
6.56554e-05
6.58845e-05
6.61263e-05
6.63801e-05
6.66451e-05
6.69202e-05
6.72045e-05
6.74968e-05
6.77958e-05
6.81001e-05
6.84083e-05
6.87189e-05
6.90304e-05
6.9341e-05
6.96491e-05
6.9953e-05
7.0251e-05
7.05412e-05
7.08221e-05
7.10918e-05
7.13487e-05
7.15912e-05
7.18177e-05
7.2027e-05
7.22172e-05
7.23883e-05
7.25333e-05
6.39353e-05
6.40692e-05
6.41598e-05
6.42324e-05
6.43027e-05
6.43889e-05
6.44662e-05
6.45435e-05
6.46256e-05
6.46989e-05
6.47769e-05
6.48662e-05
6.49667e-05
6.50787e-05
6.52036e-05
6.53428e-05
6.54963e-05
6.56634e-05
6.58443e-05
6.60389e-05
6.62467e-05
6.64671e-05
6.66996e-05
6.69434e-05
6.71979e-05
6.7462e-05
6.77347e-05
6.8015e-05
6.83017e-05
6.85934e-05
6.88888e-05
6.91864e-05
6.94848e-05
6.97824e-05
7.00776e-05
7.03686e-05
7.0654e-05
7.09318e-05
7.12006e-05
7.14586e-05
7.17043e-05
7.1936e-05
7.21522e-05
7.23516e-05
7.25328e-05
7.26945e-05
7.28356e-05
7.29541e-05
7.30502e-05
7.31162e-05
6.49004e-05
6.49739e-05
6.50461e-05
6.5114e-05
6.51875e-05
6.52577e-05
6.5325e-05
6.5401e-05
6.54872e-05
6.55841e-05
6.56928e-05
6.58143e-05
6.59493e-05
6.60977e-05
6.6259e-05
6.64335e-05
6.66208e-05
6.68205e-05
6.70322e-05
6.72553e-05
6.74892e-05
6.77331e-05
6.79861e-05
6.82473e-05
6.85157e-05
6.87901e-05
6.90694e-05
6.93521e-05
6.96369e-05
6.99224e-05
7.02072e-05
7.04895e-05
7.07679e-05
7.10408e-05
7.13065e-05
7.15635e-05
7.18101e-05
7.20447e-05
7.22659e-05
7.24723e-05
7.26623e-05
7.28348e-05
7.29885e-05
7.3122e-05
7.32341e-05
7.33239e-05
7.33909e-05
7.34319e-05
7.34445e-05
7.3428e-05
6.57434e-05
6.58114e-05
6.58713e-05
6.59353e-05
6.60091e-05
6.6092e-05
6.61857e-05
6.62911e-05
6.64088e-05
6.65393e-05
6.66823e-05
6.68378e-05
6.70057e-05
6.71857e-05
6.73774e-05
6.75803e-05
6.77941e-05
6.8018e-05
6.82513e-05
6.84933e-05
6.87431e-05
6.89996e-05
6.92619e-05
6.95288e-05
6.9799e-05
7.00711e-05
7.0344e-05
7.0616e-05
7.08858e-05
7.11518e-05
7.14125e-05
7.16663e-05
7.19117e-05
7.21471e-05
7.23711e-05
7.25822e-05
7.27789e-05
7.29599e-05
7.3124e-05
7.32699e-05
7.33965e-05
7.35022e-05
7.35864e-05
7.36485e-05
7.36858e-05
7.36953e-05
7.36827e-05
7.36419e-05
7.35758e-05
7.348e-05
6.65305e-05
6.6601e-05
6.6681e-05
6.67715e-05
6.68734e-05
6.69872e-05
6.71132e-05
6.72508e-05
6.74003e-05
6.75615e-05
6.77341e-05
6.79177e-05
6.81119e-05
6.83164e-05
6.85303e-05
6.87532e-05
6.89843e-05
6.92227e-05
6.94676e-05
6.97179e-05
6.99725e-05
7.02303e-05
7.049e-05
7.07503e-05
7.10099e-05
7.12674e-05
7.15212e-05
7.17699e-05
7.20121e-05
7.22462e-05
7.24708e-05
7.26844e-05
7.28855e-05
7.3073e-05
7.32454e-05
7.34014e-05
7.354e-05
7.36599e-05
7.37596e-05
7.38387e-05
7.38963e-05
7.39293e-05
7.39359e-05
7.39214e-05
7.38802e-05
7.38154e-05
7.37279e-05
7.36194e-05
7.3487e-05
7.332e-05
6.7342e-05
6.74403e-05
6.75501e-05
6.76712e-05
6.78034e-05
6.79468e-05
6.81013e-05
6.82665e-05
6.8442e-05
6.86276e-05
6.88228e-05
6.9027e-05
6.92395e-05
6.94598e-05
6.96871e-05
6.99203e-05
7.01588e-05
7.04013e-05
7.06468e-05
7.08942e-05
7.11423e-05
7.13896e-05
7.16349e-05
7.18768e-05
7.21139e-05
7.23447e-05
7.25678e-05
7.27818e-05
7.29853e-05
7.3177e-05
7.33555e-05
7.35195e-05
7.3668e-05
7.37996e-05
7.39131e-05
7.40073e-05
7.40816e-05
7.41351e-05
7.41643e-05
7.41684e-05
7.41523e-05
7.41107e-05
7.40464e-05
7.39597e-05
7.38536e-05
7.37239e-05
7.35679e-05
7.33823e-05
7.31674e-05
7.29159e-05
6.82138e-05
6.83406e-05
6.84779e-05
6.86256e-05
6.87834e-05
6.89509e-05
6.91279e-05
6.93139e-05
6.95084e-05
6.97108e-05
6.99205e-05
7.01367e-05
7.03586e-05
7.05854e-05
7.0816e-05
7.10495e-05
7.12848e-05
7.15207e-05
7.1756e-05
7.19893e-05
7.22195e-05
7.24451e-05
7.26648e-05
7.28772e-05
7.30809e-05
7.32747e-05
7.34571e-05
7.3627e-05
7.37831e-05
7.39243e-05
7.40493e-05
7.41569e-05
7.42459e-05
7.43159e-05
7.43657e-05
7.43915e-05
7.43937e-05
7.43765e-05
7.43351e-05
7.42713e-05
7.41854e-05
7.40808e-05
7.39533e-05
7.38004e-05
7.36194e-05
7.34103e-05
7.31733e-05
7.29065e-05
7.26109e-05
7.22781e-05
6.91349e-05
6.92853e-05
6.94449e-05
6.96134e-05
6.97903e-05
6.99752e-05
7.01676e-05
7.03668e-05
7.05722e-05
7.07829e-05
7.09983e-05
7.12173e-05
7.14391e-05
7.16625e-05
7.18865e-05
7.21099e-05
7.23315e-05
7.25502e-05
7.27645e-05
7.29733e-05
7.31752e-05
7.33689e-05
7.35532e-05
7.37268e-05
7.38884e-05
7.40368e-05
7.4171e-05
7.42898e-05
7.43918e-05
7.44761e-05
7.45421e-05
7.45885e-05
7.46114e-05
7.46123e-05
7.45945e-05
7.45538e-05
7.44909e-05
7.44062e-05
7.43033e-05
7.41783e-05
7.40288e-05
7.38516e-05
7.36476e-05
7.34165e-05
7.31573e-05
7.28703e-05
7.25554e-05
7.22112e-05
7.18391e-05
7.14303e-05
7.00845e-05
7.02525e-05
7.0428e-05
7.06105e-05
7.07995e-05
7.09942e-05
7.1194e-05
7.13982e-05
7.16058e-05
7.1816e-05
7.20278e-05
7.22402e-05
7.2452e-05
7.26622e-05
7.28696e-05
7.30729e-05
7.3271e-05
7.34626e-05
7.36466e-05
7.38216e-05
7.39865e-05
7.41401e-05
7.42812e-05
7.44087e-05
7.45215e-05
7.46183e-05
7.46982e-05
7.47606e-05
7.48037e-05
7.48245e-05
7.48245e-05
7.48068e-05
7.47672e-05
7.47053e-05
7.46222e-05
7.45214e-05
7.43995e-05
7.42538e-05
7.40811e-05
7.38824e-05
7.36575e-05
7.34053e-05
7.31262e-05
7.28203e-05
7.2487e-05
7.21262e-05
7.17389e-05
7.13213e-05
7.08779e-05
7.03979e-05
7.10401e-05
7.1219e-05
7.14033e-05
7.15924e-05
7.17856e-05
7.19821e-05
7.21811e-05
7.23815e-05
7.25825e-05
7.2783e-05
7.2982e-05
7.31784e-05
7.3371e-05
7.35586e-05
7.37403e-05
7.39146e-05
7.40806e-05
7.42371e-05
7.43829e-05
7.45168e-05
7.46379e-05
7.4745e-05
7.48369e-05
7.49127e-05
7.49718e-05
7.5012e-05
7.50309e-05
7.50305e-05
7.50135e-05
7.49751e-05
7.49146e-05
7.48333e-05
7.47352e-05
7.4617e-05
7.44755e-05
7.43078e-05
7.41151e-05
7.38969e-05
7.36521e-05
7.33813e-05
7.30844e-05
7.2761e-05
7.24111e-05
7.20353e-05
7.16328e-05
7.12035e-05
7.07484e-05
7.02637e-05
6.97549e-05
6.92093e-05
7.19787e-05
7.21612e-05
7.23468e-05
7.25347e-05
7.27241e-05
7.2914e-05
7.31035e-05
7.32915e-05
7.34772e-05
7.36593e-05
7.38368e-05
7.40087e-05
7.41738e-05
7.43309e-05
7.44792e-05
7.46173e-05
7.47444e-05
7.48592e-05
7.49608e-05
7.5048e-05
7.51199e-05
7.51759e-05
7.52135e-05
7.5231e-05
7.52304e-05
7.52146e-05
7.51775e-05
7.51187e-05
7.50395e-05
7.49446e-05
7.48304e-05
7.46936e-05
7.45315e-05
7.43453e-05
7.41344e-05
7.38976e-05
7.36357e-05
7.33483e-05
7.30352e-05
7.26964e-05
7.23323e-05
7.19422e-05
7.15266e-05
7.10855e-05
7.06191e-05
7.01269e-05
6.96101e-05
6.90651e-05
6.84977e-05
6.78954e-05
7.28776e-05
7.30562e-05
7.32352e-05
7.3414e-05
7.35914e-05
7.37666e-05
7.39385e-05
7.41062e-05
7.42685e-05
7.44245e-05
7.45731e-05
7.47133e-05
7.48441e-05
7.49643e-05
7.50732e-05
7.51694e-05
7.52521e-05
7.53203e-05
7.53733e-05
7.54085e-05
7.5425e-05
7.54245e-05
7.541e-05
7.53745e-05
7.53176e-05
7.52408e-05
7.51493e-05
7.50394e-05
7.49077e-05
7.47518e-05
7.45725e-05
7.43694e-05
7.41412e-05
7.38887e-05
7.36114e-05
7.33092e-05
7.2982e-05
7.26301e-05
7.2253e-05
7.1851e-05
7.14242e-05
7.09727e-05
7.04967e-05
6.99962e-05
6.94719e-05
6.89233e-05
6.83516e-05
6.77539e-05
6.71354e-05
6.64853e-05
7.3715e-05
7.38821e-05
7.40471e-05
7.42091e-05
7.43671e-05
7.45203e-05
7.46674e-05
7.48077e-05
7.49401e-05
7.50636e-05
7.51773e-05
7.52802e-05
7.53713e-05
7.54496e-05
7.55143e-05
7.55643e-05
7.55974e-05
7.5613e-05
7.56129e-05
7.55999e-05
7.55659e-05
7.55111e-05
7.54371e-05
7.53493e-05
7.5244e-05
7.51177e-05
7.49681e-05
7.47962e-05
7.46011e-05
7.4382e-05
7.41393e-05
7.38727e-05
7.35818e-05
7.32668e-05
7.29278e-05
7.25641e-05
7.21764e-05
7.17644e-05
7.13282e-05
7.08682e-05
7.03844e-05
6.98772e-05
6.9347e-05
6.87939e-05
6.82185e-05
6.76208e-05
6.7002e-05
6.63597e-05
6.56987e-05
6.50099e-05
7.43193e-05
7.44716e-05
7.46203e-05
7.47644e-05
7.4903e-05
7.50352e-05
7.516e-05
7.52765e-05
7.53838e-05
7.5481e-05
7.5567e-05
7.5641e-05
7.57022e-05
7.57492e-05
7.57804e-05
7.57955e-05
7.57959e-05
7.57842e-05
7.57519e-05
7.56994e-05
7.56283e-05
7.55443e-05
7.54437e-05
7.5323e-05
7.51802e-05
7.50158e-05
7.48291e-05
7.46193e-05
7.43868e-05
7.41312e-05
7.38521e-05
7.35496e-05
7.32239e-05
7.28743e-05
7.25012e-05
7.21046e-05
7.16844e-05
7.12409e-05
7.07743e-05
7.02847e-05
6.97725e-05
6.92381e-05
6.86819e-05
6.81043e-05
6.75058e-05
6.68871e-05
6.62484e-05
6.55909e-05
6.49128e-05
6.42186e-05
6.35009e-05
7.50014e-05
7.51317e-05
7.5256e-05
7.53734e-05
7.54831e-05
7.55842e-05
7.56757e-05
7.57568e-05
7.58267e-05
7.58845e-05
7.59286e-05
7.5958e-05
7.59725e-05
7.59738e-05
7.59631e-05
7.59326e-05
7.58823e-05
7.58144e-05
7.57342e-05
7.56385e-05
7.55235e-05
7.53876e-05
7.52308e-05
7.50528e-05
7.48525e-05
7.46304e-05
7.4386e-05
7.4119e-05
7.38293e-05
7.35172e-05
7.3182e-05
7.28241e-05
7.24432e-05
7.20395e-05
7.16131e-05
7.1164e-05
7.06926e-05
7.01991e-05
6.96838e-05
6.91471e-05
6.85894e-05
6.80113e-05
6.74133e-05
6.6796e-05
6.61601e-05
6.55064e-05
6.48354e-05
6.41482e-05
6.34438e-05
6.27262e-05
6.19899e-05
7.54705e-05
7.55807e-05
7.56838e-05
7.57788e-05
7.58649e-05
7.59412e-05
7.6007e-05
7.60615e-05
7.61028e-05
7.61305e-05
7.61445e-05
7.61465e-05
7.61367e-05
7.6108e-05
7.60599e-05
7.59954e-05
7.5919e-05
7.5828e-05
7.5719e-05
7.55899e-05
7.5441e-05
7.52716e-05
7.5081e-05
7.48693e-05
7.46363e-05
7.43816e-05
7.41049e-05
7.38066e-05
7.34861e-05
7.31435e-05
7.27787e-05
7.23917e-05
7.19827e-05
7.15517e-05
7.10989e-05
7.06245e-05
7.01288e-05
6.96121e-05
6.90749e-05
6.85175e-05
6.79406e-05
6.73446e-05
6.67303e-05
6.60984e-05
6.54496e-05
6.47848e-05
6.41049e-05
6.34107e-05
6.27034e-05
6.19826e-05
6.1252e-05
6.05076e-05
7.5968e-05
7.60488e-05
7.61204e-05
7.61823e-05
7.62335e-05
7.62721e-05
7.62981e-05
7.63116e-05
7.63141e-05
7.6305e-05
7.62782e-05
7.62325e-05
7.61714e-05
7.60986e-05
7.60125e-05
7.59092e-05
7.57871e-05
7.56459e-05
7.54853e-05
7.53043e-05
7.51032e-05
7.48815e-05
7.46391e-05
7.43755e-05
7.40912e-05
7.37853e-05
7.34582e-05
7.31096e-05
7.27396e-05
7.23482e-05
7.19355e-05
7.15016e-05
7.10466e-05
7.05709e-05
7.00746e-05
6.95582e-05
6.90221e-05
6.84666e-05
6.78924e-05
6.73001e-05
6.66903e-05
6.60637e-05
6.54213e-05
6.47637e-05
6.40921e-05
6.34074e-05
6.27106e-05
6.20027e-05
6.12852e-05
6.05581e-05
5.98248e-05
5.90829e-05
7.63529e-05
7.64007e-05
7.64366e-05
7.64611e-05
7.64741e-05
7.64771e-05
7.64685e-05
7.64435e-05
7.64003e-05
7.63424e-05
7.62731e-05
7.61917e-05
7.60942e-05
7.59789e-05
7.58453e-05
7.56934e-05
7.5522e-05
7.53313e-05
7.5121e-05
7.48908e-05
7.46403e-05
7.43698e-05
7.40787e-05
7.37671e-05
7.34348e-05
7.30818e-05
7.27081e-05
7.23138e-05
7.18988e-05
7.14635e-05
7.10079e-05
7.05324e-05
7.00371e-05
6.95225e-05
6.89889e-05
6.84369e-05
6.7867e-05
6.72797e-05
6.66758e-05
6.6056e-05
6.54211e-05
6.47721e-05
6.41098e-05
6.34353e-05
6.27497e-05
6.20541e-05
6.13499e-05
6.06381e-05
5.99203e-05
5.91969e-05
5.84716e-05
5.77425e-05
7.66197e-05
7.66324e-05
7.66355e-05
7.66274e-05
7.66041e-05
7.65633e-05
7.65087e-05
7.64427e-05
7.63658e-05
7.62738e-05
7.61653e-05
7.60392e-05
7.58957e-05
7.57337e-05
7.55533e-05
7.53543e-05
7.51361e-05
7.48986e-05
7.46419e-05
7.43655e-05
7.40692e-05
7.37531e-05
7.34171e-05
7.30611e-05
7.26851e-05
7.22892e-05
7.18735e-05
7.14382e-05
7.09834e-05
7.05094e-05
7.00165e-05
6.9505e-05
6.89754e-05
6.84282e-05
6.78639e-05
6.7283e-05
6.66863e-05
6.60745e-05
6.54484e-05
6.48089e-05
6.4157e-05
6.34937e-05
6.28201e-05
6.21374e-05
6.14469e-05
6.07497e-05
6.00474e-05
5.93413e-05
5.8633e-05
5.79234e-05
5.72163e-05
5.65102e-05
7.67819e-05
7.67601e-05
7.67217e-05
7.66702e-05
7.66073e-05
7.65349e-05
7.64483e-05
7.63462e-05
7.62273e-05
7.60921e-05
7.59393e-05
7.5769e-05
7.55809e-05
7.53746e-05
7.515e-05
7.49067e-05
7.46448e-05
7.43637e-05
7.40637e-05
7.37445e-05
7.3406e-05
7.30483e-05
7.26713e-05
7.22752e-05
7.186e-05
7.1426e-05
7.09732e-05
7.05021e-05
7.00128e-05
6.95058e-05
6.89814e-05
6.84402e-05
6.78826e-05
6.73093e-05
6.67209e-05
6.61182e-05
6.5502e-05
6.48732e-05
6.42326e-05
6.35814e-05
6.29206e-05
6.22514e-05
6.1575e-05
6.08928e-05
6.02061e-05
5.95165e-05
5.88253e-05
5.81342e-05
5.74451e-05
5.6759e-05
5.60798e-05
5.54063e-05
7.68272e-05
7.67673e-05
7.66989e-05
7.66175e-05
7.65216e-05
7.64098e-05
7.62825e-05
7.61387e-05
7.59781e-05
7.58007e-05
7.5606e-05
7.53938e-05
7.51638e-05
7.49161e-05
7.465e-05
7.43658e-05
7.40631e-05
7.37419e-05
7.34022e-05
7.3044e-05
7.26673e-05
7.22722e-05
7.18587e-05
7.14271e-05
7.09776e-05
7.05105e-05
7.00259e-05
6.95244e-05
6.90064e-05
6.84722e-05
6.79225e-05
6.73578e-05
6.67788e-05
6.61861e-05
6.55807e-05
6.49633e-05
6.4335e-05
6.36966e-05
6.30492e-05
6.23941e-05
6.17325e-05
6.10656e-05
6.03948e-05
5.97215e-05
5.90474e-05
5.8374e-05
5.77029e-05
5.70359e-05
5.63749e-05
5.57214e-05
5.5079e-05
5.4447e-05
7.67816e-05
7.66916e-05
7.65865e-05
7.64668e-05
7.63317e-05
7.61806e-05
7.60135e-05
7.58301e-05
7.563e-05
7.54129e-05
7.51789e-05
7.49276e-05
7.46587e-05
7.43723e-05
7.40681e-05
7.37462e-05
7.34064e-05
7.30488e-05
7.26735e-05
7.22804e-05
7.18698e-05
7.14417e-05
7.09965e-05
7.05344e-05
7.00556e-05
6.95607e-05
6.90498e-05
6.85237e-05
6.79827e-05
6.74275e-05
6.68586e-05
6.62769e-05
6.5683e-05
6.50779e-05
6.44623e-05
6.38374e-05
6.32041e-05
6.25636e-05
6.19171e-05
6.12658e-05
6.06111e-05
5.99544e-05
5.92972e-05
5.86411e-05
5.79878e-05
5.73389e-05
5.66962e-05
5.60616e-05
5.5437e-05
5.48241e-05
5.42256e-05
5.36411e-05
7.65183e-05
7.63763e-05
7.62192e-05
7.60466e-05
7.58582e-05
7.56538e-05
7.54331e-05
7.5196e-05
7.49422e-05
7.46716e-05
7.4384e-05
7.40795e-05
7.37578e-05
7.34189e-05
7.3063e-05
7.269e-05
7.23e-05
7.18931e-05
7.14696e-05
7.10296e-05
7.05735e-05
7.01014e-05
6.96138e-05
6.91111e-05
6.85938e-05
6.80623e-05
6.75173e-05
6.69593e-05
6.63892e-05
6.58075e-05
6.52151e-05
6.4613e-05
6.40021e-05
6.33833e-05
6.27578e-05
6.21267e-05
6.14913e-05
6.08528e-05
6.02127e-05
5.95724e-05
5.89335e-05
5.82975e-05
5.76662e-05
5.70412e-05
5.64245e-05
5.58177e-05
5.52226e-05
5.46407e-05
5.40726e-05
5.35187e-05
5.2976e-05
7.62557e-05
7.60786e-05
7.58863e-05
7.56784e-05
7.54552e-05
7.52159e-05
7.49607e-05
7.46893e-05
7.44016e-05
7.40975e-05
7.3777e-05
7.34401e-05
7.30867e-05
7.27169e-05
7.23309e-05
7.19288e-05
7.15106e-05
7.10767e-05
7.06273e-05
7.01627e-05
6.96833e-05
6.91894e-05
6.86816e-05
6.81603e-05
6.76262e-05
6.70797e-05
6.65216e-05
6.59526e-05
6.53735e-05
6.47853e-05
6.41886e-05
6.35847e-05
6.29744e-05
6.2359e-05
6.17396e-05
6.11175e-05
6.0494e-05
5.98705e-05