/*--------------------------------*- C++ -*----------------------------------*\
| =========                 |                                                 |
| \\      /  F ield         | OpenFOAM: The Open Source CFD Toolbox           |
|  \\    /   O peration     | Version:  v1706                                 |
|   \\  /    A nd           | Web:      www.OpenFOAM.com                      |
|    \\/     M anipulation  |                                                 |
\*---------------------------------------------------------------------------*/
FoamFile
{
    version     2.0;
    format      ascii;
    class       volScalarField;
    location    "3e-06";
    object      kappatr;
}
// * * * * * * * * * * * * * * * * * * * * * * * * * * * * * * * * * * * * * //

dimensions      [1 1 -3 -1 0 0 0];


internalField   nonuniform List<scalar> 
30038
(
0.014593
0.014593
0.014593
0.014593
0.014593
0.014593
0.014593
0.014593
0.014593
0.014593
0.014593
0.014593
0.014593
0.014593
0.014593
0.014593
0.014593
0.014593
0.014593
0.014593
0.014593
0.014593
0.014593
0.014593
0.014593
0.014593
0.014593
0.014593
0.014593
0.014593
0.014593
0.014593
0.014593
0.014593
0.014593
0.014593
0.014593
0.014593
0.014593
0.014593
0.014593
0.014593
0.014593
0.014593
0.014593
0.014593
0.014593
0.014593
0.014593
0.014593
0.014593
0.014593
0.014593
0.014593
0.014593
0.014593
0.014593
0.014593
0.014593
0.014593
0.014593
0.014593
0.014593
0.014593
0.014593
0.014593
0.014593
0.014593
0.014593
0.014593
0.014593
0.014593
0.014593
0.014593
0.014593
0.014593
0.014593
0.014593
0.014593
0.014593
0.014593
0.014593
0.014593
0.014593
0.014593
0.014593
0.014593
0.014593
0.014593
0.014593
0.014593
0.014593
0.014593
0.014593
0.014593
0.014593
0.014593
0.014593
0.014593
0.014593
0.014593
0.014593
0.014593
0.014593
0.014593
0.014593
0.014593
0.014593
0.014593
0.014593
0.014593
0.014593
0.014593
0.014593
0.014593
0.014593
0.014593
0.014593
0.014593
0.014593
0.014593
0.014593
0.014593
0.014593
0.014593
0.014593
0.014593
0.014593
0.014593
0.014593
0.014593
0.014593
0.014593
0.014593
0.014593
0.014593
0.014593
0.014593
0.014593
0.014593
0.014593
0.014593
0.014593
0.014593
0.014593
0.014593
0.014593
0.014593
0.014593
0.014593
0.014593
0.014593
0.014593
0.014593
0.014593
0.014593
0.014593
0.014593
0.014593
0.014593
0.014593
0.014593
0.014593
0.014593
0.014593
0.014593
0.014593
0.014593
0.014593
0.014593
0.014593
0.014593
0.014593
0.014593
0.014593
0.014593
0.014593
0.014593
0.014593
0.014593
0.014593
0.014593
0.014593
0.014593
0.014593
0.014593
0.014593
0.014593
0.014593
0.014593
0.014593
0.014593
0.014593
0.014593
0.014593
0.014593
0.014593
0.014593
0.014593
0.014593
0.014593
0.014593
0.014593
0.014593
0.014593
0.014593
0.014593
0.014593
0.014593
0.014593
0.014593
0.014593
0.014593
0.014593
0.014593
0.014593
0.014593
0.014593
0.014593
0.014593
0.014593
0.014593
0.014593
0.014593
0.014593
0.014593
0.014593
0.014593
0.014593
0.014593
0.014593
0.014593
0.014593
0.014593
0.014593
0.014593
0.014593
0.014593
0.014593
0.014593
0.014593
0.014593
0.014593
0.014593
0.014593
0.014593
0.014593
0.014593
0.014593
0.014593
0.014593
0.014593
0.014593
0.014593
0.014593
0.014593
0.014593
0.014593
0.014593
0.014593
0.014593
0.014593
0.014593
0.014593
0.014593
0.0145931
0.014593
0.014593
0.014593
0.014593
0.014593
0.014593
0.014593
0.014593
0.014593
0.014593
0.014593
0.014593
0.014593
0.014593
0.014593
0.014593
0.014593
0.014593
0.014593
0.014593
0.014593
0.014593
0.014593
0.014593
0.014593
0.014593
0.014593
0.014593
0.014593
0.014593
0.014593
0.014593
0.014593
0.0145931
0.0145931
0.0145931
0.0145932
0.0145933
0.014593
0.014593
0.014593
0.014593
0.014593
0.014593
0.014593
0.014593
0.014593
0.014593
0.014593
0.014593
0.014593
0.014593
0.014593
0.014593
0.014593
0.014593
0.014593
0.014593
0.014593
0.014593
0.014593
0.014593
0.014593
0.014593
0.014593
0.014593
0.014593
0.014593
0.0145931
0.0145931
0.0145931
0.0145932
0.0145933
0.0145935
0.0145937
0.014594
0.0145946
0.014593
0.014593
0.014593
0.014593
0.014593
0.014593
0.014593
0.014593
0.014593
0.014593
0.014593
0.014593
0.014593
0.014593
0.014593
0.014593
0.014593
0.014593
0.014593
0.014593
0.014593
0.014593
0.014593
0.014593
0.014593
0.014593
0.0145931
0.0145931
0.0145931
0.0145932
0.0145933
0.0145935
0.0145937
0.014594
0.0145946
0.0145953
0.0145965
0.0145983
0.0146014
0.014593
0.014593
0.014593
0.014593
0.014593
0.014593
0.014593
0.014593
0.014593
0.014593
0.014593
0.014593
0.014593
0.014593
0.014593
0.014593
0.014593
0.014593
0.014593
0.014593
0.014593
0.0145931
0.0145931
0.0145931
0.0145932
0.0145932
0.0145933
0.0145935
0.0145937
0.0145941
0.0145946
0.0145954
0.0145965
0.0145983
0.0146009
0.0146048
0.0146107
0.0146198
0.0146357
0.014593
0.014593
0.014593
0.014593
0.014593
0.014593
0.014593
0.014593
0.014593
0.014593
0.014593
0.014593
0.014593
0.014593
0.014593
0.014593
0.014593
0.014593
0.0145931
0.0145931
0.0145931
0.0145932
0.0145932
0.0145933
0.0145935
0.0145937
0.0145941
0.0145946
0.0145954
0.0145966
0.0145984
0.014601
0.0146049
0.0146108
0.0146196
0.0146328
0.0146525
0.0146822
0.0147274
0.0148046
0.014593
0.014593
0.014593
0.014593
0.014593
0.014593
0.014593
0.014593
0.014593
0.014593
0.014593
0.014593
0.014593
0.014593
0.0145931
0.0145931
0.0145931
0.0145932
0.0145932
0.0145934
0.0145935
0.0145938
0.0145942
0.0145947
0.0145955
0.0145967
0.0145985
0.0146012
0.0146051
0.014611
0.0146198
0.0146329
0.0146525
0.0146817
0.0147252
0.0147901
0.0148865
0.0150294
0.0152434
0.0155896
0.014593
0.014593
0.014593
0.014593
0.014593
0.014593
0.014593
0.014593
0.014593
0.014593
0.0145931
0.0145931
0.0145931
0.0145932
0.0145933
0.0145934
0.0145936
0.0145938
0.0145942
0.0145948
0.0145956
0.0145969
0.0145987
0.0146014
0.0146054
0.0146114
0.0146202
0.0146334
0.0146529
0.0146819
0.014725
0.0147888
0.0148835
0.015023
0.0152277
0.0155253
0.0159532
0.0165587
0.0174086
0.0186327
0.014593
0.014593
0.014593
0.014593
0.014593
0.014593
0.0145931
0.0145931
0.0145931
0.0145932
0.0145933
0.0145934
0.0145936
0.0145939
0.0145943
0.0145949
0.0145958
0.014597
0.0145989
0.0146017
0.0146058
0.0146119
0.0146208
0.0146341
0.0146537
0.0146827
0.0147256
0.0147889
0.0148824
0.0150197
0.0152204
0.0155113
0.015928
0.0165157
0.0173273
0.0184187
0.0198445
0.0216452
0.0238608
0.0265482
0.014593
0.0145931
0.0145931
0.0145931
0.0145932
0.0145932
0.0145933
0.0145935
0.0145937
0.0145939
0.0145944
0.014595
0.0145959
0.0145973
0.0145992
0.0146021
0.0146063
0.0146126
0.0146217
0.0146352
0.014655
0.0146842
0.0147272
0.0147905
0.0148834
0.0150193
0.0152172
0.015503
0.0159112
0.0164852
0.0172767
0.0183402
0.0197274
0.0214795
0.0236127
0.0261081
0.0289206
0.0319846
0.0352224
0.0385997
0.0145932
0.0145932
0.0145933
0.0145935
0.0145937
0.014594
0.0145945
0.0145952
0.0145961
0.0145975
0.0145996
0.0146026
0.014607
0.0146134
0.0146229
0.0146367
0.0146569
0.0146865
0.01473
0.0147936
0.0148866
0.0150221
0.0152185
0.0155011
0.0159031
0.0164667
0.0172418
0.018282
0.0196375
0.0213483
0.0234353
0.0258856
0.0286527
0.0316736
0.0348632
0.0381033
0.0413089
0.0444588
0.0473401
0.0498411
0.0145938
0.0145941
0.0145946
0.0145953
0.0145964
0.0145979
0.0146001
0.0146032
0.0146078
0.0146145
0.0146243
0.0146386
0.0146594
0.0146897
0.014734
0.0147984
0.0148923
0.0150283
0.0152247
0.0155059
0.0159044
0.016461
0.0172239
0.0182455
0.019575
0.021251
0.0232955
0.0257023
0.0284291
0.0314105
0.034575
0.0378212
0.0410386
0.0441706
0.0471466
0.0497195
0.0517523
0.0532299
0.0542343
0.0549678
0.0145956
0.0145967
0.0145983
0.0146006
0.014604
0.0146089
0.0146159
0.0146262
0.014641
0.0146626
0.0146939
0.0147393
0.0148053
0.0149007
0.0150384
0.0152362
0.0155181
0.0159159
0.016469
0.0172242
0.0182323
0.0195414
0.0211895
0.0231975
0.0255632
0.0282514
0.0311978
0.0343293
0.0375669
0.0408005
0.0439373
0.0469417
0.0496628
0.0519015
0.0535864
0.0547524
0.0555316
0.0560801
0.0564987
0.0567683
0.0570113
0.0146049
0.0146101
0.0146176
0.0146284
0.0146441
0.0146666
0.0146992
0.0147463
0.0148143
0.0149122
0.0150528
0.0152536
0.0155384
0.0159383
0.0164917
0.017244
0.0182442
0.0195391
0.0211658
0.0231445
0.0254736
0.0281244
0.0310376
0.0341386
0.0373538
0.0405936
0.0437521
0.0467571
0.0495619
0.0519735
0.0538614
0.0552106
0.0561124
0.0567246
0.0571829
0.057498
0.0577095
0.0579104
0.058124
0.0583485
0.0585614
0.0146313
0.0146478
0.0146717
0.0147059
0.0147552
0.0148259
0.0149272
0.0150719
0.0152775
0.0155676
0.0159726
0.0165304
0.0172848
0.018283
0.0195703
0.0211825
0.0231392
0.0254385
0.0280545
0.030935
0.0340073
0.037196
0.0404264
0.0436022
0.046631
0.0494568
0.0519922
0.0540604
0.0556004
0.0566481
0.0573442
0.0578443
0.0582112
0.0584383
0.0586256
0.0588218
0.0590302
0.0592217
0.0594024
0.0595906
0.0597825
0.0599948
0.0147143
0.0147662
0.0148404
0.0149462
0.0150964
0.0153087
0.0156066
0.0160201
0.0165863
0.0173479
0.0183505
0.0196372
0.0212423
0.0231844
0.0254612
0.0280478
0.0308965
0.0339404
0.0371039
0.0403142
0.0434931
0.0465457
0.0493945
0.0519883
0.0542015
0.055918
0.0571317
0.0579337
0.0584856
0.0588961
0.0591545
0.0593417
0.0595219
0.0597109
0.0599029
0.0600742
0.0602504
0.0604293
0.0606048
0.060791
0.0610058
0.0612506
0.0615332
0.0151274
0.0153485
0.0156568
0.0160823
0.0166612
0.0174354
0.0184485
0.0197418
0.0213473
0.0232824
0.0255443
0.028108
0.0309285
0.0339438
0.037082
0.0402704
0.0434378
0.0465036
0.0493809
0.0520028
0.0543098
0.0561776
0.0575544
0.0584854
0.059106
0.0595558
0.0598653
0.0600568
0.0602227
0.0603948
0.0605829
0.0607457
0.0609095
0.0610769
0.0612408
0.0614082
0.0615969
0.0618139
0.0620514
0.0623069
0.0625851
0.0628893
0.0632305
0.0161616
0.016758
0.01755
0.01858
0.0198868
0.0215003
0.0234358
0.0256897
0.0282374
0.0310347
0.034023
0.0371352
0.0403008
0.0434506
0.0465143
0.0494122
0.0520672
0.0544185
0.0563996
0.0579222
0.0589921
0.0597012
0.0601943
0.0605494
0.0607637
0.0609234
0.0610825
0.0612477
0.0614132
0.0615668
0.0617233
0.061878
0.06203
0.0621962
0.0623881
0.0626024
0.0628336
0.0630846
0.0633587
0.0636534
0.0639665
0.0642979
0.0646496
0.0650317
0.0187497
0.0200768
0.0217053
0.0236483
0.0259008
0.028438
0.031217
0.0341814
0.0372675
0.0404088
0.0435386
0.0465904
0.0494949
0.0521766
0.054567
0.0566117
0.0582517
0.0594514
0.060266
0.060814
0.061208
0.0614594
0.061623
0.0617696
0.0619172
0.0620789
0.0622224
0.0623682
0.0625148
0.062655
0.062802
0.0629698
0.0631612
0.0633698
0.0635958
0.0638433
0.0641122
0.0643995
0.0647044
0.0650267
0.0653651
0.0657183
0.066085
0.0664665
0.0668698
0.0239264
0.0261832
0.0287146
0.0314788
0.0344216
0.0374821
0.0405973
0.043704
0.0467392
0.0496385
0.0523343
0.0547573
0.0568482
0.0585648
0.0598746
0.060794
0.061413
0.0618448
0.0621411
0.0623174
0.0624543
0.062591
0.0627361
0.0628762
0.0630107
0.0631481
0.0632803
0.0634118
0.0635585
0.0637274
0.0639144
0.0641171
0.0643391
0.0645825
0.0648447
0.0651241
0.0654208
0.0657342
0.0660627
0.0664049
0.0667596
0.0671251
0.0675
0.0678829
0.0682744
0.0686784
0.0290754
0.0318272
0.0347491
0.0377834
0.0408703
0.0439499
0.0469631
0.0498497
0.052547
0.0549906
0.0571202
0.0588902
0.0602791
0.0612918
0.0619865
0.0624634
0.0627981
0.0629982
0.0631379
0.0632638
0.0633884
0.0635264
0.0636512
0.0637783
0.0639049
0.064024
0.0641523
0.0642997
0.064466
0.0646473
0.0648454
0.0650639
0.0653016
0.0655562
0.0658277
0.0661161
0.06642
0.0667382
0.0670695
0.0674125
0.0677658
0.0681278
0.0684968
0.0688709
0.0692487
0.0696282
0.0700099
0.0703946
0.0412348
0.0442824
0.0472669
0.0501323
0.0528208
0.0552719
0.0574274
0.0592409
0.0606875
0.0617722
0.0625367
0.0630628
0.0634331
0.0636723
0.0638168
0.0639329
0.0640469
0.0641736
0.0642896
0.0644056
0.0645248
0.0646362
0.0647493
0.0648773
0.0650236
0.0651848
0.0653611
0.0655557
0.0657695
0.0660003
0.0662474
0.066511
0.0667905
0.0670846
0.0673922
0.0677123
0.0680436
0.0683846
0.0687339
0.0690896
0.0694502
0.0698139
0.0701787
0.0705428
0.0709046
0.0712619
0.0716151
0.0719621
0.0476594
0.0504946
0.0531628
0.0556082
0.0577752
0.059618
0.0611098
0.062251
0.0630739
0.0636462
0.0640485
0.0643254
0.0644856
0.0645996
0.0647042
0.0648091
0.0649249
0.0650312
0.0651398
0.0652467
0.0653477
0.0654587
0.0655859
0.0657284
0.0658846
0.066057
0.0662477
0.0664555
0.0666791
0.0669188
0.0671742
0.0674445
0.0677285
0.0680254
0.0683342
0.0686536
0.0689821
0.0693185
0.0696611
0.0700082
0.0703581
0.0707091
0.0710593
0.0714067
0.0717496
0.072086
0.0724142
0.0727322
0.0730399
0.0733331
0.0581733
0.06003
0.0615516
0.0627352
0.0636064
0.0642201
0.0646508
0.064956
0.0651439
0.0652618
0.0653573
0.0654495
0.065556
0.0656539
0.0657518
0.0658536
0.0659461
0.0660423
0.0661523
0.0662768
0.0664145
0.0665665
0.0667353
0.066921
0.0671222
0.0673387
0.0675707
0.0678176
0.0680784
0.0683522
0.0686384
0.0689357
0.0692431
0.0695592
0.0698826
0.070212
0.0705456
0.0708819
0.0712191
0.0715554
0.0718892
0.0722184
0.0725412
0.0728558
0.0731603
0.0734529
0.073732
0.0739957
0.0742437
0.0744702
0.0641408
0.0647897
0.0652464
0.0655719
0.0657889
0.0659151
0.0660065
0.06609
0.0661782
0.0662735
0.0663618
0.0664531
0.066542
0.0666268
0.0667214
0.0668291
0.0669495
0.0670829
0.0672312
0.0673958
0.0675756
0.0677701
0.0679795
0.0682037
0.0684416
0.0686928
0.0689564
0.0692317
0.0695176
0.0698129
0.0701165
0.0704271
0.0707432
0.0710634
0.0713861
0.0717096
0.0720323
0.0723524
0.0726681
0.0729776
0.0732791
0.0735709
0.073851
0.0741179
0.0743698
0.0746051
0.0748225
0.0750201
0.0751979
0.0753485
0.0664168
0.0665558
0.06665
0.0667254
0.0667984
0.066888
0.0669682
0.0670486
0.0671339
0.06721
0.067291
0.0673838
0.0674882
0.0676045
0.0677343
0.0678789
0.0680383
0.068212
0.0683999
0.068602
0.0688179
0.0690469
0.0692883
0.0695417
0.069806
0.0700803
0.0703637
0.0706549
0.0709526
0.0712557
0.0715625
0.0718718
0.0721817
0.0724909
0.0727975
0.0730998
0.0733962
0.0736849
0.0739641
0.0742321
0.0744873
0.074728
0.0749527
0.0751598
0.075348
0.075516
0.0756626
0.0757856
0.0758854
0.075954
0.0674193
0.0674956
0.0675706
0.0676412
0.0677176
0.0677904
0.0678604
0.0679393
0.0680288
0.0681296
0.0682425
0.0683687
0.068509
0.0686631
0.0688307
0.0690119
0.0692065
0.069414
0.0696339
0.0698657
0.0701086
0.070362
0.0706248
0.0708962
0.071175
0.0714601
0.0717501
0.0720438
0.0723397
0.0726363
0.0729321
0.0732254
0.0735146
0.0737981
0.0740741
0.0743411
0.0745972
0.074841
0.0750708
0.0752851
0.0754826
0.0756617
0.0758213
0.0759601
0.0760765
0.0761698
0.0762394
0.076282
0.0762951
0.076278
0.068295
0.0683656
0.0684279
0.0684944
0.068571
0.0686572
0.0687545
0.068864
0.0689862
0.0691218
0.0692704
0.0694319
0.0696063
0.0697933
0.0699925
0.0702033
0.0704253
0.0706579
0.0709003
0.0711517
0.0714112
0.0716777
0.0719502
0.0722274
0.072508
0.0727908
0.0730742
0.0733569
0.0736371
0.0739134
0.0741843
0.0744479
0.0747028
0.0749474
0.07518
0.0753993
0.0756036
0.0757917
0.0759622
0.0761138
0.0762452
0.076355
0.0764425
0.076507
0.0765458
0.0765556
0.0765425
0.0765002
0.0764314
0.0763319
0.0691127
0.0691859
0.069269
0.0693631
0.0694689
0.0695872
0.069718
0.069861
0.0700162
0.0701837
0.070363
0.0705537
0.0707555
0.0709679
0.0711902
0.0714217
0.0716618
0.0719095
0.0721638
0.0724238
0.0726883
0.0729561
0.0732259
0.0734963
0.073766
0.0740334
0.0742971
0.0745555
0.0748071
0.0750503
0.0752836
0.0755054
0.0757145
0.0759092
0.0760882
0.0762504
0.0763944
0.0765188
0.0766224
0.0767046
0.0767644
0.0767987
0.0768055
0.0767905
0.0767477
0.0766804
0.0765895
0.0764768
0.0763393
0.0761657
0.0699557
0.0700578
0.0701719
0.0702977
0.070435
0.070584
0.0707445
0.0709161
0.0710984
0.0712912
0.071494
0.0717061
0.0719269
0.0721558
0.0723918
0.0726342
0.0728818
0.0731338
0.0733889
0.0736459
0.0739035
0.0741604
0.0744153
0.0746666
0.0749128
0.0751526
0.0753843
0.0756067
0.0758181
0.0760172
0.0762026
0.0763731
0.0765272
0.076664
0.0767819
0.0768798
0.0769569
0.0770125
0.0770428
0.0770471
0.0770304
0.0769872
0.0769203
0.0768303
0.0767201
0.0765853
0.0764233
0.0762305
0.0760073
0.075746
0.0708614
0.070993
0.0711357
0.0712892
0.071453
0.0716271
0.071811
0.0720042
0.0722062
0.0724165
0.0726343
0.0728589
0.0730894
0.073325
0.0735646
0.0738072
0.0740516
0.0742967
0.074541
0.0747835
0.0750226
0.0752569
0.0754851
0.0757058
0.0759174
0.0761187
0.0763082
0.0764847
0.0766469
0.0767935
0.0769234
0.0770352
0.0771277
0.0772004
0.0772521
0.0772789
0.0772812
0.0772633
0.0772203
0.077154
0.0770648
0.0769561
0.0768236
0.0766648
0.0764768
0.0762595
0.0760134
0.0757362
0.0754291
0.0750834
0.0718182
0.0719744
0.0721402
0.0723153
0.0724991
0.0726912
0.072891
0.0730979
0.0733113
0.0735302
0.073754
0.0739815
0.0742118
0.0744439
0.0746766
0.0749087
0.0751389
0.0753661
0.0755887
0.0758056
0.0760154
0.0762166
0.076408
0.0765883
0.0767562
0.0769104
0.0770498
0.0771732
0.0772792
0.0773667
0.0774353
0.0774835
0.0775073
0.0775083
0.0774897
0.0774475
0.0773821
0.0772941
0.0771872
0.0770574
0.076902
0.076718
0.076506
0.076266
0.0759968
0.0756986
0.0753715
0.0750139
0.0746274
0.0742027
0.0728047
0.0729792
0.0731615
0.0733511
0.0735474
0.0737497
0.0739573
0.0741694
0.0743851
0.0746034
0.0748235
0.075044
0.0752641
0.0754824
0.0756979
0.0759091
0.0761149
0.076314
0.076505
0.0766869
0.0768582
0.0770177
0.0771643
0.0772968
0.0774139
0.0775145
0.0775975
0.0776623
0.0777071
0.0777286
0.0777287
0.0777102
0.0776691
0.0776049
0.0775185
0.0774138
0.0772872
0.0771358
0.0769564
0.07675
0.0765164
0.0762543
0.0759644
0.0756466
0.0753005
0.0749256
0.0745233
0.0740895
0.0736288
0.0731302
0.0737974
0.0739832
0.0741747
0.0743712
0.0745719
0.074776
0.0749826
0.0751909
0.0753997
0.075608
0.0758147
0.0760187
0.0762187
0.0764137
0.0766024
0.0767835
0.076956
0.0771185
0.0772699
0.0774091
0.0775349
0.0776462
0.0777416
0.0778203
0.0778817
0.0779234
0.0779431
0.0779427
0.077925
0.0778851
0.0778223
0.0777379
0.0776359
0.0775131
0.0773661
0.0771919
0.0769917
0.0767651
0.0765108
0.0762294
0.075921
0.075585
0.0752216
0.0748311
0.074413
0.073967
0.0734943
0.0729908
0.0724622
0.0718954
0.0747725
0.074962
0.0751548
0.07535
0.0755467
0.075744
0.0759409
0.0761362
0.0763291
0.0765183
0.0767027
0.0768812
0.0770527
0.077216
0.07737
0.0775135
0.0776454
0.0777648
0.0778703
0.0779609
0.0780356
0.0780938
0.0781328
0.078151
0.0781503
0.0781339
0.0780954
0.0780343
0.077952
0.0778534
0.0777348
0.0775926
0.0774243
0.0772309
0.0770118
0.0767658
0.0764937
0.0761952
0.0758699
0.075518
0.0751397
0.0747345
0.0743028
0.0738445
0.07336
0.0728487
0.0723118
0.0717457
0.0711562
0.0705305
0.0757062
0.0758917
0.0760777
0.0762634
0.0764477
0.0766297
0.0768083
0.0769825
0.0771511
0.0773132
0.0774676
0.0776132
0.077749
0.077874
0.077987
0.078087
0.0781729
0.0782438
0.0782988
0.0783354
0.0783525
0.0783519
0.078337
0.0783
0.0782409
0.0781611
0.0780661
0.077952
0.0778151
0.0776531
0.0774669
0.0772558
0.0770188
0.0767565
0.0764685
0.0761545
0.0758146
0.0754491
0.0750573
0.0746398
0.0741964
0.0737273
0.0732328
0.072713
0.0721683
0.0715984
0.0710045
0.0703836
0.0697411
0.0690657
0.0765762
0.0767497
0.0769211
0.0770894
0.0772536
0.0774127
0.0775656
0.0777113
0.0778488
0.0779771
0.0780952
0.0782021
0.0782967
0.078378
0.0784452
0.0784972
0.0785316
0.0785479
0.0785476
0.0785342
0.0784989
0.078442
0.078365
0.0782738
0.0781644
0.0780332
0.0778779
0.0776993
0.0774966
0.077269
0.0770169
0.0767399
0.0764377
0.0761105
0.0757583
0.0753806
0.0749777
0.0745497
0.0740967
0.0736188
0.0731162
0.0725893
0.0720385
0.0714639
0.0708662
0.0702453
0.0696025
0.0689352
0.0682486
0.0675331
0.0772039
0.0773621
0.0775166
0.0776663
0.0778103
0.0779476
0.0780772
0.0781983
0.0783097
0.0784107
0.0785
0.0785769
0.0786405
0.0786893
0.0787217
0.0787373
0.0787378
0.0787257
0.0786921
0.0786375
0.0785637
0.0784764
0.078372
0.0782466
0.0780982
0.0779274
0.0777335
0.0775155
0.077274
0.0770084
0.0767185
0.0764043
0.0760659
0.0757028
0.0753152
0.0749032
0.0744667
0.074006
0.0735212
0.0730126
0.0724806
0.0719254
0.0713476
0.0707476
0.0701259
0.0694832
0.0688197
0.0681366
0.0674322
0.066711
0.0659655
0.0779125
0.0780478
0.0781769
0.0782989
0.0784129
0.0785179
0.078613
0.0786972
0.0787698
0.0788299
0.0788757
0.0789062
0.0789213
0.0789226
0.0789115
0.0788798
0.0788275
0.078757
0.0786737
0.0785743
0.0784549
0.0783136
0.0781508
0.0779659
0.0777578
0.077527
0.0772731
0.0769958
0.0766948
0.0763706
0.0760224
0.0756506
0.0752549
0.0748355
0.0743925
0.0739261
0.0734364
0.0729237
0.0723884
0.0718309
0.0712516
0.070651
0.0700298
0.0693885
0.068728
0.0680489
0.0673518
0.0666379
0.0659062
0.0651607
0.0643959
0.0783998
0.0785143
0.0786213
0.07872
0.0788095
0.0788888
0.0789571
0.0790138
0.0790567
0.0790855
0.0790999
0.079102
0.0790918
0.079062
0.0790121
0.078945
0.0788657
0.0787712
0.0786579
0.0785239
0.0783691
0.0781932
0.0779951
0.0777753
0.0775332
0.0772685
0.0769811
0.0766713
0.0763383
0.0759824
0.0756034
0.0752015
0.0747766
0.0743288
0.0738584
0.0733656
0.0728507
0.072314
0.0717558
0.0711768
0.0705775
0.0699584
0.0693202
0.0686638
0.0679898
0.0672993
0.066593
0.0658718
0.0651371
0.0643883
0.0636293
0.062856
0.0789166
0.0790005
0.0790749
0.0791392
0.0791924
0.0792325
0.0792596
0.0792735
0.0792762
0.0792667
0.0792388
0.0791914
0.0791279
0.0790523
0.0789628
0.0788555
0.0787287
0.078582
0.0784151
0.0782271
0.0780182
0.0777879
0.077536
0.0772622
0.0769669
0.0766491
0.0763093
0.0759472
0.0755628
0.0751563
0.0747275
0.0742767
0.0738041
0.0733099
0.0727944
0.072258
0.071701
0.071124
0.0705275
0.0699122
0.0692787
0.0686278
0.0679604
0.0672774
0.0665797
0.0658683
0.0651445
0.0644092
0.0636638
0.0629084
0.0621468
0.061376
0.0793164
0.0793661
0.0794034
0.0794289
0.0794424
0.0794454
0.0794365
0.0794106
0.0793657
0.0793056
0.0792336
0.079149
0.0790477
0.0789279
0.0787892
0.0786313
0.0784533
0.0782552
0.0780367
0.0777975
0.0775373
0.0772564
0.076954
0.0766302
0.076285
0.0759183
0.0755301
0.0751205
0.0746894
0.0742372
0.0737639
0.0732699
0.0727554
0.0722208
0.0716666
0.0710931
0.070501
0.069891
0.0692636
0.0686198
0.0679602
0.067286
0.066598
0.0658973
0.0651851
0.0644626
0.063731
0.0629915
0.0622459
0.0614944
0.060741
0.0599836
0.0795936
0.0796068
0.07961
0.0796016
0.0795774
0.079535
0.0794783
0.0794097
0.0793299
0.0792343
0.0791215
0.0789905
0.0788415
0.0786732
0.0784858
0.078279
0.0780524
0.0778057
0.077539
0.0772518
0.0769441
0.0766157
0.0762666
0.0758968
0.0755062
0.0750949
0.0746631
0.0742109
0.0737384
0.073246
0.072734
0.0722027
0.0716525
0.0710841
0.0704978
0.0698944
0.0692745
0.068639
0.0679886
0.0673243
0.0666471
0.0659581
0.0652583
0.0645491
0.0638317
0.0631075
0.0623779
0.0616444
0.0609087
0.0601716
0.059437
0.0587035
0.0797621
0.0797395
0.0796996
0.0796461
0.0795807
0.0795055
0.0794155
0.0793095
0.079186
0.0790455
0.0788868
0.0787099
0.0785145
0.0783002
0.0780668
0.0778141
0.077542
0.07725
0.0769384
0.0766067
0.0762551
0.0758835
0.0754919
0.0750804
0.0746491
0.0741982
0.0737279
0.0732384
0.0727302
0.0722035
0.0716587
0.0710965
0.0705173
0.0699217
0.0693105
0.0686844
0.0680443
0.067391
0.0667256
0.0660491
0.0653627
0.0646675
0.0639649
0.0632562
0.0625428
0.0618264
0.0611084
0.0603905
0.0596747
0.0589619
0.0582564
0.0575568
0.0798091
0.079747
0.0796759
0.0795913
0.0794917
0.0793755
0.0792433
0.0790939
0.0789271
0.0787428
0.0785406
0.0783201
0.0780812
0.0778238
0.0775474
0.0772521
0.0769377
0.0766041
0.0762512
0.0758791
0.0754877
0.0750772
0.0746477
0.0741994
0.0737325
0.0732472
0.0727438
0.0722229
0.0716847
0.0711298
0.0705587
0.0699721
0.0693706
0.068755
0.068126
0.0674847
0.0668319
0.0661688
0.0654963
0.0648158
0.0641284
0.0634356
0.0627388
0.0620394
0.0613392
0.0606396
0.0599424
0.0592495
0.058563
0.0578841
0.0572168
0.0565602
0.0797618
0.0796683
0.0795591
0.0794348
0.0792944
0.0791374
0.0789639
0.0787733
0.0785654
0.0783399
0.0780969
0.0778358
0.0775565
0.0772589
0.076943
0.0766085
0.0762556
0.0758841
0.0754941
0.0750858
0.0746592
0.0742146
0.0737521
0.073272
0.0727747
0.0722605
0.0717298
0.0711833
0.0706213
0.0700445
0.0694535
0.0688492
0.0682323
0.0676037
0.0669643
0.0663151
0.0656572
0.0649919
0.0643202
0.0636437
0.0629635
0.0622814
0.0615987
0.0609171
0.0602384
0.0595643
0.0588967
0.0582374
0.0575886
0.0569519
0.0563302
0.055723
0.0794883
0.0793408
0.0791776
0.0789983
0.0788026
0.0785902
0.0783609
0.0781146
0.0778509
0.0775699
0.0772711
0.0769547
0.0766205
0.0762686
0.0758988
0.0755113
0.0751062
0.0746835
0.0742436
0.0737865
0.0733126
0.0728222
0.0723157
0.0717935
0.0712561
0.070704
0.0701378
0.0695582
0.0689659
0.0683616
0.0677463
0.0671208
0.0664861
0.0658433
0.0651935
0.064538
0.0638779
0.0632146
0.0625497
0.0618845
0.0612208
0.0605601
0.0599043
0.0592551
0.0586144
0.0579841
0.0573658
0.0567614
0.0561713
0.0555958
0.0550321
0.0792154
0.0790315
0.0788317
0.0786158
0.0783838
0.0781353
0.0778702
0.0775882
0.0772893
0.0769735
0.0766405
0.0762905
0.0759234
0.0755393
0.0751383
0.0747205
0.0742861
0.0738354
0.0733685
0.0728859
0.0723879
0.0718749
0.0713473
0.0708058
0.0702509
0.0696832
0.0691034
0.0685124
0.0679108
0.0672997
0.0666799
0.0660525
0.0654186
0.0647793
0.0641358
0.0634896
0.0628418
0.0621941
0.061548
0.0609051
0.0602671
0.0596357
0.0590128
0.0584001
0.0577994
0.0572121
0.0566385
0.0560785
0.0555277
0.0549728
0.0544136
0.0788614
0.0786432
0.0784093
0.0781596
0.0778939
0.077612
0.0773139
0.0769995
0.0766687
0.0763215
0.075958
0.0755781
0.0751821
0.07477
0.074342
0.0738983
0.0734392
0.0729651
0.0724762
0.071973
0.071456
0.0709256
0.0703825
0.0698272
0.0692605
0.068683
0.0680957
0.0674992
0.0668946
0.0662828
0.0656649
0.0650419
0.0644152
0.0637859
0.0631553
0.062525
0.0618962
0.0612708
0.0606501
0.060036
0.0594302
0.0588344
0.0582502
0.0576791
0.0571212
0.0565768
0.0560397
0.0554971
0.0549499
0.0544078
0.0538631
0.078188
0.0779226
0.0776417
0.0773452
0.0770331
0.0767052
0.0763617
0.0760025
0.0756276
0.0752373
0.0748315
0.0744106
0.0739747
0.073524
0.073059
0.0725798
0.0720871
0.071581
0.0710623
0.0705314
0.069989
0.0694356
0.0688721
0.0682991
0.0677175
0.0671282
0.0665321
0.0659303
0.0653238
0.0647137
0.0641012
0.0634877
0.0628745
0.0622629
0.0616545
0.0610509
0.0604536
0.0598643
0.0592847
0.0587163
0.0581605
0.0576174
0.0570875
0.0565638
0.0560343
0.0555002
0.0549701
0.0544374
0.0538981
0.0533436
0.0776775
0.0773834
0.0770743
0.0767501
0.0764109
0.0760567
0.0756875
0.0753035
0.0749048
0.0744915
0.0740639
0.0736222
0.0731668
0.0726979
0.0722159
0.0717214
0.0712147
0.0706964
0.0701671
0.0696273
0.0690779
0.0685195
0.0679529
0.067379
0.0667987
0.066213
0.0656228
0.0650292
0.0644335
0.0638368
0.0632404
0.0626457
0.0620541
0.061467
0.0608861
0.0603128
0.0597488
0.0591955
0.0586542
0.0581251
0.0576091
0.0570984
0.0565815
0.0560606
0.0555432
0.0550231
0.0544948
0.0539513
0.0533819
0.0527673
0.0771231
0.0768033
0.076469
0.0761204
0.0757575
0.0753804
0.0749892
0.0745841
0.0741653
0.0737331
0.0732877
0.0728294
0.0723587
0.0718759
0.0713815
0.0708761
0.0703601
0.0698342
0.0692991
0.0687553
0.0682038
0.0676454
0.0670808
0.066511
0.065937
0.0653599
0.0647807
0.0642005
0.0636207
0.0630425
0.0624672
0.0618963
0.0613313
0.0607735
0.0602245
0.0596857
0.0591584
0.0586427
0.0581397
0.0576419
0.0571374
0.0566293
0.0561243
0.0556168
0.055101
0.0545693
0.0540102
0.0534064
0.0527339
0.0519546
0.0765359
0.0761934
0.0758373
0.0754676
0.0750844
0.0746879
0.0742783
0.0738559
0.0734208
0.0729735
0.0725143
0.0720435
0.0715617
0.0710693
0.0705668
0.0700549
0.0695341
0.0690051
0.0684687
0.0679256
0.0673766
0.0668227
0.0662648
0.0657038
0.0651408
0.064577
0.0640134
0.0634513
0.062892
0.0623368
0.0617871
0.0612444
0.0607099
0.0601851
0.0596711
0.0591683
0.0586776
0.0581926
0.0577006
0.0572048
0.0567121
0.056217
0.0557136
0.0551944
0.0546481
0.054057
0.0533961
0.0526294
0.0517096
0.0505771
0.0759264
0.0755644
0.0751896
0.0748021
0.0744021
0.0739897
0.0735654
0.0731292
0.0726817
0.0722232
0.0717541
0.0712748
0.0707859
0.070288
0.0697815
0.0692673
0.0687458
0.068218
0.0676846
0.0671464
0.0666043
0.0660593
0.0655123
0.0649644
0.0644167
0.0638704
0.0633266
0.0627867
0.062252
0.0617237
0.0612032
0.0606919
0.0601907
0.0597002
0.0592213
0.058749
0.0582696
0.0577857
0.057305
0.0568221
0.0563313
0.055825
0.0552922
0.0547157
0.0540706
0.0533211
0.0524188
0.0513043
0.0499152
0.048204
0.0753044
0.0749262
0.0745359
0.0741339
0.0737204
0.0732957
0.07286
0.0724138
0.0719575
0.0714915
0.0710162
0.0705322
0.0700401
0.0695405
0.069034
0.0685214
0.0680033
0.0674806
0.0669541
0.0664248
0.0658935
0.0653612
0.0648291
0.0642981
0.0637695
0.0632444
0.0627241
0.0622099
0.061703
0.0612046
0.0607158
0.0602371
0.0597694
0.0593094
0.0588427
0.0583703
0.0579016
0.0574309
0.0569526
0.0564594
0.055941
0.0553805
0.0547537
0.0540254
0.0531478
0.0520609
0.0507
0.0490133
0.0469852
0.0446489
0.0746792
0.0742877
0.0738852
0.0734719
0.0730483
0.0726145
0.0721709
0.0717181
0.0712564
0.0707864
0.0703086
0.0698235
0.0693318
0.0688341
0.0683312
0.0678238
0.0673127
0.0667988
0.0662828
0.0657659
0.0652489
0.064733
0.0642191
0.0637085
0.0632023
0.0627016
0.0622078
0.0617219
0.061245
0.0607777
0.0603206
0.0598726
0.0594185
0.0589575
0.0585004
0.0580418
0.057576
0.0570963
0.0565927
0.0560493
0.0554429
0.0547393
0.0538917
0.0528403
0.0515191
0.0498719
0.0478767
0.0455587
0.0429812
0.040223
0.0736571
0.0732454
0.0728241
0.0723934
0.0719537
0.0715056
0.0710494
0.0705857
0.070115
0.0696379
0.0691551
0.0686671
0.0681748
0.0676788
0.0671799
0.0666791
0.0661771
0.065675
0.0651737
0.0646742
0.0641776
0.0636851
0.0631976
0.0627165
0.0622427
0.0617773
0.061321
0.0608741
0.0604372
0.0599959
0.0595461
0.0591005
0.0586537
0.0582002
0.0577341
0.0572458
0.0567204
0.0561358
0.0554597
0.0546465
0.0536374
0.0523654
0.0507702
0.0488225
0.0465398
0.0439804
0.0412192
0.0383301
0.0353861
0.0730417
0.0726238
0.0721973
0.0717626
0.0713201
0.0708704
0.070414
0.0699513
0.069483
0.0690098
0.0685322
0.068051
0.067567
0.0670809
0.0665937
0.066106
0.065619
0.0651335
0.0646506
0.0641713
0.0636967
0.0632279
0.0627658
0.0623116
0.0618659
0.0614288
0.0610022
0.0605735
0.0601354
0.0597007
0.0592654
0.058824
0.0583715
0.0578987
0.0573917
0.0568301
0.0561834
0.0554081
0.0544469
0.0532324
0.0517007
0.049814
0.047581
0.0450536
0.0423047
0.0394079
0.0364332
0.0334504
0.030533
0.0724478
0.0720264
0.0715976
0.0711617
0.0707192
0.0702708
0.0698168
0.069358
0.068895
0.0684284
0.0679589
0.0674873
0.0670143
0.0665409
0.0660678
0.065596
0.0651264
0.0646601
0.0641979
0.0637411
0.0632904
0.0628469
0.0624115
0.0619841
0.0615667
0.0611503