/*--------------------------------*- C++ -*----------------------------------*\
| =========                 |                                                 |
| \\      /  F ield         | OpenFOAM: The Open Source CFD Toolbox           |
|  \\    /   O peration     | Version:  v1706                                 |
|   \\  /    A nd           | Web:      www.OpenFOAM.com                      |
|    \\/     M anipulation  |                                                 |
\*---------------------------------------------------------------------------*/
FoamFile
{
    version     2.0;
    format      ascii;
    class       volScalarField;
    location    "3e-06";
    object      kappave;
}
// * * * * * * * * * * * * * * * * * * * * * * * * * * * * * * * * * * * * * //

dimensions      [1 1 -3 -1 0 0 0];


internalField   nonuniform List<scalar> 
30038
(
1.46038e-10
1.46038e-10
1.46038e-10
1.46038e-10
1.46038e-10
1.46038e-10
1.46038e-10
1.46038e-10
1.46038e-10
1.46038e-10
1.46038e-10
1.46038e-10
1.46038e-10
1.46038e-10
1.46038e-10
1.46038e-10
1.46038e-10
1.46038e-10
1.46038e-10
1.46038e-10
1.46038e-10
1.46038e-10
1.46038e-10
1.46038e-10
1.46038e-10
1.46038e-10
1.46038e-10
1.46038e-10
1.46038e-10
1.46038e-10
1.46038e-10
1.46038e-10
1.46038e-10
1.46038e-10
1.46038e-10
1.46038e-10
1.46038e-10
1.46038e-10
1.46038e-10
1.46038e-10
1.46038e-10
1.46038e-10
1.46038e-10
1.46038e-10
1.46038e-10
1.46038e-10
1.46038e-10
1.46038e-10
1.46038e-10
1.46038e-10
1.46038e-10
1.46038e-10
1.46038e-10
1.46038e-10
1.46038e-10
1.46038e-10
1.46038e-10
1.46038e-10
1.46038e-10
1.46038e-10
1.46038e-10
1.46038e-10
1.46038e-10
1.46038e-10
1.46038e-10
1.46038e-10
1.46038e-10
1.46038e-10
1.46038e-10
1.46038e-10
1.46038e-10
1.46038e-10
1.46038e-10
1.46038e-10
1.46038e-10
1.46038e-10
1.46038e-10
1.46038e-10
1.46038e-10
1.46038e-10
1.46038e-10
1.46038e-10
1.46038e-10
1.46038e-10
1.46038e-10
1.46038e-10
1.46038e-10
1.46038e-10
1.46038e-10
1.46038e-10
1.46038e-10
1.46038e-10
1.46038e-10
1.46038e-10
1.46038e-10
1.46038e-10
1.46038e-10
1.46038e-10
1.46038e-10
1.46038e-10
1.46038e-10
1.46038e-10
1.46038e-10
1.46038e-10
1.46038e-10
1.46038e-10
1.46038e-10
1.46038e-10
1.46038e-10
1.46038e-10
1.46038e-10
1.46038e-10
1.46038e-10
1.46038e-10
1.46038e-10
1.46038e-10
1.46038e-10
1.46038e-10
1.46038e-10
1.46038e-10
1.46038e-10
1.46038e-10
1.46038e-10
1.46038e-10
1.46038e-10
1.46038e-10
1.46038e-10
1.46038e-10
1.46038e-10
1.46038e-10
1.46038e-10
1.46038e-10
1.46038e-10
1.46038e-10
1.46038e-10
1.46038e-10
1.46038e-10
1.46038e-10
1.46038e-10
1.46038e-10
1.46038e-10
1.46038e-10
1.46038e-10
1.46038e-10
1.46038e-10
1.46038e-10
1.46038e-10
1.46038e-10
1.46038e-10
1.46038e-10
1.46038e-10
1.46038e-10
1.46038e-10
1.46038e-10
1.46038e-10
1.46038e-10
1.46038e-10
1.46038e-10
1.46038e-10
1.46038e-10
1.46038e-10
1.46038e-10
1.46038e-10
1.46038e-10
1.46038e-10
1.46038e-10
1.46038e-10
1.46038e-10
1.46038e-10
1.46038e-10
1.46038e-10
1.46038e-10
1.46038e-10
1.46038e-10
1.46038e-10
1.46038e-10
1.46038e-10
1.46038e-10
1.46038e-10
1.46038e-10
1.46038e-10
1.46038e-10
1.46038e-10
1.46038e-10
1.46038e-10
1.46038e-10
1.46038e-10
1.46038e-10
1.46038e-10
1.46038e-10
1.46038e-10
1.46038e-10
1.46038e-10
1.46038e-10
1.46038e-10
1.46038e-10
1.46038e-10
1.46038e-10
1.46038e-10
1.46038e-10
1.46038e-10
1.46038e-10
1.46038e-10
1.46038e-10
1.46038e-10
1.46038e-10
1.46038e-10
1.46038e-10
1.46038e-10
1.46038e-10
1.46038e-10
1.46038e-10
1.46038e-10
1.46038e-10
1.46038e-10
1.46038e-10
1.46038e-10
1.46038e-10
1.46038e-10
1.46038e-10
1.46038e-10
1.46038e-10
1.46038e-10
1.46038e-10
1.46038e-10
1.46038e-10
1.46038e-10
1.46038e-10
1.46038e-10
1.46038e-10
1.46038e-10
1.46038e-10
1.46038e-10
1.46038e-10
1.46038e-10
1.46038e-10
1.46038e-10
1.46038e-10
1.46038e-10
1.46038e-10
1.46038e-10
1.46038e-10
1.46038e-10
1.46038e-10
1.46038e-10
1.46038e-10
1.46038e-10
1.46038e-10
1.46038e-10
1.46038e-10
1.46038e-10
1.46038e-10
1.46038e-10
1.46038e-10
1.46038e-10
1.46038e-10
1.46038e-10
1.46038e-10
1.46038e-10
1.46038e-10
1.46038e-10
1.46038e-10
1.46038e-10
1.46038e-10
1.46038e-10
1.46038e-10
1.46038e-10
1.46038e-10
1.46038e-10
1.46038e-10
1.46038e-10
1.46038e-10
1.46038e-10
1.46038e-10
1.46038e-10
1.46038e-10
1.46038e-10
1.46038e-10
1.46038e-10
1.46038e-10
1.46038e-10
1.46038e-10
1.46038e-10
1.46038e-10
1.46038e-10
1.46038e-10
1.46038e-10
1.46038e-10
1.46038e-10
1.46038e-10
1.46038e-10
1.46038e-10
1.46038e-10
1.46038e-10
1.46038e-10
1.46038e-10
1.46038e-10
1.46038e-10
1.46038e-10
1.46038e-10
1.46039e-10
1.46039e-10
1.4604e-10
1.46041e-10
1.46038e-10
1.46038e-10
1.46038e-10
1.46038e-10
1.46038e-10
1.46038e-10
1.46038e-10
1.46038e-10
1.46038e-10
1.46038e-10
1.46038e-10
1.46038e-10
1.46038e-10
1.46038e-10
1.46038e-10
1.46038e-10
1.46038e-10
1.46038e-10
1.46038e-10
1.46038e-10
1.46038e-10
1.46038e-10
1.46038e-10
1.46038e-10
1.46038e-10
1.46038e-10
1.46038e-10
1.46038e-10
1.46038e-10
1.46038e-10
1.46038e-10
1.46039e-10
1.46039e-10
1.4604e-10
1.46041e-10
1.46043e-10
1.46045e-10
1.46049e-10
1.46057e-10
1.46038e-10
1.46038e-10
1.46038e-10
1.46038e-10
1.46038e-10
1.46038e-10
1.46038e-10
1.46038e-10
1.46038e-10
1.46038e-10
1.46038e-10
1.46038e-10
1.46038e-10
1.46038e-10
1.46038e-10
1.46038e-10
1.46038e-10
1.46038e-10
1.46038e-10
1.46038e-10
1.46038e-10
1.46038e-10
1.46038e-10
1.46038e-10
1.46038e-10
1.46038e-10
1.46038e-10
1.46039e-10
1.46039e-10
1.4604e-10
1.46041e-10
1.46043e-10
1.46045e-10
1.46049e-10
1.46056e-10
1.46065e-10
1.46079e-10
1.46101e-10
1.46142e-10
1.46038e-10
1.46038e-10
1.46038e-10
1.46038e-10
1.46038e-10
1.46038e-10
1.46038e-10
1.46038e-10
1.46038e-10
1.46038e-10
1.46038e-10
1.46038e-10
1.46038e-10
1.46038e-10
1.46038e-10
1.46038e-10
1.46038e-10
1.46038e-10
1.46038e-10
1.46038e-10
1.46038e-10
1.46038e-10
1.46038e-10
1.46039e-10
1.46039e-10
1.4604e-10
1.46041e-10
1.46043e-10
1.46046e-10
1.4605e-10
1.46056e-10
1.46066e-10
1.4608e-10
1.46102e-10
1.46135e-10
1.46187e-10
1.46266e-10
1.46391e-10
1.46623e-10
1.46038e-10
1.46038e-10
1.46038e-10
1.46038e-10
1.46038e-10
1.46038e-10
1.46038e-10
1.46038e-10
1.46038e-10
1.46038e-10
1.46038e-10
1.46038e-10
1.46038e-10
1.46038e-10
1.46038e-10
1.46038e-10
1.46038e-10
1.46038e-10
1.46038e-10
1.46038e-10
1.46039e-10
1.46039e-10
1.4604e-10
1.46042e-10
1.46043e-10
1.46046e-10
1.4605e-10
1.46057e-10
1.46067e-10
1.46081e-10
1.46104e-10
1.46138e-10
1.46191e-10
1.46271e-10
1.46395e-10
1.46585e-10
1.46879e-10
1.47336e-10
1.48058e-10
1.49396e-10
1.46038e-10
1.46038e-10
1.46038e-10
1.46038e-10
1.46038e-10
1.46038e-10
1.46038e-10
1.46038e-10
1.46038e-10
1.46038e-10
1.46038e-10
1.46038e-10
1.46038e-10
1.46038e-10
1.46038e-10
1.46039e-10
1.46039e-10
1.4604e-10
1.4604e-10
1.46042e-10
1.46044e-10
1.46047e-10
1.46051e-10
1.46058e-10
1.46068e-10
1.46083e-10
1.46107e-10
1.46142e-10
1.46196e-10
1.46278e-10
1.46404e-10
1.46598e-10
1.46896e-10
1.47357e-10
1.48072e-10
1.49182e-10
1.50911e-10
1.5361e-10
1.57892e-10
1.65674e-10
1.46038e-10
1.46038e-10
1.46038e-10
1.46038e-10
1.46038e-10
1.46038e-10
1.46038e-10
1.46038e-10
1.46038e-10
1.46038e-10
1.46038e-10
1.46039e-10
1.46039e-10
1.4604e-10
1.46041e-10
1.46042e-10
1.46044e-10
1.46047e-10
1.46052e-10
1.46059e-10
1.4607e-10
1.46086e-10
1.4611e-10
1.46147e-10
1.46202e-10
1.46287e-10
1.46417e-10
1.46615e-10
1.4692e-10
1.4739e-10
1.48116e-10
1.49241e-10
1.50987e-10
1.53705e-10
1.57941e-10
1.64549e-10
1.7487e-10
1.90991e-10
2.1646e-10
2.60846e-10
1.46038e-10
1.46038e-10
1.46038e-10
1.46038e-10
1.46038e-10
1.46038e-10
1.46038e-10
1.46039e-10
1.46039e-10
1.4604e-10
1.46041e-10
1.46042e-10
1.46045e-10
1.46048e-10
1.46053e-10
1.46061e-10
1.46072e-10
1.46089e-10
1.46114e-10
1.46153e-10
1.46211e-10
1.46299e-10
1.46434e-10
1.46639e-10
1.46953e-10
1.47436e-10
1.48179e-10
1.49327e-10
1.51105e-10
1.53864e-10
1.58155e-10
1.64833e-10
1.75234e-10
1.91439e-10
2.16646e-10
2.55698e-10
3.15903e-10
4.07878e-10
5.48005e-10
7.72329e-10
1.46038e-10
1.46038e-10
1.46038e-10
1.46039e-10
1.46039e-10
1.4604e-10
1.46041e-10
1.46043e-10
1.46045e-10
1.46049e-10
1.46055e-10
1.46063e-10
1.46075e-10
1.46093e-10
1.4612e-10
1.4616e-10
1.46222e-10
1.46314e-10
1.46455e-10
1.46669e-10
1.46996e-10
1.47496e-10
1.48264e-10
1.49446e-10
1.5127e-10
1.54094e-10
1.58472e-10
1.65269e-10
1.7583e-10
1.92246e-10
2.17739e-10
2.57188e-10
3.17863e-10
4.10388e-10
5.49448e-10
7.53997e-10
1.04792e-09
1.45997e-09
2.02597e-09
2.82743e-09
1.4604e-10
1.4604e-10
1.46042e-10
1.46044e-10
1.46046e-10
1.4605e-10
1.46056e-10
1.46065e-10
1.46078e-10
1.46097e-10
1.46126e-10
1.4617e-10
1.46235e-10
1.46333e-10
1.46482e-10
1.46707e-10
1.4705e-10
1.47573e-10
1.48374e-10
1.49602e-10
1.51492e-10
1.54406e-10
1.58911e-10
1.65885e-10
1.76693e-10
1.93447e-10
2.19403e-10
2.59502e-10
3.21069e-10
4.14757e-10
5.55503e-10
7.62757e-10
1.06038e-09
1.47729e-09
2.04561e-09
2.79491e-09
3.7562e-09
4.97339e-09
6.46476e-09
8.37254e-09
1.46047e-10
1.46052e-10
1.46058e-10
1.46068e-10
1.46082e-10
1.46103e-10
1.46134e-10
1.46181e-10
1.46252e-10
1.46357e-10
1.46516e-10
1.46756e-10
1.47119e-10
1.47672e-10
1.48515e-10
1.49804e-10
1.5178e-10
1.54817e-10
1.59495e-10
1.66715e-10
1.77871e-10
1.95113e-10
2.21747e-10
2.62797e-10
3.25699e-10
4.21195e-10
5.64367e-10
7.75199e-10
1.07812e-09
1.50191e-09
2.08035e-09
2.84695e-09
3.83126e-09
5.06877e-09
6.5998e-09
8.41459e-09
1.04948e-08
1.28218e-08
1.53722e-08
1.84572e-08
1.46071e-10
1.46087e-10
1.4611e-10
1.46145e-10
1.46196e-10
1.46272e-10
1.46386e-10
1.46558e-10
1.46816e-10
1.47206e-10
1.47796e-10
1.48693e-10
1.5006e-10
1.52147e-10
1.55345e-10
1.60252e-10
1.678e-10
1.79423e-10
1.97331e-10
2.24903e-10
2.67265e-10
3.32013e-10
4.30069e-10
5.76668e-10
7.92193e-10
1.10188e-09
1.53496e-09
2.12509e-09
2.90948e-09
3.92066e-09
5.18805e-09
6.75502e-09
8.64254e-09
1.08288e-08
1.32869e-08
1.59938e-08
1.89499e-08
2.21935e-08
2.57275e-08
2.94759e-08
3.39405e-08
1.46214e-10
1.46298e-10
1.46423e-10
1.4661e-10
1.46891e-10
1.47314e-10
1.47951e-10
1.48916e-10
1.50382e-10
1.52612e-10
1.56014e-10
1.61218e-10
1.69191e-10
1.81425e-10
2.00208e-10
2.29027e-10
2.73144e-10
3.4035e-10
4.41829e-10
5.93077e-10
8.14769e-10
1.13291e-09
1.57768e-09
2.18284e-09
2.98647e-09
4.02624e-09
5.33222e-09
6.93597e-09
8.88432e-09
1.11719e-08
1.3765e-08
1.66312e-08
1.9758e-08
2.31701e-08
2.68921e-08
3.08664e-08
3.51198e-08
3.97453e-08
4.47443e-08
5.00531e-08
5.62108e-08
1.46676e-10
1.46985e-10
1.47448e-10
1.48145e-10
1.49195e-10
1.50784e-10
1.53193e-10
1.56855e-10
1.62435e-10
1.70951e-10
1.8397e-10
2.0388e-10
2.34312e-10
2.80716e-10
3.51124e-10
4.5705e-10
6.14375e-10
8.44141e-10
1.17291e-09
1.63197e-09
2.25585e-09
3.08242e-09
4.1525e-09
5.50112e-09
7.15649e-09
9.15603e-09
1.15348e-08
1.42616e-08
1.72935e-08
2.06038e-08
2.42023e-08
2.81184e-08
3.23233e-08
3.67818e-08
4.15996e-08
4.68149e-08
5.23835e-08
5.82879e-08
6.45595e-08
7.12065e-08
7.8175e-08
8.61012e-08
1.48387e-10
1.49544e-10
1.51287e-10
1.5392e-10
1.57908e-10
1.63959e-10
1.73161e-10
1.8717e-10
2.08511e-10
2.40997e-10
2.90323e-10
3.64836e-10
4.76444e-10
6.41523e-10
8.8163e-10
1.22384e-09
1.70034e-09
2.34691e-09
3.20182e-09
4.30603e-09
5.70008e-09
7.41486e-09
9.4787e-09
1.19343e-08
1.4787e-08
1.79886e-08
2.14944e-08
2.52968e-08
2.94196e-08
3.38596e-08
3.85494e-08
4.35797e-08
4.90126e-08
5.48295e-08
6.09991e-08
6.75394e-08
7.44763e-08
8.17768e-08
8.94116e-08
9.73848e-08
1.05719e-07
1.14387e-07
1.24086e-07
1.59228e-10
1.6587e-10
1.75928e-10
1.91178e-10
2.14313e-10
2.49378e-10
3.02382e-10
3.82073e-10
5.00853e-10
6.75688e-10
9.28801e-10
1.28791e-09
1.7859e-09
2.45973e-09
3.34875e-09
4.49397e-09
5.93756e-09
7.71687e-09
9.85926e-09
1.23944e-08
1.53597e-08
1.87266e-08
2.24376e-08
2.64608e-08
3.08079e-08
3.549e-08
4.04516e-08
4.57063e-08
5.13613e-08
5.7428e-08
6.38687e-08
7.06848e-08
7.79095e-08
8.55262e-08
9.34982e-08
1.01822e-07
1.10517e-07
1.19585e-07
1.28985e-07
1.38679e-07
1.48651e-07
1.58874e-07
1.70088e-07
1.9621e-10
2.21584e-10
2.59864e-10
3.17446e-10
4.03582e-10
5.31288e-10
7.18247e-10
9.87476e-10
1.36751e-09
1.89201e-09
2.59879e-09
3.52847e-09
4.72283e-09
6.22408e-09
8.07314e-09
1.03027e-08
1.29376e-08
1.60065e-08
1.95275e-08
2.34453e-08
2.77051e-08
3.22959e-08
3.72309e-08
4.24788e-08
4.79934e-08
5.3888e-08
6.02094e-08
6.69225e-08
7.40246e-08
8.15388e-08
8.9468e-08
9.77768e-08
1.0645e-07
1.15505e-07
1.24953e-07
1.34768e-07
1.4491e-07
1.55355e-07
1.66082e-07
1.7705e-07
1.88204e-07
1.99501e-07
2.10904e-07
2.23149e-07
3.36304e-10
4.30415e-10
5.69128e-10
7.70988e-10
1.05995e-09
1.46551e-09
2.02227e-09
2.76891e-09
3.747e-09
4.99949e-09
6.56918e-09
8.49745e-09
1.08218e-08
1.35701e-08
1.67633e-08
2.0423e-08
2.45391e-08
2.90447e-08
3.38987e-08
3.91032e-08
4.46474e-08
5.04616e-08
5.66177e-08
6.32002e-08
7.0197e-08
7.75939e-08
8.54023e-08
9.3643e-08
1.02288e-07
1.11311e-07
1.20722e-07
1.30538e-07
1.40753e-07
1.51327e-07
1.62231e-07
1.73449e-07
1.84947e-07
1.96675e-07
2.08584e-07
2.20624e-07
2.3274e-07
2.44866e-07
2.56942e-07
2.68928e-07
2.81508e-07
8.36431e-10
1.14938e-09
1.58579e-09
2.18129e-09
2.97559e-09
4.01117e-09
5.33194e-09
6.98169e-09
9.00254e-09
1.14331e-08
1.43059e-08
1.76429e-08
2.14572e-08
2.57554e-08
3.05033e-08
3.5637e-08
4.11306e-08
4.69797e-08
5.31316e-08
5.95756e-08
6.64311e-08
7.37238e-08
8.142e-08
8.95368e-08
9.80907e-08
1.07072e-07
1.16447e-07
1.26216e-07
1.36396e-07
1.46995e-07
1.57983e-07
1.69328e-07
1.81014e-07
1.93016e-07
2.0529e-07
2.17787e-07
2.30459e-07
2.43252e-07
2.56106e-07
2.68953e-07
2.81726e-07
2.94353e-07
3.06759e-07
3.18874e-07
3.3066e-07
3.42716e-07
1.73381e-09
2.37562e-09
3.22638e-09
4.32957e-09
5.73006e-09
7.47254e-09
9.60011e-09
1.21526e-08
1.5164e-08
1.86599e-08
2.26537e-08
2.7145e-08
3.21214e-08
3.7538e-08
4.33416e-08
4.95112e-08
5.60138e-08
6.27851e-08
6.99419e-08
7.75358e-08
8.55446e-08
9.3981e-08
1.02854e-07
1.1217e-07
1.21903e-07
1.32031e-07
1.42576e-07
1.53548e-07
1.64937e-07
1.76708e-07
1.88841e-07
2.01321e-07
2.1411e-07
2.27162e-07
2.4043e-07
2.53867e-07
2.67412e-07
2.81003e-07
2.9457e-07
3.08043e-07
3.21347e-07
3.34403e-07
3.47133e-07
3.59455e-07
3.7129e-07
3.82562e-07
3.93236e-07
4.03815e-07
6.20745e-09
8.05668e-09
1.03061e-08
1.29967e-08
1.61642e-08
1.98361e-08
2.40279e-08
2.87402e-08
3.39565e-08
3.96463e-08
4.57677e-08
5.22775e-08
5.91419e-08
6.6295e-08
7.37717e-08
8.16776e-08
9.00192e-08
9.87814e-08
1.07982e-07
1.17635e-07
1.27723e-07
1.38218e-07
1.49128e-07
1.6047e-07
1.72246e-07
1.84429e-07
1.96994e-07
2.09928e-07
2.23205e-07
2.36781e-07
2.50611e-07
2.64651e-07
2.78848e-07
2.93139e-07
3.07459e-07
3.21738e-07
3.35903e-07
3.49876e-07
3.63575e-07
3.76918e-07
3.89822e-07
4.02201e-07
4.13973e-07
4.25055e-07
4.35367e-07
4.4484e-07
4.53443e-07
4.61564e-07
1.1143e-08
1.39895e-08
1.73314e-08
2.1198e-08
2.56069e-08
3.05604e-08
3.60433e-08
4.20243e-08
4.84624e-08
5.53213e-08
6.25606e-08
7.01184e-08
7.79562e-08
8.61992e-08
9.48835e-08
1.03983e-07
1.13531e-07
1.23526e-07
1.33968e-07
1.44835e-07
1.56111e-07
1.67821e-07
1.79973e-07
1.92554e-07
2.05535e-07
2.18903e-07
2.32642e-07
2.46713e-07
2.61073e-07
2.75681e-07
2.90488e-07
3.05437e-07
3.20463e-07
3.35502e-07
3.50481e-07
3.65324e-07
3.7995e-07
3.94278e-07
4.08221e-07
4.21693e-07
4.34607e-07
4.46876e-07
4.58414e-07
4.69138e-07
4.78971e-07
4.87835e-07
4.95651e-07
5.02359e-07
5.07967e-07
5.12686e-07
2.74287e-08
3.26438e-08
3.84132e-08
4.47075e-08
5.14856e-08
5.87044e-08
6.63254e-08
7.42979e-08
8.25463e-08
9.11514e-08
1.00189e-07
1.09654e-07
1.19555e-07
1.29903e-07
1.40703e-07
1.51944e-07
1.63595e-07
1.75673e-07
1.88196e-07
2.01159e-07
2.14541e-07
2.28325e-07
2.42499e-07
2.57035e-07
2.71893e-07
2.87032e-07
3.0241e-07
3.17973e-07
3.33661e-07
3.4941e-07
3.65153e-07
3.80816e-07
3.96319e-07
4.11582e-07
4.26519e-07
4.41044e-07
4.55066e-07
4.68497e-07
4.81248e-07
4.93228e-07
5.04354e-07
5.14543e-07
5.23715e-07
5.31788e-07
5.38695e-07
5.44415e-07
5.4886e-07
5.51867e-07
5.53623e-07
5.544e-07
5.48835e-08
6.24846e-08
7.05078e-08
7.89027e-08
8.75964e-08
9.65908e-08
1.06001e-07
1.15845e-07
1.26107e-07
1.36828e-07
1.47994e-07
1.59605e-07
1.71644e-07
1.84096e-07
1.96989e-07
2.10326e-07
2.24097e-07
2.38281e-07
2.52868e-07
2.67839e-07
2.8316e-07
2.98793e-07
3.147e-07
3.30832e-07
3.47134e-07
3.63545e-07
3.8e-07
3.96429e-07
4.12755e-07
4.28899e-07
4.44777e-07
4.60302e-07
4.75386e-07
4.89937e-07
5.03864e-07
5.17076e-07
5.29481e-07
5.40991e-07
5.51522e-07
5.60991e-07
5.69313e-07
5.7642e-07
5.82287e-07
5.86816e-07
5.89835e-07
5.9153e-07
5.91966e-07
5.90772e-07
5.88139e-07
5.84115e-07
9.31591e-08
1.02583e-07
1.12395e-07
1.22628e-07
1.33273e-07
1.44374e-07
1.55914e-07
1.67898e-07
1.80325e-07
1.9316e-07
2.06424e-07
2.20134e-07
2.34283e-07
2.48856e-07
2.6384e-07
2.79222e-07
2.94978e-07
3.1107e-07
3.27465e-07
3.4412e-07
3.60985e-07
3.78004e-07
3.95115e-07
4.12252e-07
4.29342e-07
4.46308e-07
4.63068e-07
4.79536e-07
4.95625e-07
5.11243e-07
5.26299e-07
5.40698e-07
5.54348e-07
5.67156e-07
5.79031e-07
5.89888e-07
5.99639e-07
6.08198e-07
6.15497e-07
6.21504e-07
6.26116e-07
6.29161e-07
6.30847e-07
6.31193e-07
6.29845e-07
6.26974e-07
6.22553e-07
6.16544e-07
6.09084e-07
6.0012e-07
1.41138e-07
1.5262e-07
1.64549e-07
1.76912e-07
1.8972e-07
2.0295e-07
2.16589e-07
2.30666e-07
2.45184e-07
2.60134e-07
2.75501e-07
2.91276e-07
3.0744e-07
3.23963e-07
3.40812e-07
3.57949e-07
3.75331e-07
3.92905e-07
4.10614e-07
4.28398e-07
4.46187e-07
4.63908e-07
4.81483e-07
4.98828e-07
5.15858e-07
5.32481e-07
5.48607e-07
5.6414e-07
5.78986e-07
5.9305e-07
6.06238e-07
6.18456e-07
6.29618e-07
6.39635e-07
6.48418e-07
6.55897e-07
6.62038e-07
6.6673e-07
6.69803e-07
6.71479e-07
6.71745e-07
6.70257e-07
6.67193e-07
6.62508e-07
6.56183e-07
6.48334e-07
6.38912e-07
6.27902e-07
6.15543e-07
6.02196e-07
1.99927e-07
2.13555e-07
2.27577e-07
2.42021e-07
2.56903e-07
2.72217e-07
2.87953e-07
3.04101e-07
3.20649e-07
3.37573e-07
3.54843e-07
3.72425e-07
3.90281e-07
4.08363e-07
4.26618e-07
4.4499e-07
4.63415e-07
4.81824e-07
5.00142e-07
5.18291e-07
5.36187e-07
5.53743e-07
5.70867e-07
5.87467e-07
6.03447e-07
6.18711e-07
6.33162e-07
6.46704e-07
6.59244e-07
6.70691e-07
6.80955e-07
6.89947e-07
6.97595e-07
7.03859e-07
7.08628e-07
7.11731e-07
7.134e-07
7.13592e-07
7.11976e-07
7.08732e-07
7.03803e-07
6.97178e-07
6.88967e-07
6.79091e-07
6.67568e-07
6.54661e-07
6.40843e-07
6.26092e-07
6.10181e-07
5.92997e-07
2.69545e-07
2.85216e-07
3.01308e-07
3.17813e-07
3.34721e-07
3.52017e-07
3.69675e-07
3.87665e-07
4.05951e-07
4.24494e-07
4.43245e-07
4.6215e-07
4.81151e-07
5.00183e-07
5.19176e-07
5.38056e-07
5.56742e-07
5.75151e-07
5.93194e-07
6.10782e-07
6.27819e-07
6.4421e-07
6.59858e-07
6.74665e-07
6.88533e-07
7.01368e-07
7.13078e-07
7.2357e-07
7.32755e-07
7.40559e-07
7.4694e-07
7.51781e-07
7.54914e-07
7.56577e-07
7.56705e-07
7.54974e-07
7.51566e-07
7.46415e-07
7.39514e-07
7.30963e-07
7.20659e-07
7.08637e-07
6.95191e-07
6.80829e-07
6.6548e-07
6.48939e-07
6.31199e-07
6.12368e-07
5.92559e-07
5.71639e-07
3.49781e-07
3.67424e-07
3.85439e-07
4.038e-07
4.22477e-07
4.41433e-07
4.60626e-07
4.80008e-07
4.99524e-07
5.19115e-07
5.38715e-07
5.58253e-07
5.77655e-07
5.96838e-07
6.1572e-07
6.34212e-07
6.52222e-07
6.69657e-07
6.8642e-07
7.02415e-07
7.17542e-07
7.31704e-07
7.44805e-07
7.56752e-07
7.67452e-07
7.76813e-07
7.8476e-07
7.91246e-07
7.96155e-07
7.99319e-07
8.00977e-07
8.01049e-07
7.99217e-07
7.95663e-07
7.90314e-07
7.83162e-07
7.74301e-07
7.63605e-07
7.51115e-07
7.37162e-07
7.22273e-07
7.06343e-07
6.89164e-07
6.70719e-07
6.51153e-07
6.30576e-07
6.09013e-07
5.86578e-07
5.63396e-07
5.39418e-07
4.39997e-07
4.59324e-07
4.7891e-07
4.98713e-07
5.18684e-07
5.38767e-07
5.58903e-07
5.79026e-07
5.99064e-07
6.18943e-07
6.3858e-07
6.57892e-07
6.7679e-07
6.95182e-07
7.12973e-07
7.30069e-07
7.4637e-07
7.61781e-07
7.76201e-07
7.89536e-07
8.01691e-07
8.12573e-07
8.22089e-07
8.30163e-07
8.36745e-07
8.41715e-07
8.44911e-07
8.46565e-07
8.4659e-07
8.44669e-07
8.40988e-07
8.35464e-07
8.2809e-07
8.18951e-07
8.07901e-07
7.94981e-07
7.80558e-07
7.6517e-07
7.48698e-07
7.30916e-07
7.11801e-07
6.91509e-07
6.70145e-07
6.47736e-07
6.24419e-07
6.00338e-07
5.7562e-07
5.50379e-07
5.24738e-07
4.9865e-07
5.38785e-07
5.59299e-07
5.79902e-07
6.00535e-07
6.21132e-07
6.41621e-07
6.61927e-07
6.81969e-07
7.01663e-07
7.2092e-07
7.39649e-07
7.57754e-07
7.7514e-07
7.9171e-07
8.07365e-07
8.22008e-07
8.35542e-07
8.47874e-07
8.5891e-07
8.68558e-07
8.7674e-07
8.83402e-07
8.88427e-07
8.91652e-07
8.93303e-07
8.93288e-07
8.91293e-07
8.87502e-07
8.81828e-07
8.74259e-07
8.64875e-07
8.53513e-07
8.40205e-07
8.25351e-07
8.09498e-07
7.92527e-07
7.74186e-07
7.54449e-07
7.33475e-07
7.11366e-07
6.88147e-07
6.63956e-07
6.38946e-07
6.13243e-07
5.86987e-07
5.60323e-07
5.3339e-07
5.06301e-07
4.79179e-07
4.51972e-07
6.44027e-07
6.65045e-07
6.85933e-07
7.06614e-07
7.27009e-07
7.47033e-07
7.66599e-07
7.85614e-07
8.03986e-07
8.21619e-07
8.38414e-07
8.54274e-07
8.69102e-07
8.82802e-07
8.95279e-07
9.06441e-07
9.16195e-07
9.24463e-07
9.3119e-07
9.36257e-07
9.39505e-07
9.41153e-07
9.41104e-07
9.39046e-07
9.35163e-07
9.29363e-07
9.21628e-07
9.12034e-07
9.00401e-07
8.86751e-07
8.71507e-07
8.55223e-07
8.37801e-07
8.18949e-07
7.98642e-07
7.77037e-07
7.54238e-07
7.30261e-07
7.05246e-07
6.79348e-07
6.52694e-07
6.25426e-07
5.97696e-07
5.6965e-07
5.41427e-07
5.13166e-07
4.85009e-07
4.57045e-07
4.29404e-07
4.02022e-07
7.53007e-07
7.73699e-07
7.94e-07
8.1382e-07
8.33071e-07
8.51659e-07
8.69489e-07
8.86465e-07
9.02488e-07
9.17462e-07
9.3129e-07
9.4388e-07
9.55139e-07
9.64973e-07
9.73306e-07
9.80078e-07
9.85175e-07
9.88439e-07
9.90079e-07
9.89998e-07
9.87888e-07
9.83927e-07
9.78023e-07
9.70151e-07
9.60381e-07
9.48524e-07
9.34576e-07
9.18984e-07
9.02308e-07
8.84478e-07
8.65166e-07
8.44347e-07
8.22169e-07
7.98738e-07
7.74063e-07
7.48283e-07
7.21554e-07
6.94001e-07
6.65769e-07
6.37012e-07
6.07878e-07
5.78511e-07
5.49058e-07
5.19664e-07
4.90462e-07
4.61579e-07
4.33143e-07
4.05231e-07
3.77958e-07
3.51248e-07
8.62579e-07
8.82011e-07
9.00762e-07
9.18739e-07
9.35846e-07
9.51987e-07
9.67064e-07
9.80984e-07
9.93652e-07
1.00498e-06
1.01486e-06
1.02324e-06
1.03004e-06
1.03515e-06
1.03842e-06
1.04005e-06
1.03993e-06
1.03778e-06
1.03375e-06
1.02776e-06
1.01978e-06
1.00987e-06
9.97833e-07
9.83632e-07
9.67737e-07
9.50703e-07
9.32514e-07
9.12795e-07
8.91521e-07
8.68831e-07
8.44832e-07
8.19523e-07
7.93042e-07
7.65546e-07
7.37157e-07
7.08019e-07
6.7829e-07
6.48117e-07
6.17647e-07
5.87031e-07
5.56418e-07
5.25945e-07
4.95753e-07
4.65971e-07
4.36723e-07
4.08117e-07
3.80261e-07
3.53213e-07
3.27064e-07
3.01744e-07
9.69354e-07
9.86543e-07
1.00275e-06
1.01789e-06
1.03186e-06
1.04457e-06
1.05592e-06
1.06584e-06
1.07423e-06
1.08104e-06
1.08615e-06
1.08941e-06
1.09102e-06
1.09088e-06
1.08868e-06
1.0846e-06
1.07854e-06
1.07047e-06
1.06044e-06
1.04827e-06
1.03387e-06
1.01771e-06
1.00036e-06
9.81856e-07
9.61784e-07
9.40118e-07
9.16976e-07
8.92475e-07
8.666e-07
8.39487e-07
8.11292e-07
7.82135e-07
7.52159e-07
7.21521e-07
6.90368e-07
6.5885e-07
6.2712e-07
5.95329e-07
5.63619e-07
5.32134e-07
5.01011e-07
4.70379e-07
4.40359e-07
4.11064e-07
3.82597e-07
3.55043e-07
3.28486e-07
3.02962e-07
2.78531e-07
2.55136e-07
1.06992e-06
1.08389e-06
1.0966e-06
1.10796e-06
1.11787e-06
1.12625e-06
1.13304e-06
1.13814e-06
1.14138e-06
1.14297e-06
1.14278e-06
1.14054e-06
1.13642e-06
1.1303e-06
1.12216e-06
1.11205e-06
1.09979e-06
1.08523e-06
1.06886e-06
1.05121e-06
1.03245e-06
1.01208e-06
9.90082e-07
9.6655e-07
9.41612e-07
9.15244e-07
8.87571e-07
8.58751e-07
8.28897e-07
7.98155e-07
7.66678e-07
7.34614e-07
7.02113e-07
6.69328e-07
6.36413e-07
6.03511e-07
5.70773e-07
5.38338e-07
5.06341e-07
4.7491e-07
4.44166e-07
4.14218e-07
3.85165e-07
3.57098e-07
3.30092e-07
3.04209e-07
2.79501e-07
2.55986e-07
2.33691e-07
2.12566e-07
1.14974e-06
1.16105e-06
1.17092e-06
1.17927e-06
1.18602e-06
1.19108e-06
1.19429e-06
1.19584e-06
1.19562e-06
1.19334e-06
1.18917e-06
1.18301e-06
1.17482e-06
1.16464e-06
1.15232e-06
1.13765e-06
1.12112e-06
1.10322e-06
1.08422e-06
1.06361e-06
1.04135e-06
1.01749e-06
9.92183e-07
9.65395e-07
9.37237e-07
9.07867e-07
8.77395e-07
8.45963e-07
8.13724e-07
7.80823e-07
7.47409e-07
7.13636e-07
6.7966e-07
6.45625e-07
6.11685e-07
5.77982e-07
5.44656e-07
5.11841e-07
4.79662e-07
4.48237e-07
4.17672e-07
3.88065e-07
3.59503e-07
3.32059e-07
3.05795e-07
2.8076e-07
2.5699e-07
2.34508e-07
2.13308e-07
1.93391e-07
1.7471e-07
1.23325e-06
1.23994e-06
1.24494e-06
1.24811e-06
1.24962e-06
1.24934e-06
1.24702e-06
1.24282e-06
1.23662e-06
1.22839e-06
1.21816e-06
1.20581e-06
1.19109e-06
1.17443e-06
1.15632e-06
1.13712e-06
1.11631e-06
1.09385e-06
1.06973e-06
1.04412e-06
1.01698e-06
9.88418e-07
9.58576e-07
9.27567e-07
8.95527e-07
8.62605e-07
8.28947e-07
7.94699e-07
7.60014e-07
7.25049e-07
6.89949e-07
6.54868e-07
6.19952e-07
5.85345e-07
5.51184e-07
5.17601e-07
4.84718e-07
4.52651e-07
4.21503e-07
3.9137e-07
3.62334e-07
3.34467e-07
3.07826e-07
2.8246e-07
2.58403e-07
2.35677e-07
2.14289e-07
1.94239e-07
1.75501e-07
1.5805e-07
1.41839e-07
1.29968e-06
1.30279e-06
1.30424e-06
1.30391e-06
1.30155e-06
1.2973e-06
1.29108e-06
1.28283e-06
1.27256e-06
1.2602e-06
1.24547e-06
1.22873e-06
1.21045e-06
1.19108e-06
1.17012e-06
1.1475e-06
1.12319e-06
1.09734e-06
1.06994e-06
1.04104e-06
1.01081e-06
9.79344e-07
9.4678e-07
9.13262e-07
8.78931e-07
8.43934e-07
8.08419e-07
7.72543e-07
7.36453e-07
7.00301e-07
6.64238e-07
6.28407e-07
5.92952e-07
5.58006e-07
5.23701e-07
4.90155e-07
4.5748e-07
4.2578e-07
3.95143e-07
3.65652e-07
3.37373e-07
3.10363e-07
2.84666e-07
2.60314e-07
2.37327e-07
2.15713e-07
1.95468e-07
1.76579e-07
1.59021e-07
1.4275e-07
1.27725e-07
1.13893e-07
1.35927e-06
1.35686e-06
1.35258e-06
1.34633e-06
1.33806e-06
1.32778e-06
1.31542e-06
1.30073e-06
1.28395e-06
1.26555e-06
1.24603e-06
1.22498e-06
1.20225e-06
1.1778e-06
1.15179e-06
1.12419e-06
1.09503e-06
1.06449e-06
1.03265e-06
9.99649e-07
9.65621e-07
9.30707e-07
8.95047e-07
8.5879e-07
8.2209e-07
7.85091e-07
7.47948e-07
7.1081e-07
6.73825e-07
6.37137e-07
6.00884e-07
5.65202e-07
5.30215e-07
4.96041e-07
4.6279e-07
4.30561e-07
3.99441e-07
3.69507e-07
3.40826e-07
3.1345e-07
2.87421e-07
2.62768e-07
2.39509e-07
2.1765e-07
1.97186e-07
1.78103e-07
1.60375e-07
1.43969e-07
1.28841e-07
1.14937e-07
1.022e-07
9.05747e-08
1.40234e-06
1.39405e-06
1.38376e-06
1.37143e-06
1.35681e-06
1.34002e-06
1.32155e-06
1.3019e-06
1.28079e-06
1.25801e-06
1.23349e-06
1.20738e-06
1.17964e-06
1.15031e-06
1.11953e-06
1.0874e-06
1.05405e-06
1.0196e-06
9.84192e-07
9.47962e-07
9.11054e-07
8.7362e-07
8.35803e-07
7.97754e-07
7.59626e-07
7.21564e-07
6.83715e-07
6.46222e-07
6.09221e-07
5.72843e-07
5.37211e-07
5.02441e-07
4.68639e-07
4.35901e-07
4.04313e-07
3.73948e-07
3.44869e-07
3.17127e-07
2.90761e-07
2.65799e-07
2.42256e-07
2.20136e-07
1.99433e-07
1.80131e-07
1.62204e-07
1.45617e-07
1.30328e-07
1.16289e-07
1.03443e-07
9.17273e-08
8.10769e-08
7.14337e-08
1.42816e-06
1.41365e-06
1.39689e-06
1.37838e-06
1.35861e-06
1.3375e-06
1.3147e-06
1.29018e-06
1.26401e-06
1.23621e-06
1.20677e-06
1.17584e-06
1.14351e-06
1.10988e-06
1.0751e-06
1.03929e-06
1.00259e-06
9.65124e-07
9.27051e-07
8.8851e-07
8.4965e-07
8.10622e-07
7.71571e-07
7.32644e-07
6.93987e-07
6.55737e-07
6.18031e-07
5.80996e-07
5.44752e-07
5.09413e-07
4.75082e-07
4.41852e-07
4.09806e-07
3.79016e-07
3.49541e-07
3.21431e-07
2.94722e-07
2.69439e-07
2.45598e-07
2.23199e-07
2.02236e-07
1.82692e-07
1.64538e-07
1.47741e-07
1.32258e-07
1.1804e-07
1.05031e-07
9.31739e-08
8.24038e-08
7.26517e-08
6.38502e-08
5.59401e-08
1.43598e-06
1.41611e-06
1.39502e-06
1.37226e-06
1.34777e-06
1.32161e-06
1.2938e-06
1.26433e-06
1.23331e-06
1.20085e-06
1.16705e-06
1.13203e-06
1.09591e-06
1.05882e-06
1.0209e-06
9.82286e-07
9.43122e-07
9.0355e-07
8.63719e-07
8.23774e-07
7.83862e-07
7.44128e-07
7.04712e-07
6.65752e-07
6.2738e-07
5.89722e-07
5.52895e-07
5.17011e-07
4.82168e-07
4.48459e-07
4.15963e-07
3.84751e-07
3.54879e-07
3.26394e-07
2.99332e-07
2.73717e-07
2.4956e-07
2.26864e-07
2.05619e-07
1.85807e-07
1.67402e-07
1.50367e-07
1.34659e-07
1.2023e-07
1.07024e-07
9.49834e-08
8.40443e-08
7.41418e-08
6.52089e-08
5.71751e-08
4.99728e-08
4.35437e-08
1.43059e-06
1.4062e-06
1.38008e-06
1.35233e-06
1.32289e-06
1.29186e-06
1.25935e-06
1.22544e-06
1.19026e-06
1.15393e-06
1.11655e-06
1.07827e-06
1.03922e-06
9.99535e-07
9.59354e-07
9.18823e-07
8.78087e-07
8.37289e-07
7.96573e-07
7.56083e-07
7.15956e-07
6.76328e-07
6.37327e-07
5.99077e-07
5.61693e-07
5.25283e-07
4.89944e-07
4.55765e-07
4.22824e-07
3.91189e-07
3.60916e-07
3.32049e-07
3.04623e-07
2.78659e-07
2.54169e-07
2.31153e-07
2.09604e-07
1.895e-07
1.70816e-07
1.53514e-07
1.37553e-07
1.22882e-07
1.09448e-07
9.71908e-08
8.60489e-08
7.5957e-08
6.68487e-08
5.86567e-08
5.13137e-08
4.4751e-08
3.89034e-08
3.37159e-08
1.41169e-06
1.38234e-06
1.35137e-06
1.31888e-06
1.28496e-06
1.24971e-06
1.21324e-06
1.17567e-06
1.13713e-06
1.09774e-06
1.05764e-06
1.01695e-06
9.75828e-07
9.34406e-07
8.92827e-07
8.51236e-07
8.09772e-07
7.68575e-07
7.27781e-07
6.87523e-07
6.47927e-07
6.09112e-07
5.71193e-07
5.34274e-07
4.98451e-07
4.63809e-07
4.30426e-07
3.98367e-07
3.67685e-07
3.38426e-07
3.10621e-07
2.84292e-07
2.59449e-07
2.36093e-07
2.14213e-07
1.93792e-07
1.748e-07
1.57203e-07
1.40958e-07
1.26015e-07
1.12321e-07
9.98174e-08
8.84412e-08
7.81283e-08
6.88125e-08
6.04268e-08
5.29043e-08
4.61787e-08
4.01851e-08
3.48592e-08
3.014e-08
2.59776e-08
1.34548e-06
1.31023e-06
1.27372e-06
1.23606e-06
1.19735e-06
1.15772e-06
1.1173e-06
1.07622e-06
1.03461e-06
9.92618e-07
9.50369e-07
9.0801e-07
8.65681e-07
8.23519e-07
7.81661e-07
7.40242e-07
6.99389e-07
6.59228e-07
6.19874e-07
5.8144e-07
5.44027e-07
5.07728e-07
4.72629e-07
4.38803e-07
4.06315e-07
3.75218e-07
3.45554e-07
3.17355e-07
2.90643e-07
2.65426e-07
2.41705e-07
2.19471e-07
1.98704e-07
1.79377e-07
1.61455e-07
1.44896e-07
1.29651e-07
1.15666e-07
1.02883e-07
9.12418e-08
8.06768e-08
7.11229e-08
6.25133e-08
5.47814e-08
4.7861e-08
4.16875e-08
3.61978e-08
3.13317e-08
2.70306e-08
2.32397e-08
1.99142e-08
1.29758e-06
1.2588e-06
1.21904e-06
1.17841e-06
1.13704e-06
1.09506e-06
1.0526e-06
1.00979e-06
9.6678e-07
9.23698e-07
8.80683e-07
8.37872e-07
7.95397e-07
7.53389e-07
7.11975e-07
6.71276e-07
6.31405e-07
5.92473e-07
5.54578e-07
5.17812e-07
4.82258e-07
4.47989e-07
4.15067e-07
3.83544e-07
3.53463e-07
3.24854e-07
2.97738e-07
2.72125e-07
2.48016e-07
2.25401e-07
2.04261e-07
1.8457e-07
1.66293e-07
1.49389e-07
1.3381e-07
1.19502e-07