/*--------------------------------*- C++ -*----------------------------------*\
| =========                 |                                                 |
| \\      /  F ield         | OpenFOAM: The Open Source CFD Toolbox           |
|  \\    /   O peration     | Version:  v1706                                 |
|   \\  /    A nd           | Web:      www.OpenFOAM.com                      |
|    \\/     M anipulation  |                                                 |
\*---------------------------------------------------------------------------*/
FoamFile
{
    version     2.0;
    format      ascii;
    class       volScalarField;
    location    "3e-06";
    object      Mach;
}
// * * * * * * * * * * * * * * * * * * * * * * * * * * * * * * * * * * * * * //

dimensions      [0 0 0 0 0 0 0];


internalField   nonuniform List<scalar> 
30038
(
11.2859
11.2859
11.2859
11.2859
11.2859
11.2859
11.2859
11.2859
11.2859
11.2859
11.2859
11.2859
11.2859
11.2859
11.2859
11.2859
11.2859
11.2859
11.2859
11.2859
11.2859
11.2859
11.2859
11.2859
11.2859
11.2859
11.2859
11.2859
11.2859
11.2859
11.2859
11.2859
11.2859
11.2859
11.2859
11.2859
11.2859
11.2859
11.2859
11.2859
11.2859
11.2859
11.2859
11.2859
11.2859
11.2859
11.2859
11.2859
11.2859
11.2859
11.2859
11.2859
11.2859
11.2859
11.2859
11.2859
11.2859
11.2859
11.2859
11.2859
11.2859
11.2859
11.2859
11.2859
11.2859
11.2859
11.2859
11.2859
11.2859
11.2859
11.2859
11.2859
11.2859
11.2859
11.2859
11.2859
11.2859
11.2859
11.2859
11.2859
11.2859
11.2859
11.2859
11.2859
11.2859
11.2859
11.2859
11.2859
11.2859
11.2859
11.2859
11.2859
11.2859
11.2859
11.2859
11.2859
11.2859
11.2859
11.2859
11.2859
11.2859
11.2859
11.2859
11.2859
11.2859
11.2859
11.2859
11.2859
11.2859
11.2859
11.2859
11.2859
11.2859
11.2859
11.2859
11.2859
11.2859
11.2859
11.2859
11.2859
11.2859
11.2859
11.2859
11.2859
11.2859
11.2859
11.2859
11.2859
11.2859
11.2859
11.2859
11.2859
11.2859
11.2859
11.2859
11.2859
11.2859
11.2859
11.2859
11.2859
11.2859
11.2859
11.2859
11.2859
11.2859
11.2859
11.2859
11.2859
11.2859
11.2859
11.2859
11.2859
11.2859
11.2859
11.2859
11.2859
11.2859
11.2859
11.2859
11.2859
11.2859
11.2859
11.2859
11.2859
11.2859
11.2859
11.2859
11.2859
11.2859
11.2859
11.2859
11.2859
11.2859
11.2859
11.2859
11.2859
11.2859
11.2859
11.2859
11.2859
11.2859
11.2859
11.2859
11.2859
11.2859
11.2859
11.2859
11.2859
11.2859
11.2859
11.2859
11.2859
11.2859
11.2859
11.2859
11.2859
11.2859
11.2859
11.2859
11.2859
11.2859
11.2859
11.2859
11.2859
11.2859
11.2859
11.2859
11.2859
11.2859
11.2859
11.2859
11.2859
11.2859
11.2859
11.2859
11.2859
11.2859
11.2859
11.2859
11.2859
11.2859
11.2859
11.2859
11.2859
11.2859
11.2859
11.2859
11.2859
11.2859
11.2859
11.2859
11.2859
11.2859
11.2859
11.2859
11.2859
11.2859
11.2859
11.2859
11.2859
11.2859
11.2859
11.2859
11.2859
11.2859
11.2859
11.2859
11.2859
11.2859
11.2859
11.2859
11.2859
11.2859
11.2859
11.2859
11.2859
11.2859
11.2859
11.2859
11.2859
11.2859
11.2859
11.2858
11.2858
11.2858
11.2858
11.2859
11.2859
11.2859
11.2859
11.2859
11.2859
11.2859
11.2859
11.2859
11.2859
11.2859
11.2859
11.2859
11.2859
11.2859
11.2859
11.2859
11.2859
11.2859
11.2859
11.2859
11.2859
11.2859
11.2859
11.2859
11.2859
11.2859
11.2859
11.2859
11.2859
11.2858
11.2858
11.2858
11.2858
11.2858
11.2858
11.2857
11.2857
11.2859
11.2859
11.2859
11.2859
11.2859
11.2859
11.2859
11.2859
11.2859
11.2859
11.2859
11.2859
11.2859
11.2859
11.2859
11.2859
11.2859
11.2859
11.2859
11.2859
11.2859
11.2859
11.2859
11.2859
11.2859
11.2859
11.2859
11.2858
11.2858
11.2858
11.2858
11.2858
11.2858
11.2857
11.2857
11.2856
11.2855
11.2853
11.2849
11.2859
11.2859
11.2859
11.2859
11.2859
11.2859
11.2859
11.2859
11.2859
11.2859
11.2859
11.2859
11.2859
11.2859
11.2859
11.2859
11.2859
11.2859
11.2859
11.2859
11.2859
11.2859
11.2859
11.2858
11.2858
11.2858
11.2858
11.2858
11.2858
11.2857
11.2857
11.2856
11.2855
11.2853
11.285
11.2845
11.2839
11.2829
11.2811
11.2859
11.2859
11.2859
11.2859
11.2859
11.2859
11.2859
11.2859
11.2859
11.2859
11.2859
11.2859
11.2859
11.2859
11.2859
11.2859
11.2859
11.2859
11.2859
11.2858
11.2858
11.2858
11.2858
11.2858
11.2858
11.2857
11.2857
11.2856
11.2855
11.2853
11.285
11.2845
11.2839
11.2829
11.2814
11.2792
11.2759
11.2708
11.2619
11.2859
11.2859
11.2859
11.2859
11.2859
11.2859
11.2859
11.2859
11.2859
11.2859
11.2859
11.2859
11.2859
11.2859
11.2859
11.2858
11.2858
11.2858
11.2858
11.2858
11.2858
11.2858
11.2857
11.2857
11.2856
11.2854
11.2852
11.2849
11.2845
11.2838
11.2828
11.2813
11.2791
11.2758
11.2709
11.2635
11.2525
11.236
11.2109
11.1686
11.2859
11.2859
11.2859
11.2859
11.2859
11.2859
11.2859
11.2859
11.2859
11.2859
11.2859
11.2858
11.2858
11.2858
11.2858
11.2858
11.2858
11.2858
11.2857
11.2857
11.2856
11.2854
11.2852
11.2849
11.2844
11.2838
11.2827
11.2812
11.279
11.2757
11.2708
11.2634
11.2525
11.2362
11.2121
11.1764
11.1239
11.0472
10.9344
10.7577
11.2859
11.2859
11.2859
11.2859
11.2859
11.2859
11.2859
11.2858
11.2858
11.2858
11.2858
11.2858
11.2858
11.2858
11.2857
11.2856
11.2855
11.2854
11.2852
11.2849
11.2844
11.2837
11.2826
11.2811
11.2789
11.2755
11.2705
11.2632
11.2523
11.2361
11.2122
11.177
11.1255
11.0504
10.9425
10.7898
10.5783
10.2947
9.92293
9.43786
11.2859
11.2859
11.2859
11.2858
11.2858
11.2858
11.2858
11.2858
11.2858
11.2857
11.2857
11.2856
11.2855
11.2854
11.2851
11.2848
11.2843
11.2836
11.2825
11.2809
11.2786
11.2752
11.2702
11.2628
11.2518
11.2356
11.2119
11.177
11.126
11.0521
10.9462
10.7967
10.5903
10.3137
9.95705
9.51841
9.0052
8.43787
7.83395
7.21109
11.2858
11.2858
11.2858
11.2858
11.2858
11.2857
11.2857
11.2856
11.2855
11.2853
11.2851
11.2847
11.2842
11.2834
11.2823
11.2807
11.2783
11.2748
11.2697
11.2621
11.2511
11.2348
11.2109
11.1761
11.1254
11.0522
10.9477
10.8007
10.5982
10.3274
9.97813
9.548
9.0445
8.48516
7.89589
7.3053
6.73497
6.20396
5.71763
5.27805
11.2858
11.2857
11.2857
11.2856
11.2855
11.2853
11.285
11.2846
11.2841
11.2833
11.2821
11.2804
11.278
11.2743
11.269
11.2613
11.25
11.2335
11.2094
11.1743
11.1236
11.0507
10.9469
10.8015
10.6019
10.3356
9.99263
9.57004
9.07477
8.52352
7.94017
7.35235
6.78413
6.25148
5.7664
5.33757
4.9622
4.62967
4.34731
4.11733
11.2854
11.2852
11.2849
11.2845
11.2839
11.2831
11.2819
11.2801
11.2775
11.2737
11.2682
11.2602
11.2486
11.2317
11.2071
11.1716
11.1205
11.0473
10.9436
10.7989
10.6011
10.3379
9.99996
9.58382
9.09583
8.55213
7.97541
7.39152
6.82499
6.29307
5.80543
5.36998
4.98921
4.65534
4.36283
4.12536
3.94774
3.82593
3.74472
3.68568
11.2844
11.2838
11.2829
11.2815
11.2796
11.2769
11.2729
11.2672
11.2588
11.2468
11.2293
11.2041
11.1679
11.1159
11.0418
10.9375
10.7926
10.5953
10.334
9.99953
9.5886
9.10698
8.57014
8.00014
7.42138
6.85745
6.32667
5.83905
5.39974
5.01297
4.67629
4.37984
4.12799
3.93155
3.79152
3.69786
3.63591
3.59714
3.57171
3.54385
3.51801
11.2791
11.2762
11.272
11.2659
11.2571
11.2445
11.2264
11.2003
11.1629
11.1096
11.0341
10.9283
10.7822
10.5843
10.3233
9.99078
9.5836
9.10733
8.57673
8.01325
7.44045
6.88051
6.35169
5.86506
5.42489
5.0338
4.69244
4.39515
4.13519
3.923
3.76488
3.65666
3.58547
3.54032
3.51279
3.48743
3.46139
3.44335
3.42807
3.41615
3.40773
11.2643
11.255
11.2417
11.2226
11.1954
11.1565
11.1014
11.0239
10.9158
10.7673
10.5675
10.3054
9.97317
9.56818
9.09605
8.57102
8.01383
7.44735
6.89272
6.36723
5.8825
5.44334
5.05062
4.70521
4.40484
4.14307
3.91984
3.74569
3.62154
3.53933
3.48693
3.45518
3.43161
3.40554
3.38489
3.3698
3.35737
3.34969
3.34521
3.33781
3.32741
3.31404
11.218
11.1892
11.1485
11.0911
11.0108
10.8995
10.7476
10.5445
10.2798
9.94617
9.54177
9.07246
8.55225
8.00111
7.44117
6.89278
6.37216
5.89056
5.45344
5.06151
4.71411
4.41056
4.14712
3.91915
3.73241
3.5931
3.49783
3.43694
3.39992
3.3759
3.35177
3.32849
3.31272
3.29985
3.29147
3.28689
3.28178
3.27325
3.26305
3.25225
3.2408
3.22733
3.20996
10.9943
10.8789
10.7224
10.5145
10.2457
9.90918
9.50385
9.03609
8.51986
7.97453
7.42135
6.87982
6.36537
5.88841
5.45449
5.06472
4.71775
4.41228
4.14654
3.9171
3.72271
3.57049
3.46184
3.39073
3.34731
3.3209
3.29857
3.2746
3.25686
3.24351
3.23441
3.22949
3.22577
3.21923
3.21043
3.20103
3.19101
3.17965
3.16611
3.1509
3.13417
3.1158
3.09393
10.4766
10.2021
9.86118
9.45361
8.98634
8.47341
7.93371
7.38757
6.85354
6.3462
5.87529
5.44592
5.05942
4.71453
4.40919
4.14187
3.91064
3.7135
3.55201
3.4312
3.34883
3.29768
3.26734
3.24574
3.22298
3.20273
3.18899
3.1787
3.17326
3.16995
3.16542
3.15815
3.15
3.14121
3.13157
3.12009
3.10681
3.09216
3.07602
3.05813
3.03859
3.01734
2.99459
2.96863
9.38971
8.92212
8.41212
7.8781
7.33948
6.81373
6.31449
5.85081
5.42736
5.04532
4.70361
4.40009
4.13272
3.90015
3.70114
3.53517
3.40475
3.3116
3.25135
3.21578
3.19327
3.17236
3.15098
3.13586
3.12452
3.11844
3.115
3.11183
3.10632
3.09921
3.09169
3.08335
3.07373
3.06236
3.04954
3.0354
3.01967
3.00229
2.98336
2.96291
2.94094
2.91752
2.89254
2.86625
2.83705
7.8067
7.27635
6.75991
6.26996
5.81476
5.39851
5.02223
4.68483
4.38425
4.11836
3.88558
3.68515
3.51675
3.3806
3.27835
3.20893
3.16661
3.14161
3.12196
3.10118
3.08395
3.07216
3.06453
3.06112
3.05855
3.05476
3.04878
3.04235
3.03522
3.02715
3.01755
3.00649
2.99417
2.98044
2.96514
2.94832
2.93003
2.91027
2.88905
2.86641
2.8424
2.81706
2.79049
2.76259
2.73366
2.70214
6.6912
6.21193
5.76666
5.35904
4.98986
4.65802
4.36151
4.09822
3.86654
3.66565
3.49544
3.35609
3.24766
3.17011
3.12042
3.09134
3.07181
3.05256
3.03397
3.02122
3.01213
3.00836
3.00597
3.0034
2.99892
2.9933
2.98734
2.98048
2.97249
2.96309
2.95244
2.94055
2.92721
2.91239
2.89615
2.8785
2.85943
2.83896
2.81712
2.79397
2.76954
2.74389
2.71709
2.68918
2.66029
2.63033
2.59961
2.56668
4.94763
4.62272
4.33154
4.07204
3.84261
3.64242
3.47137
3.32969
3.21738
3.13385
3.07733
3.04303
3.02217
3.00429
2.98583
2.9714
2.96156
2.95643
2.95427
2.95234
2.94943
2.94467
2.93967
2.93396
2.92731
2.91945
2.91036
2.90012
2.88859
2.87565
2.86136
2.84571
2.82869
2.81031
2.79059
2.76956
2.74726
2.72373
2.69901
2.67318
2.64628
2.6184
2.5896
2.55995
2.52955
2.49834
2.46664
2.43307
4.29369
4.03922
3.81328
3.615
3.44428
3.30135
3.18627
3.0985
3.03657
2.99704
2.97344
2.95632
2.93878
2.92311
2.91249
2.90568
2.90357
2.90198
2.90008
2.89659
2.89231
2.88768
2.88214
2.87565
2.86802
2.85928
2.8494
2.83822
2.82574
2.81198
2.79691
2.78053
2.76284
2.74387
2.72365
2.70219
2.67955
2.65577
2.6309
2.605
2.57813
2.55037
2.52178
2.49243
2.4624
2.43175
2.40058
2.36881
2.3368
2.30322
3.4135
3.27055
3.15393
3.06314
2.997
2.95298
2.92609
2.90858
2.89248
2.87644
2.86459
2.85668
2.85374
2.85237
2.85106
2.84903
2.84541
2.84163
2.83716
2.83181
2.82552
2.81817
2.80977
2.80022
2.78943
2.77743
2.76419
2.7497
2.73395
2.71696
2.69873
2.6793
2.65869
2.63693
2.61407
2.59016
2.56525
2.53939
2.51266
2.48512
2.45682
2.42785
2.39828
2.36815
2.33756
2.30654
2.2752
2.24345
2.21167
2.1786
2.95791
2.91017
2.88008
2.86137
2.84632
2.83085
2.81789
2.80927
2.80463
2.80367
2.80273
2.80156
2.79903
2.79592
2.79243
2.78805
2.78294
2.77688
2.76982
2.76174
2.75252
2.74215
2.73063
2.71791
2.704
2.68889
2.67259
2.6551
2.63646
2.61668
2.5958
2.57386
2.55089
2.52696
2.5021
2.4764
2.44989
2.42265
2.39474
2.36622
2.33716
2.30761
2.27765
2.24733
2.21672
2.18587
2.15487
2.12366
2.09263
2.0606
2.80023
2.78584
2.77247
2.76298
2.7571
2.75589
2.75514
2.75446
2.75325
2.75068
2.74797
2.74457
2.74041
2.73551
2.72969
2.72291
2.71514
2.70628
2.69633
2.68528
2.67309
2.65975
2.64528
2.62966
2.61291
2.59505
2.5761
2.55608
2.53504
2.51301
2.49004
2.46618
2.44149
2.41602
2.38982
2.36296
2.3355
2.30749
2.279
2.25008
2.2208
2.19121
2.16139
2.13139
2.10128
2.07113
2.04103
2.0109
1.9811
1.95048
2.71116
2.70885
2.70853
2.70811
2.70769
2.70605
2.70391
2.7014
2.69807
2.69419
2.6895
2.6839
2.6774
2.66993
2.66144
2.65191
2.64132
2.62965
2.61689
2.60304
2.58811
2.57208
2.55499
2.53686
2.5177
2.49755
2.47645
2.45444
2.43156
2.40787
2.38342
2.35825
2.33244
2.30602
2.27907
2.25162
2.22375
2.19551
2.16696
2.13816
2.10918
2.08008
2.05093
2.0218
1.99272
1.96371
1.93488
1.90619
1.87794
1.84892
2.66263
2.66208
2.66043
2.65858
2.65611
2.65303
2.64934
2.64483
2.63947
2.63325
2.62609
2.61796
2.60884
2.59871
2.58756
2.57537
2.56213
2.54786
2.53256
2.51623
2.4989
2.48058
2.46132
2.44113
2.42006
2.39816
2.37546
2.35201
2.32787
2.30309
2.27772
2.2518
2.22541
2.19858
2.17138
2.14386
2.1161
2.08814
2.06005
2.03191
2.00377
1.97565
1.9476
1.9197
1.89199
1.8644
1.837
1.80981
1.78344
1.75657
2.61454
2.61214
2.60931
2.60579
2.60145
2.59635
2.5904
2.58355
2.57578
2.56707
2.5574
2.54675
2.53511
2.52249
2.50887
2.49427
2.47869
2.46215
2.44467
2.42627
2.40698
2.38685
2.3659
2.34418
2.32174
2.29861
2.27485
2.25051
2.22563
2.20027
2.17448
2.14831
2.12183
2.09509
2.06816
2.0411
2.01396
1.98681
1.95967
1.93258
1.90563
1.8788
1.8521
1.82555
1.79935
1.77364
1.74826
1.72307
1.69841
1.6733
2.56344
2.55932
2.55447
2.54878
2.54224
2.53483
2.52653
2.51731
2.50716
2.49607
2.48405
2.47107
2.45716
2.44231
2.42655
2.40988
2.39234
2.37394
2.35473
2.33473
2.31397
2.29251
2.27039
2.24764
2.22432
2.20046
2.17613
2.15137
2.12624
2.10079
2.07508
2.04917
2.02312
1.99699
1.97083
1.94466
1.91855
1.89253
1.8666
1.84078
1.81513
1.78988
1.76503
1.74046
1.71611
1.692
1.6683
1.64492
1.6223
1.59933
2.50833
2.50211
2.49506
2.48715
2.47838
2.46873
2.45818
2.44674
2.4344
2.42117
2.40704
2.39204
2.37617
2.35947
2.34194
2.32363
2.30456
2.28476
2.26427
2.24314
2.22139
2.19907
2.17624
2.15293
2.12919
2.10508
2.08065
2.05597
2.03108
2.00604
1.98092
1.95574
1.93054
1.90539
1.88031
1.85527
1.83035
1.80561
1.7813
1.75732
1.73357
1.71002
1.68673
1.66381
1.64128
1.61915
1.59751
1.57627
1.55592
1.5353
2.4489
2.44057
2.4314
2.42139
2.41052
2.39881
2.38623
2.37282
2.35856
2.34348
2.3276
2.31093
2.2935
2.27534
2.25648
2.23695
2.21679
2.19603
2.17471
2.15288
2.13058
2.10786
2.08477
2.06136
2.03769
2.01381
1.98978
1.96565
1.94145
1.91722
1.89302
1.86886
1.84472
1.82071
1.79689
1.7735
1.75037
1.72746
1.70471
1.68225
1.66014
1.6384
1.61707
1.59617
1.57574
1.55581
1.53643
1.51748
1.49957
1.48147
2.38564
2.37534
2.36423
2.35231
2.33959
2.32606
2.31175
2.29667
2.28084
2.26428
2.24702
2.22908
2.21049
2.19128
2.17149
2.15116
2.13032
2.10903
2.08732
2.06524
2.04284
2.02018
1.9973
1.97427
1.95112
1.92789
1.90463
1.88137
1.85811
1.83488
1.81177
1.78889
1.76639
1.7441
1.72201
1.70008
1.67844
1.65714
1.63619
1.61564
1.59551
1.57585
1.55667
1.538
1.51988
1.50229
1.4854
1.46887
1.45352
1.43794
2.31936
2.30731
2.2945
2.28094
2.26665
2.25164
2.23593
2.21954
2.2025
2.18483
2.16657
2.14773
2.12837
2.10851
2.08821
2.06749
2.04641
2.02502
2.00336
1.98148
1.95943
1.93726
1.91499
1.89268
1.87036
1.848
1.82566
1.80346
1.78151
1.75988
1.73842
1.71715
1.69603
1.67521
1.6547
1.63454
1.61476
1.59539
1.57647
1.55803
1.54008
1.52266
1.5058
1.48952
1.47384
1.45874
1.44441
1.43046
1.41781
1.40479
2.25101
2.23748
2.22327
2.20839
2.19286
2.1767
2.15994
2.14259
2.1247
2.10629
2.0874
2.06806
2.04833
2.02824
2.00784
1.98717
1.96628
1.94521
1.924
1.90269
1.88132
1.85992
1.83844
1.81701
1.79571
1.77469
1.7539
1.73327
1.71279
1.69249
1.67247
1.65275
1.63336
1.61434
1.59571
1.57752
1.5598
1.54256
1.52582
1.50964
1.49402
1.47898
1.46455
1.45075
1.43761
1.42509
1.4134
1.40211
1.39223
1.38183
2.18163
2.16694
2.15164
2.13576
2.11932
2.10234
2.08487
2.06692
2.04855
2.02978
2.01067
1.99124
1.97155
1.95163
1.93153
1.91127
1.89091
1.87048
1.84998
1.82939
1.80885
1.78846
1.76833
1.74838
1.72856
1.70888
1.68939
1.67016
1.6512
1.63257
1.61429
1.5964
1.57892
1.56189
1.54533
1.52927
1.51373
1.49875
1.48433
1.47051
1.4573
1.44472
1.4328
1.42155
1.411
1.40111
1.39207
1.38345
1.37636
1.36857
2.11225
2.09669
2.08062
2.06406
2.04705
2.02962
2.0118
1.99364
1.97517
1.95644
1.93749
1.91834
1.89903
1.8796
1.86009
1.84048
1.82078
1.80113
1.78164
1.76239
1.74326
1.72425
1.70536
1.68666
1.6682
1.65001
1.63212
1.61457
1.59738
1.5806
1.56424
1.54834
1.53292
1.51801
1.50364
1.48981
1.47656
1.46391
1.45188
1.44048
1.42974
1.41966
1.41028
1.4016
1.39364
1.38637
1.37995
1.37397
1.36957
1.36431
2.05949
2.04383
2.02773
2.01122
1.99434
1.97712
1.9596
1.94181
1.92379
1.90558
1.88721
1.86871
1.8501
1.83137
1.81255
1.79379
1.7752
1.75679
1.73847
1.72026
1.70216
1.68424
1.66655
1.6491
1.63194
1.6151
1.5986
1.58249
1.5668
1.55153
1.53673
1.52242
1.50863
1.49537
1.48267
1.47054
1.45901
1.4481
1.43783
1.42821
1.41925
1.41098
1.40341
1.39654
1.39038
1.38496
1.38023
1.37633
1.37288
1.371
1.36815
1.99333
1.97736
1.96106
1.94446
1.9276
1.91051
1.89322
1.87577
1.85818
1.84046
1.82259
1.80466
1.78678
1.76907
1.75149
1.73398
1.71655
1.69923
1.68208
1.66513
1.64842
1.63197
1.61583
1.60001
1.58456
1.5695
1.55486
1.54065
1.52692
1.51369
1.50096
1.48878
1.47714
1.46609
1.45563
1.44579
1.43658
1.42802
1.42012
1.4129
1.40636
1.40051
1.39537
1.39093
1.3872
1.38419
1.38186
1.38031
1.37922
1.37962
1.37899
1.94542
1.92973
1.91378
1.8976
1.88121
1.86466
1.84796
1.83112
1.81411
1.79704
1.78003
1.76319
1.74643
1.72971
1.71305
1.69651
1.68012
1.66391
1.64792
1.63217
1.61671
1.60155
1.58675
1.57231
1.55826
1.54464
1.53147
1.51877
1.50656
1.49486
1.4837
1.47309
1.46306
1.45362
1.44479
1.43658
1.42902
1.4221
1.41585
1.41027
1.40536
1.40115
1.39762
1.39478
1.39263
1.39116
1.39038
1.39024
1.39083
1.39186
1.39426
1.39559
1.88502
1.86952
1.85384
1.83801
1.82203
1.80587
1.78966
1.77351
1.75753
1.74157
1.72563
1.70974
1.69396
1.67832
1.66284
1.64755
1.6325
1.6177
1.60319
1.58901
1.57518
1.56172
1.54866
1.53602
1.52384
1.51212
1.50089
1.49017
1.47999
1.47036
1.46129
1.45281
1.44493
1.43766
1.43102
1.42502
1.41967
1.41497
1.41094
1.40757
1.40487
1.40283
1.40146
1.40074
1.40068
1.40126
1.40247
1.40427
1.40672
1.40957
1.41367
1.41669
1.82831
1.81316
1.79784
1.78248
1.76718
1.75203
1.73686
1.7217
1.70657
1.69154
1.67664
1.66186
1.64727
1.63289
1.61875
1.60488
1.59131
1.57807
1.56518
1.55267
1.54055
1.52886
1.51762
1.50684
1.49655
1.48677
1.47751
1.46879
1.46063
1.45305
1.44606
1.43967
1.43389
1.42874
1.42421
1.42033
1.41708
1.41448
1.41252
1.41121
1.41053
1.41048
1.41106
1.41224
1.41402
1.41638
1.41931
1.42275
1.42678
1.43112
1.43662
1.44104
1.77547
1.76101
1.74666
1.73227
1.71787
1.70349
1.6892
1.67501
1.66094
1.64704
1.63333
1.61983
1.60659
1.59362
1.58095
1.56862
1.55663
1.54502
1.53382
1.52303
1.51269
1.5028
1.4934
1.4845
1.47611
1.46826
1.46096
1.45422
1.44805
1.44247
1.43749
1.43311
1.42935
1.4262
1.42367
1.42176
1.42047
1.4198
1.41973
1.42027
1.4214
1.42311
1.42538
1.4282
1.43154
1.4354
1.43974
1.44453
1.44983
1.45538
1.46198
1.46753
1.72776
1.71411
1.70047
1.6869
1.67343
1.66005
1.64682
1.63376
1.6209
1.60826
1.59588
1.58379
1.57199
1.56053
1.54941
1.53868
1.52834
1.51841
1.50892
1.49988
1.49132
1.48325
1.47568
1.46864
1.46213
1.45617
1.45077
1.44595
1.44169
1.43803
1.43495
1.43247
1.43059
1.4293
1.4286
1.4285
1.42897
1.43002
1.43163
1.43378
1.43647
1.43967
1.44337
1.44754
1.45216
1.45722
1.4627
1.46855
1.47484
1.48134
1.48877
1.49526
1.68462
1.67184
1.65914
1.64657
1.63415
1.62192
1.60988
1.59808
1.58654
1.57528
1.56433
1.5537
1.54342
1.53351
1.52399
1.51488
1.5062
1.49796
1.49019
1.4829
1.4761
1.46981
1.46404
1.45881
1.45411
1.44997
1.44639
1.44337
1.44093
1.43905
1.43774
1.437
1.43683
1.43722
1.43817
1.43965
1.44167
1.4442
1.44723
1.45075
1.45473
1.45915
1.464
1.46925
1.47488
1.48087
1.48722
1.49389
1.50093
1.50816
1.51614
1.5234
1.64628
1.63449
1.62286
1.61142
1.60019
1.58919
1.57846
1.568
1.55784
1.54801
1.53853
1.5294
1.52067
1.51233
1.50441
1.49692
1.48989
1.48333
1.47725
1.47166
1.46657
1.46201
1.45796
1.45445
1.45148
1.44905
1.44717
1.44583
1.44504
1.44479
1.44508
1.44591
1.44725
1.44911
1.45148
1.45432
1.45764
1.46141
1.46561
1.47023
1.47523
1.48062
1.48635
1.49243
1.49882
1.50552
1.51252
1.51979
1.52736
1.53509
1.54324
1.55079
1.60218
1.59172
1.58149
1.57153
1.56184
1.55244
1.54337
1.53464
1.52626
1.51826
1.51065
1.50345
1.49667
1.49033
1.48445
1.47903
1.47409
1.46964
1.46568
1.46223
1.45929
1.45687
1.45497
1.4536
1.45274
1.45241
1.45259
1.45329
1.45448
1.45618
1.45836
1.46101
1.46411
1.46766
1.47163
1.476
1.48076
1.48588
1.49135
1.49714
1.50325
1.50965
1.51633
1.52328
1.53049
1.53793
1.54556
1.55332
1.56098
1.56811
1.57351
1.57489
1.56566
1.5567
1.54803
1.53968
1.53166
1.52399
1.51668
1.50975
1.50322
1.4971
1.49141
1.48616
1.48135
1.47701
1.47314
1.46974
1.46683
1.46442
1.46249
1.46107
1.46014
1.45972
1.45979
1.46034
1.46139
1.46291
1.4649
1.46735
1.47023
1.47355
1.47728
1.4814
1.4859
1.49075
1.49595
1.50146
1.50727
1.51337
1.51974
1.52636
1.53324
1.54034
1.54766
1.55514
1.56271
1.57014
1.57689
1.58205
1.58552
1.58792
1.55249
1.54452
1.53684
1.52949
1.52248
1.51583
1.50954
1.50364
1.49813
1.49304
1.48837
1.48413
1.48034
1.47699
1.47411
1.47169
1.46975
1.46827
1.46727
1.46675
1.4667
1.46712
1.46801
1.46935
1.47115
1.47338
1.47605
1.47913
1.48262
1.48648
1.49072
1.4953
1.50022
1.50545
1.51097
1.51677
1.52283
1.52914
1.53568
1.54245
1.54942
1.55659
1.5639
1.57127
1.5785
1.58502
1.58988
1.5931
1.59543
1.59735
1.59809
1.52805
1.52166
1.51562
1.50993
1.50461
1.49968
1.49514
1.49101
1.48729
1.484
1.48114
1.47872
1.47675
1.47522
1.47415
1.47353
1.47336
1.47364
1.47437
1.47553
1.47714
1.47916
1.4816
1.48445
1.48768
1.4913
1.49527
1.49958
1.50422
1.50916
1.51439
1.5199
1.52566
1.53166
1.53788
1.54432
1.55096
1.55779
1.56479
1.57191
1.57908
1.5861
1.59244
1.59709
1.60019
1.60249
1.60425
1.60482
1.60358
1.59971
1.51598
1.51084
1.50607
1.50166
1.49764
1.494
1.49076
1.48793
1.48551
1.48352
1.48194
1.4808
1.48008
1.47979
1.47993
1.4805
1.48149
1.4829
1.48472
1.48693
1.48954
1.49253
1.49588
1.49959
1.50363
1.50799
1.51265
1.5176
1.52281
1.52828
1.53397
1.53989
1.54602
1.55234
1.55884
1.5655
1.57232
1.57924
1.5862
1.59303
1.5992
1.6037
1.6067
1.60902
1.61075
1.61131
1.60998
1.60591
1.59784
1.58396
1.50794
1.50402
1.50047
1.49729
1.49449
1.49207
1.49005
1.48844
1.48722
1.48641
1.48601
1.48602
1.48643
1.48725
1.48846
1.49007
1.49207
1.49444
1.49719
1.50028
1.50372
1.50749
1.51158
1.51596
1.52062
1.52554
1.53072
1.53612
1.54174
1.54756
1.55357
1.55976
1.56611
1.57261
1.57924
1.58596
1.59271
1.59934
1.60538
1.60979
1.61271
1.61502
1.61675
1.61734
1.61611
1.61215
1.60415
1.59029
1.56821
1.53489
1.50358
1.50081
1.49841
1.49637
1.49471
1.49344
1.49254
1.49203
1.49191
1.49218
1.49283
1.49386
1.49526
1.49704
1.49919
1.50168
1.50453
1.50771
1.51121
1.51501
1.51912
1.52349
1.52813
1.53302
1.53813
1.54346
1.54899
1.5547
1.56058
1.56663
1.57282
1.57914
1.58558
1.59211
1.59865
1.60509
1.61102
1.6154
1.61827
1.62055
1.6223
1.62295
1.62184
1.61808
1.61042
1.597
1.57541
1.54265
1.49561
1.43184
1.50247
1.50078
1.49945
1.49848
1.49787
1.49763
1.49775
1.49824
1.49909
1.5003
1.50187
1.50379
1.50605
1.50865
1.51157
1.5148
1.51833
1.52216
1.52625
1.53061
1.53521
1.54004
1.54508
1.55032
1.55574
1.56133
1.56708
1.57297
1.579
1.58515
1.5914
1.59773
1.60407
1.61033
1.61614
1.62056
1.62341
1.62565
1.62743
1.62817
1.62723
1.62374
1.61651
1.60372
1.583
1.55135
1.50551
1.44298
1.36345
1.26969
1.50423
1.50353
1.50317
1.50316
1.5035
1.50418
1.50521
1.50657
1.50827
1.5103
1.51266
1.51532
1.51829
1.52156
1.52511
1.52893
1.53301
1.53732
1.54187
1.54663
1.55158
1.55672
1.56203
1.56749
1.5731
1.57884
1.5847
1.59067
1.59673
1.60285
1.60899
1.61507
1.62079
1.62527
1.62815
1.63034
1.63217
1.63302
1.63229
1.62915
1.62245
1.61045
1.59083
1.56062
1.51655
1.45591
1.37802
1.28547
1.18366
1.07837
1.50842
1.50862
1.50914
1.50999
1.51116
1.51265
1.51446
1.51658
1.519
1.52171
1.52472
1.528
1.53154
1.53534
1.53938
1.54365
1.54812
1.5528
1.55766
1.56268
1.56787
1.5732
1.57866
1.58424
1.58993
1.59573
1.6016
1.60753
1.61347
1.61936
1.62497
1.62957
1.63251
1.63464
1.63652
1.63751
1.63701
1.63427
1.62819
1.61712
1.59881
1.57037
1.52847
1.47024
1.39465
1.30384
1.20297
1.09798
0.993207
0.89077
1.51564
1.51693
1.51852
1.52042
1.5226
1.52507
1.52782
1.53084
1.53412
1.53764
1.54141
1.54539
1.54959
1.55399
1.55857
1.56333
1.56824
1.5733
1.57849
1.5838
1.58922
1.59474
1.60035
1.60604
1.61178
1.61753
1.62324
1.62873
1.63344
1.63649
1.63855
1.6405
1.64164
1.64139
1.63908
1.63369
1.62365
1.60682
1.5804
1.54107
1.48577
1.41303
1.32448
1.22496
1.12049
1.01568
0.912914
0.813006
0.716069
1.52419
1.52615
1.52838
1.53089
1.53365
1.53666
1.53992
1.54342
1.54713
1.55106
1.55518
1.55949
1.56397
1.56861
1.5734
1.57833
1.58337
1.58853
1.5938
1.59915
1.60458
1.61008
1.61563
1.62119
1.62671
1.63208
1.63688
1.64009
1.64214
1.64412
1.64541
1.6454
1.64355
1.63888
1.62993
1.61471
1.59051
1.55407
1.50215
1.43284
1.34714
1.2494
1.14566
1.04092
0.937891
0.837545
0.740018
0.645344
0.553781
1.53392
1.53644
1.5392
1.5422
1.54543
1.54887
1.55253
1.55638
1.56042
1.56464
1.56901
1.57354
1.5782
1.58299
1.58789
1.59289
1.59799
1.60318
1.60843
1.61375
1.61911
1.62448
1.62982
1.63505
1.63989
1.64331
1.64541
1.64739
1.64882
1.64906
1.64767
1.64372
1.6359
1.62234
1.60049
1.56717
1.51902
1.4537
1.37146
1.27604
1.17337
1.06881
0.965516
0.864725
0.766665
0.671324
0.578855
0.489753
0.404918
1.54744
1.55063
1.55402
1.55761
1.56139
1.56533
1.56945
1.57371
1.57811
1.58264
1.58729
1.59205
1.5969
1.60184
1.60685
1.61193
1.61707
1.62224
1.62743
1.6326
1.63768
1.64247
1.64616
1.6484
1.65033
1.65185
1.65235
1.65141
1.64817
1.64146
1.62958
1.61014
1.58008
1.536
1.47514
1.39701
1.30454
1.20337
1.09921
0.995729
0.894489
0.795869
0.699863
0.60656
0.51634
0.429953
0.348573
0.273759
1.55888
1.56239
1.56608
1.56993
1.57394
1.57808
1.58236
1.58676
1.59127
1.59587
1.60057
1.60534
1.61019
1.6151
1.62006
1.62505
1.63006
1.63505
1.63997
1.64468
1.64864
1.6511
1.65292
1.65453
1.65529
1.65476
1.6522
1.64657
1.63633
1.61929
1.59254
1.55272
1.49674
1.42332
1.3345
1.23539
1.13194
1.02839
0.926749
0.827585
0.730927
0.636812
0.54552
0.457673
0.3743
0.296851
0.227061
0.166587
1.57422
1.57812
1.58214
1.58629
1.59056
1.59492
1.59938
1.60392
1.60854
1.61322
1.61796
1.62274
1.62756
1.63239
1.63721
1.64197
1.64657
1.6507
1.65346
1.65519
1.65687
1.65787
1.65771
1.65578
1.65119
1.64252
1.6278
1.60434
1.56886
1.51804
1.44991
1.36546
1.26909
1.16677
1.06336
0.96138
0.861703
0.76443
0.669559
0.577273
0.488063
0.402804
0.322804
0.249747
0.185426
0.131268
0.0878196
1.58591
1.58993
1.59406
1.59828
1.60259
1.60698
1.61144
1.61595
1.62052
1.62513
1.62977
1.63443
1.63908
1.64368
1.64816
1.65233
1.65542
1.65724
1.65892
1.66011
1.66027
1.65892
1.65528
1.64808
1.63557
1.61529
1.58412
1.53864
1.47626
1.39693
1.30407
1.20345
1.10044
0.99825
0.898105
0.80026
0.704695
0.611511
0.521074
0.434094
0.351708
0.275484
0.207255
0.148709
0.100863
0.0637071
0.0362678
1.60136
1.60552
1.60976
1.61405
1.61841
1.62281
1.62725
1.63173
1.63621
1.64069
1.64513
1.64948
1.6536
1.65703
1.65909
1.66067
1.66199
1.66244
1.66163
1.65883
1.65299
1.64253
1.62527
1.59828
1.55815
1.50188
1.42836
1.33987
1.24166
1.13946
1.03722
0.936675
0.8383
0.742104
0.64812
0.556598
0.468092
0.383549
0.304369
0.232331
0.16929
0.116666
0.0749593
0.0436477
0.0217052
0.00997273
1.61227
1.61641
1.62061
1.62485
1.62912
1.63342
1.63774
1.64206
1.64634
1.65055
1.65459
1.65821
1.66064
1.66212
1.66353
1.66426
1.66391
1.66186
1.65723
1.64866
1.63418
1.61115
1.57629
1.52629
1.45917
1.37595
1.281
1.18018
1.07814
0.977299
0.878443
0.781671
0.686977
0.59451
0.504678
0.418238
0.336387
0.260767
0.193288
0.135683
0.088966
0.0531244
0.0274143
0.0123528
0.0127975
0.0192477
1.62256
1.62664
1.63075
1.63489
1.63904
1.6432
1.64732
1.65139
1.65533
1.65898
1.6618
1.6634
1.66479
1.66575
1.66576
1.66437
1.66082
1.65393
1.64199
1.62264
1.59281
1.54908
1.4888
1.41171
1.321
1.22229
1.12084
1.01986
0.920586
0.823292
0.727967
0.634682
0.543716
0.455647
0.371452
0.292578
0.220869
0.15825
0.106193
0.0652519
0.0350878
0.0159043
0.0130594
0.0199612
0.0261756
0.0306355
1.63216
1.63614
1.64013
1.64412
1.64809
1.65202
1.65585
1.65946
1.66257
1.66452
1.6658
1.6669
1.66723
1.66641
1.66379
1.65837
1.6487
1.63269
1.60755
1.56994
1.51672
1.4465
1.36109
1.26541
1.16511
1.06422
0.964628
0.866866
0.770981
0.676989
0.585063
0.495621
0.409425
0.327689
0.252094
0.184611
0.127057
0.0805485
0.0452641
0.0212976
0.0134517
0.020136
0.027384
0.0327055
0.0363809
0.0389075
1.64101
1.64485
1.64867
1.65245
1.65616
1.65971
1.66292
1.66528
1.66659
1.66774
1.66835
1.66801
1.66617
1.66203
1.65435
1.64132
1.62046
1.58863
1.54248
1.47967
1.40059
1.30904
1.21065
1.11023
1.01047
0.912301
0.815918
0.721315
0.62858
0.537998
0.450134
0.365957
0.286917
0.214895
0.151894
0.0995159
0.0585205
0.0291538
0.0148402
0.0196821
0.0280326
0.0344302
0.0388703
0.0418986
0.0439783
0.0454005
1.64907
1.65271
1.65629
1.65976
1.66298
1.66566
1.66727
1.66836
1.66917
1.66919
1.66801
1.66496
1.65898
1.64857
1.63154
1.60504
1.56572
1.51063
1.43879
1.35256
1.25706
1.15768
1.05798
0.959507
0.862688
0.767554
0.674138
0.582617
0.493389
0.407188
0.3252
0.249106
0.180925
0.122593
0.0754428
0.0400953
0.0186201
0.0186872
0.0279169
0.0356235
0.0410553
0.0447437
0.0472523
0.0489557
0.0501447
0.0510474
1.65626
1.65962
1.66282
1.66563
1.66766
1.66876
1.66967
1.67
1.66938
1.66722
1.6627
1.65452
1.64085
1.61916
1.58625
1.53887
1.47493
1.39523
1.30383
1.20627
1.10701
1.00839
0.911202
0.815609
0.721619
0.629327
0.538997
0.451158
0.366729
0.287123
0.21422
0.150105
0.0965728
0.0547511
0.0260128
0.0178418
0.0268343
0.036045
0.0427436
0.047312
0.0503919
0.0524742
0.0538769
0.0548984
0.0556762
0.0562742
1.66533
1.66768
1.66907
1.66996
1.67052
1.67031
1.66889
1.66558
1.6593
1.64852
1.63105
1.60399
1.56403
1.50835
1.43623
1.35027
1.2556
1.15736
1.05882
0.961376
0.865392
0.770916
0.67799
0.586778
0.497638
0.411246
0.328722
0.251698
0.182213
0.122345
0.0737306
0.0376859
0.0191756
0.0247289
0.0354233
0.0436964
0.0494203
0.0532661
0.0558504
0.0575734
0.0587591
0.0596444
0.0603059
0.0608299
0.0612719
1.66912
1.67006
1.67074
1.67087
1.67006
1.66773
1.66303
1.65468
1.64085
1.61899
1.58595
1.5385
1.47472
1.39554
1.30508
1.20871
1.11066
1.01311
0.91682
0.821935
0.728487
0.636568
0.546408
0.458476
0.373609
0.293136
0.218894
0.153026
0.0975576
0.0540971
0.0255177
0.0221393
0.0334926
0.0436172
0.0508331
0.0557083
0.0589639
0.0611367
0.0625748
0.0636031
0.0643587
0.0649245
0.0653827
0.0657807
0.0661446
1.67077
1.67114
1.67078
1.66924
1.66583
1.65952
1.64876
1.6314
1.60459
1.56503
1.50997
1.43874
1.35395
1.26061
1.16368
1.0663
0.969808
0.874591
0.780714
0.688227
0.59727
0.50815
0.421459
0.338212
0.259947
0.188674
0.126598
0.0756995