/*--------------------------------*- C++ -*----------------------------------*\
| =========                 |                                                 |
| \\      /  F ield         | OpenFOAM: The Open Source CFD Toolbox           |
|  \\    /   O peration     | Version:  v1706                                 |
|   \\  /    A nd           | Web:      www.OpenFOAM.com                      |
|    \\/     M anipulation  |                                                 |
\*---------------------------------------------------------------------------*/
FoamFile
{
    version     2.0;
    format      ascii;
    class       volScalarField;
    location    "3e-06";
    object      mu;
}
// * * * * * * * * * * * * * * * * * * * * * * * * * * * * * * * * * * * * * //

dimensions      [1 -1 -1 0 0 0 0];


internalField   nonuniform List<scalar> 
30038
(
1.0351e-05
1.0351e-05
1.0351e-05
1.0351e-05
1.0351e-05
1.0351e-05
1.0351e-05
1.0351e-05
1.0351e-05
1.0351e-05
1.0351e-05
1.0351e-05
1.0351e-05
1.0351e-05
1.0351e-05
1.0351e-05
1.0351e-05
1.0351e-05
1.0351e-05
1.0351e-05
1.0351e-05
1.0351e-05
1.0351e-05
1.0351e-05
1.0351e-05
1.0351e-05
1.0351e-05
1.0351e-05
1.0351e-05
1.0351e-05
1.0351e-05
1.0351e-05
1.0351e-05
1.0351e-05
1.0351e-05
1.0351e-05
1.0351e-05
1.0351e-05
1.0351e-05
1.0351e-05
1.0351e-05
1.0351e-05
1.0351e-05
1.0351e-05
1.0351e-05
1.0351e-05
1.0351e-05
1.0351e-05
1.0351e-05
1.0351e-05
1.0351e-05
1.0351e-05
1.0351e-05
1.0351e-05
1.0351e-05
1.0351e-05
1.0351e-05
1.0351e-05
1.0351e-05
1.0351e-05
1.0351e-05
1.0351e-05
1.0351e-05
1.0351e-05
1.0351e-05
1.0351e-05
1.0351e-05
1.0351e-05
1.0351e-05
1.0351e-05
1.0351e-05
1.0351e-05
1.0351e-05
1.0351e-05
1.0351e-05
1.0351e-05
1.0351e-05
1.0351e-05
1.0351e-05
1.0351e-05
1.0351e-05
1.0351e-05
1.0351e-05
1.0351e-05
1.0351e-05
1.0351e-05
1.0351e-05
1.0351e-05
1.0351e-05
1.0351e-05
1.0351e-05
1.0351e-05
1.0351e-05
1.0351e-05
1.0351e-05
1.0351e-05
1.0351e-05
1.0351e-05
1.0351e-05
1.0351e-05
1.0351e-05
1.0351e-05
1.0351e-05
1.0351e-05
1.0351e-05
1.0351e-05
1.0351e-05
1.0351e-05
1.0351e-05
1.0351e-05
1.0351e-05
1.0351e-05
1.0351e-05
1.0351e-05
1.0351e-05
1.0351e-05
1.0351e-05
1.0351e-05
1.0351e-05
1.0351e-05
1.0351e-05
1.0351e-05
1.0351e-05
1.0351e-05
1.0351e-05
1.0351e-05
1.0351e-05
1.0351e-05
1.0351e-05
1.0351e-05
1.0351e-05
1.0351e-05
1.0351e-05
1.0351e-05
1.0351e-05
1.0351e-05
1.0351e-05
1.0351e-05
1.0351e-05
1.0351e-05
1.0351e-05
1.0351e-05
1.0351e-05
1.0351e-05
1.0351e-05
1.0351e-05
1.0351e-05
1.0351e-05
1.0351e-05
1.0351e-05
1.0351e-05
1.0351e-05
1.0351e-05
1.0351e-05
1.0351e-05
1.0351e-05
1.0351e-05
1.0351e-05
1.0351e-05
1.0351e-05
1.0351e-05
1.0351e-05
1.0351e-05
1.0351e-05
1.0351e-05
1.0351e-05
1.0351e-05
1.0351e-05
1.0351e-05
1.0351e-05
1.0351e-05
1.0351e-05
1.0351e-05
1.0351e-05
1.0351e-05
1.0351e-05
1.0351e-05
1.0351e-05
1.0351e-05
1.0351e-05
1.0351e-05
1.0351e-05
1.0351e-05
1.0351e-05
1.0351e-05
1.0351e-05
1.0351e-05
1.0351e-05
1.0351e-05
1.0351e-05
1.0351e-05
1.0351e-05
1.0351e-05
1.0351e-05
1.0351e-05
1.0351e-05
1.0351e-05
1.0351e-05
1.0351e-05
1.0351e-05
1.0351e-05
1.0351e-05
1.0351e-05
1.0351e-05
1.0351e-05
1.0351e-05
1.0351e-05
1.0351e-05
1.0351e-05
1.0351e-05
1.0351e-05
1.0351e-05
1.0351e-05
1.0351e-05
1.0351e-05
1.0351e-05
1.0351e-05
1.0351e-05
1.0351e-05
1.0351e-05
1.0351e-05
1.0351e-05
1.0351e-05
1.0351e-05
1.0351e-05
1.0351e-05
1.0351e-05
1.0351e-05
1.0351e-05
1.0351e-05
1.0351e-05
1.0351e-05
1.0351e-05
1.0351e-05
1.0351e-05
1.0351e-05
1.0351e-05
1.0351e-05
1.0351e-05
1.0351e-05
1.0351e-05
1.0351e-05
1.0351e-05
1.0351e-05
1.0351e-05
1.0351e-05
1.0351e-05
1.0351e-05
1.0351e-05
1.0351e-05
1.0351e-05
1.0351e-05
1.0351e-05
1.0351e-05
1.0351e-05
1.0351e-05
1.0351e-05
1.0351e-05
1.0351e-05
1.0351e-05
1.0351e-05
1.0351e-05
1.0351e-05
1.0351e-05
1.0351e-05
1.0351e-05
1.0351e-05
1.0351e-05
1.0351e-05
1.0351e-05
1.0351e-05
1.0351e-05
1.0351e-05
1.0351e-05
1.0351e-05
1.0351e-05
1.0351e-05
1.0351e-05
1.0351e-05
1.0351e-05
1.0351e-05
1.0351e-05
1.0351e-05
1.0351e-05
1.0351e-05
1.0351e-05
1.0351e-05
1.0351e-05
1.0351e-05
1.0351e-05
1.0351e-05
1.0351e-05
1.0351e-05
1.0351e-05
1.0351e-05
1.0351e-05
1.0351e-05
1.0351e-05
1.0351e-05
1.0351e-05
1.03511e-05
1.03511e-05
1.03511e-05
1.03512e-05
1.0351e-05
1.0351e-05
1.0351e-05
1.0351e-05
1.0351e-05
1.0351e-05
1.0351e-05
1.0351e-05
1.0351e-05
1.0351e-05
1.0351e-05
1.0351e-05
1.0351e-05
1.0351e-05
1.0351e-05
1.0351e-05
1.0351e-05
1.0351e-05
1.0351e-05
1.0351e-05
1.0351e-05
1.0351e-05
1.0351e-05
1.0351e-05
1.0351e-05
1.0351e-05
1.0351e-05
1.0351e-05
1.0351e-05
1.0351e-05
1.0351e-05
1.03511e-05
1.03511e-05
1.03511e-05
1.03512e-05
1.03513e-05
1.03515e-05
1.03517e-05
1.03522e-05
1.0351e-05
1.0351e-05
1.0351e-05
1.0351e-05
1.0351e-05
1.0351e-05
1.0351e-05
1.0351e-05
1.0351e-05
1.0351e-05
1.0351e-05
1.0351e-05
1.0351e-05
1.0351e-05
1.0351e-05
1.0351e-05
1.0351e-05
1.0351e-05
1.0351e-05
1.0351e-05
1.0351e-05
1.0351e-05
1.0351e-05
1.0351e-05
1.0351e-05
1.0351e-05
1.0351e-05
1.03511e-05
1.03511e-05
1.03511e-05
1.03512e-05
1.03513e-05
1.03515e-05
1.03517e-05
1.03521e-05
1.03526e-05
1.03535e-05
1.03547e-05
1.0357e-05
1.0351e-05
1.0351e-05
1.0351e-05
1.0351e-05
1.0351e-05
1.0351e-05
1.0351e-05
1.0351e-05
1.0351e-05
1.0351e-05
1.0351e-05
1.0351e-05
1.0351e-05
1.0351e-05
1.0351e-05
1.0351e-05
1.0351e-05
1.0351e-05
1.0351e-05
1.0351e-05
1.0351e-05
1.0351e-05
1.0351e-05
1.03511e-05
1.03511e-05
1.03512e-05
1.03512e-05
1.03513e-05
1.03515e-05
1.03518e-05
1.03521e-05
1.03527e-05
1.03535e-05
1.03547e-05
1.03566e-05
1.03594e-05
1.03636e-05
1.037e-05
1.03813e-05
1.0351e-05
1.0351e-05
1.0351e-05
1.0351e-05
1.0351e-05
1.0351e-05
1.0351e-05
1.0351e-05
1.0351e-05
1.0351e-05
1.0351e-05
1.0351e-05
1.0351e-05
1.0351e-05
1.0351e-05
1.0351e-05
1.0351e-05
1.0351e-05
1.0351e-05
1.03511e-05
1.03511e-05
1.03511e-05
1.03512e-05
1.03512e-05
1.03514e-05
1.03515e-05
1.03518e-05
1.03522e-05
1.03527e-05
1.03536e-05
1.03548e-05
1.03567e-05
1.03595e-05
1.03636e-05
1.03699e-05
1.03792e-05
1.03932e-05
1.04142e-05
1.04463e-05
1.05011e-05
1.0351e-05
1.0351e-05
1.0351e-05
1.0351e-05
1.0351e-05
1.0351e-05
1.0351e-05
1.0351e-05
1.0351e-05
1.0351e-05
1.0351e-05
1.0351e-05
1.0351e-05
1.0351e-05
1.0351e-05
1.03511e-05
1.03511e-05
1.03511e-05
1.03512e-05
1.03513e-05
1.03514e-05
1.03516e-05
1.03518e-05
1.03522e-05
1.03528e-05
1.03536e-05
1.03549e-05
1.03568e-05
1.03596e-05
1.03638e-05
1.037e-05
1.03793e-05
1.03932e-05
1.04139e-05
1.04448e-05
1.04908e-05
1.05592e-05
1.06606e-05
1.08124e-05
1.10579e-05
1.0351e-05
1.0351e-05
1.0351e-05
1.0351e-05
1.0351e-05
1.0351e-05
1.0351e-05
1.0351e-05
1.0351e-05
1.0351e-05
1.0351e-05
1.03511e-05
1.03511e-05
1.03511e-05
1.03512e-05
1.03513e-05
1.03514e-05
1.03516e-05
1.03519e-05
1.03523e-05
1.03529e-05
1.03537e-05
1.0355e-05
1.0357e-05
1.03598e-05
1.0364e-05
1.03703e-05
1.03796e-05
1.03935e-05
1.0414e-05
1.04446e-05
1.04899e-05
1.0557e-05
1.0656e-05
1.08012e-05
1.10123e-05
1.13158e-05
1.17453e-05
1.23481e-05
1.32164e-05
1.0351e-05
1.0351e-05
1.0351e-05
1.0351e-05
1.0351e-05
1.0351e-05
1.0351e-05
1.03511e-05
1.03511e-05
1.03511e-05
1.03512e-05
1.03513e-05
1.03514e-05
1.03516e-05
1.03519e-05
1.03523e-05
1.0353e-05
1.03539e-05
1.03552e-05
1.03572e-05
1.03601e-05
1.03644e-05
1.03707e-05
1.03801e-05
1.0394e-05
1.04146e-05
1.0445e-05
1.049e-05
1.05563e-05
1.06537e-05
1.0796e-05
1.10023e-05
1.12979e-05
1.17148e-05
1.22905e-05
1.30646e-05
1.4076e-05
1.53532e-05
1.69248e-05
1.8831e-05
1.0351e-05
1.0351e-05
1.03511e-05
1.03511e-05
1.03511e-05
1.03512e-05
1.03512e-05
1.03513e-05
1.03515e-05
1.03517e-05
1.0352e-05
1.03524e-05
1.03531e-05
1.0354e-05
1.03554e-05
1.03575e-05
1.03605e-05
1.03649e-05
1.03714e-05
1.03809e-05
1.0395e-05
1.04157e-05
1.04462e-05
1.04911e-05
1.05569e-05
1.06534e-05
1.07937e-05
1.09965e-05
1.1286e-05
1.16932e-05
1.22546e-05
1.3009e-05
1.39929e-05
1.52357e-05
1.67488e-05
1.85188e-05
2.05138e-05
2.26871e-05
2.49837e-05
2.73793e-05
1.03511e-05
1.03512e-05
1.03512e-05
1.03514e-05
1.03515e-05
1.03517e-05
1.03521e-05
1.03525e-05
1.03532e-05
1.03542e-05
1.03557e-05
1.03578e-05
1.03609e-05
1.03655e-05
1.03722e-05
1.0382e-05
1.03963e-05
1.04173e-05
1.04481e-05
1.04933e-05
1.05592e-05
1.06553e-05
1.07947e-05
1.09951e-05
1.12803e-05
1.16801e-05
1.22299e-05
1.29677e-05
1.39291e-05
1.51426e-05
1.6623e-05
1.8361e-05
2.03237e-05
2.24665e-05
2.47289e-05
2.70271e-05
2.93009e-05
3.15352e-05
3.35789e-05
3.53529e-05
1.03516e-05
1.03518e-05
1.03522e-05
1.03527e-05
1.03534e-05
1.03545e-05
1.0356e-05
1.03583e-05
1.03615e-05
1.03663e-05
1.03732e-05
1.03833e-05
1.03981e-05
1.04196e-05
1.0451e-05
1.04967e-05
1.05633e-05
1.06598e-05
1.0799e-05
1.09985e-05
1.12812e-05
1.1676e-05
1.22171e-05
1.29418e-05
1.38848e-05
1.50736e-05
1.65238e-05
1.82309e-05
2.01651e-05
2.22798e-05
2.45245e-05
2.6827e-05
2.91092e-05
3.13307e-05
3.34416e-05
3.52667e-05
3.67085e-05
3.77566e-05
3.84691e-05
3.89893e-05
1.03528e-05
1.03536e-05
1.03548e-05
1.03564e-05
1.03588e-05
1.03622e-05
1.03673e-05
1.03745e-05
1.03851e-05
1.04004e-05
1.04226e-05
1.04548e-05
1.05016e-05
1.05693e-05
1.06669e-05
1.08072e-05
1.10072e-05
1.12893e-05
1.16817e-05
1.22174e-05
1.29324e-05
1.3861e-05
1.503e-05
1.64543e-05
1.81323e-05
2.00391e-05
2.2129e-05
2.43502e-05
2.66466e-05
2.89403e-05
3.11653e-05
3.32964e-05
3.52264e-05
3.68144e-05
3.80095e-05
3.88366e-05
3.93892e-05
3.97783e-05
4.00752e-05
4.02665e-05
4.04389e-05
1.03595e-05
1.03631e-05
1.03685e-05
1.03761e-05
1.03872e-05
1.04032e-05
1.04263e-05
1.04598e-05
1.0508e-05
1.05774e-05
1.06771e-05
1.08196e-05
1.10216e-05
1.13052e-05
1.16978e-05
1.22314e-05
1.29408e-05
1.38593e-05
1.50132e-05
1.64167e-05
1.80687e-05
1.9949e-05
2.20153e-05
2.42149e-05
2.64955e-05
2.87935e-05
3.10339e-05
3.31654e-05
3.51549e-05
3.68655e-05
3.82046e-05
3.91616e-05
3.98012e-05
4.02355e-05
4.05605e-05
4.0784e-05
4.09341e-05
4.10765e-05
4.12281e-05
4.13874e-05
4.15383e-05
1.03781e-05
1.03899e-05
1.04068e-05
1.04311e-05
1.0466e-05
1.05162e-05
1.0588e-05
1.06907e-05
1.08365e-05
1.10423e-05
1.13296e-05
1.17252e-05
1.22603e-05
1.29684e-05
1.38815e-05
1.5025e-05
1.64129e-05
1.80438e-05
1.98994e-05
2.19426e-05
2.41218e-05
2.63836e-05
2.86749e-05
3.09276e-05
3.30759e-05
3.50803e-05
3.68787e-05
3.83458e-05
3.9438e-05
4.01812e-05
4.06749e-05
4.10297e-05
4.12899e-05
4.14511e-05
4.15838e-05
4.1723e-05
4.18709e-05
4.20067e-05
4.21349e-05
4.22683e-05
4.24045e-05
4.25551e-05
1.0437e-05
1.04739e-05
1.05265e-05
1.06015e-05
1.07081e-05
1.08587e-05
1.10699e-05
1.13633e-05
1.17649e-05
1.23051e-05
1.30163e-05
1.39289e-05
1.50674e-05
1.6445e-05
1.80599e-05
1.98946e-05
2.19153e-05
2.40743e-05
2.63183e-05
2.85954e-05
3.08502e-05
3.30155e-05
3.50361e-05
3.6876e-05
3.84458e-05
3.96634e-05
4.05242e-05
4.10931e-05
4.14846e-05
4.17757e-05
4.1959e-05
4.20918e-05
4.22196e-05
4.23537e-05
4.24899e-05
4.26114e-05
4.27364e-05
4.28633e-05
4.29878e-05
4.31198e-05
4.32722e-05
4.34458e-05
4.36462e-05
1.07301e-05
1.08869e-05
1.11056e-05
1.14073e-05
1.1818e-05
1.23671e-05
1.30858e-05
1.40031e-05
1.51419e-05
1.65145e-05
1.81189e-05
1.99374e-05
2.19379e-05
2.40768e-05
2.63027e-05
2.85643e-05
3.0811e-05
3.29856e-05
3.50265e-05
3.68863e-05
3.85226e-05
3.98475e-05
4.0824e-05
4.14844e-05
4.19246e-05
4.22437e-05
4.24632e-05
4.2599e-05
4.27167e-05
4.28388e-05
4.29722e-05
4.30877e-05
4.32038e-05
4.33226e-05
4.34389e-05
4.35576e-05
4.36914e-05
4.38454e-05
4.40139e-05
4.41951e-05
4.43924e-05
4.46082e-05
4.48502e-05
1.14636e-05
1.18866e-05
1.24485e-05
1.3179e-05
1.41059e-05
1.52504e-05
1.66233e-05
1.82221e-05
2.00291e-05
2.20133e-05
2.4133e-05
2.63405e-05
2.85859e-05
3.08201e-05
3.29932e-05
3.50487e-05
3.69319e-05
3.85997e-05
4.00049e-05
4.10849e-05
4.18438e-05
4.23468e-05
4.26966e-05
4.29484e-05
4.31005e-05
4.32138e-05
4.33266e-05
4.34438e-05
4.35611e-05
4.36701e-05
4.37811e-05
4.38908e-05
4.39987e-05
4.41166e-05
4.42527e-05
4.44047e-05
4.45687e-05
4.47467e-05
4.49411e-05
4.51502e-05
4.53723e-05
4.56073e-05
4.58567e-05
4.61278e-05
1.32994e-05
1.42407e-05
1.53959e-05
1.67741e-05
1.83718e-05
2.01714e-05
2.21426e-05
2.42453e-05
2.64343e-05
2.86625e-05
3.08825e-05
3.30472e-05
3.51074e-05
3.70095e-05
3.8705e-05
4.01554e-05
4.13187e-05
4.21696e-05
4.27474e-05
4.31362e-05
4.34156e-05
4.35939e-05
4.371e-05
4.38139e-05
4.39186e-05
4.40334e-05
4.41351e-05
4.42385e-05
4.43425e-05
4.4442e-05
4.45462e-05
4.46653e-05
4.48011e-05
4.4949e-05
4.51093e-05
4.52849e-05
4.54756e-05
4.56794e-05
4.58956e-05
4.61242e-05
4.63643e-05
4.66148e-05
4.6875e-05
4.71455e-05
4.74316e-05
1.69713e-05
1.85721e-05
2.03677e-05
2.23283e-05
2.44157e-05
2.65865e-05
2.87962e-05
3.09998e-05
3.31527e-05
3.52092e-05
3.71214e-05
3.88401e-05
4.03232e-05
4.15408e-05
4.24698e-05
4.31219e-05
4.3561e-05
4.38673e-05
4.40774e-05
4.42025e-05
4.42996e-05
4.43966e-05
4.44995e-05
4.45988e-05
4.46943e-05
4.47918e-05
4.48855e-05
4.49788e-05
4.50828e-05
4.52027e-05
4.53353e-05
4.5479e-05
4.56365e-05
4.58091e-05
4.59951e-05
4.61933e-05
4.64038e-05
4.66261e-05
4.68591e-05
4.71018e-05
4.73534e-05
4.76126e-05
4.78786e-05
4.81502e-05
4.84279e-05
4.87145e-05
2.06235e-05
2.25754e-05
2.4648e-05
2.68002e-05
2.89898e-05
3.11742e-05
3.33115e-05
3.5359e-05
3.72723e-05
3.90055e-05
4.05161e-05
4.17716e-05
4.27567e-05
4.3475e-05
4.39678e-05
4.43061e-05
4.45435e-05
4.46854e-05
4.47845e-05
4.48738e-05
4.49622e-05
4.50601e-05
4.51486e-05
4.52388e-05
4.53285e-05
4.5413e-05
4.5504e-05
4.56086e-05
4.57266e-05
4.58551e-05
4.59957e-05
4.61506e-05
4.63192e-05
4.64999e-05
4.66924e-05
4.6897e-05
4.71126e-05
4.73383e-05
4.75732e-05
4.78165e-05
4.80672e-05
4.83239e-05
4.85857e-05
4.8851e-05
4.91189e-05
4.93881e-05
4.96589e-05
4.99318e-05
2.92483e-05
3.14101e-05
3.3527e-05
3.55595e-05
3.74664e-05
3.92051e-05
4.0734e-05
4.20203e-05
4.30464e-05
4.38158e-05
4.43581e-05
4.47312e-05
4.49939e-05
4.51635e-05
4.52661e-05
4.53484e-05
4.54293e-05
4.55191e-05
4.56014e-05
4.56837e-05
4.57682e-05
4.58473e-05
4.59275e-05
4.60182e-05
4.6122e-05
4.62364e-05
4.63615e-05
4.64995e-05
4.66511e-05
4.68148e-05
4.69901e-05
4.71771e-05
4.73754e-05
4.7584e-05
4.78022e-05
4.80292e-05
4.82642e-05
4.85061e-05
4.87538e-05
4.90061e-05
4.92619e-05
4.95199e-05
4.97787e-05
5.00369e-05
5.02935e-05
5.0547e-05
5.07975e-05
5.10436e-05
3.38054e-05
3.58164e-05
3.77091e-05
3.94436e-05
4.09807e-05
4.22878e-05
4.3346e-05
4.41554e-05
4.47391e-05
4.5145e-05
4.54304e-05
4.56268e-05
4.57404e-05
4.58213e-05
4.58955e-05
4.59699e-05
4.6052e-05
4.61275e-05
4.62045e-05
4.62803e-05
4.63519e-05
4.64307e-05
4.65209e-05
4.6622e-05
4.67328e-05
4.6855e-05
4.69903e-05
4.71378e-05
4.72964e-05
4.74663e-05
4.76475e-05
4.78392e-05
4.80407e-05
4.82513e-05
4.84703e-05
4.86968e-05
4.89299e-05
4.91685e-05
4.94115e-05
4.96577e-05
4.99059e-05
5.01549e-05
5.04032e-05
5.06497e-05
5.08929e-05
5.11315e-05
5.13643e-05
5.15898e-05
5.18081e-05
5.20161e-05
4.12631e-05
4.258e-05
4.36593e-05
4.44989e-05
4.51168e-05
4.55521e-05
4.58576e-05
4.60741e-05
4.62074e-05
4.6291e-05
4.63588e-05
4.64242e-05
4.64997e-05
4.65691e-05
4.66386e-05
4.67108e-05
4.67764e-05
4.68447e-05
4.69227e-05
4.7011e-05
4.71086e-05
4.72164e-05
4.73362e-05
4.74679e-05
4.76106e-05
4.77642e-05
4.79288e-05
4.81039e-05
4.82889e-05
4.84831e-05
4.86861e-05
4.8897e-05
4.9115e-05
4.93392e-05
4.95686e-05
4.98022e-05
5.00389e-05
5.02774e-05
5.05166e-05
5.07552e-05
5.09919e-05
5.12254e-05
5.14544e-05
5.16775e-05
5.18935e-05
5.2101e-05
5.2299e-05
5.2486e-05
5.2662e-05
5.28227e-05
4.54959e-05
4.59561e-05
4.62801e-05
4.6511e-05
4.66649e-05
4.67544e-05
4.68192e-05
4.68785e-05
4.6941e-05
4.70086e-05
4.70712e-05
4.7136e-05
4.71991e-05
4.72592e-05
4.73263e-05
4.74027e-05
4.74882e-05
4.75827e-05
4.7688e-05
4.78047e-05
4.79322e-05
4.80702e-05
4.82187e-05
4.83777e-05
4.85465e-05
4.87247e-05
4.89117e-05
4.91069e-05
4.93097e-05
4.95192e-05
4.97345e-05
4.99548e-05
5.01791e-05
5.04062e-05
5.0635e-05
5.08645e-05
5.10934e-05
5.13205e-05
5.15444e-05
5.17639e-05
5.19778e-05
5.21847e-05
5.23835e-05
5.25727e-05
5.27514e-05
5.29183e-05
5.30726e-05
5.32127e-05
5.33388e-05
5.34456e-05
4.71102e-05
4.72089e-05
4.72756e-05
4.73292e-05
4.7381e-05
4.74445e-05
4.75014e-05
4.75584e-05
4.76189e-05
4.76729e-05
4.77304e-05
4.77962e-05
4.78702e-05
4.79527e-05
4.80448e-05
4.81473e-05
4.82604e-05
4.83836e-05
4.85169e-05
4.86603e-05
4.88134e-05
4.89758e-05
4.91471e-05
4.93268e-05
4.95143e-05
4.97089e-05
4.99098e-05
5.01164e-05
5.03276e-05
5.05425e-05
5.07602e-05
5.09795e-05
5.11994e-05
5.14187e-05
5.16362e-05
5.18506e-05
5.20609e-05
5.22656e-05
5.24637e-05
5.26538e-05
5.28348e-05
5.30055e-05
5.31649e-05
5.33118e-05
5.34453e-05
5.35645e-05
5.36684e-05
5.37557e-05
5.38265e-05
5.38751e-05
4.78214e-05
4.78755e-05
4.79287e-05
4.79788e-05
4.80329e-05
4.80846e-05
4.81342e-05
4.81902e-05
4.82537e-05
4.83252e-05
4.84053e-05
4.84948e-05
4.85943e-05
4.87036e-05
4.88225e-05
4.8951e-05
4.90891e-05
4.92362e-05
4.93922e-05
4.95566e-05
4.97289e-05
4.99086e-05
5.00951e-05
5.02875e-05
5.04853e-05
5.06875e-05
5.08933e-05
5.11016e-05
5.13115e-05
5.15219e-05
5.17316e-05
5.19397e-05
5.21449e-05
5.23459e-05
5.25417e-05
5.27311e-05
5.29127e-05
5.30856e-05
5.32487e-05
5.34007e-05
5.35407e-05
5.36678e-05
5.3781e-05
5.38794e-05
5.3962e-05
5.40282e-05
5.40776e-05
5.41078e-05
5.41171e-05
5.41049e-05
4.84425e-05
4.84926e-05
4.85368e-05
4.85839e-05
4.86383e-05
4.86994e-05
4.87684e-05
4.88461e-05
4.89328e-05
4.9029e-05
4.91344e-05
4.92489e-05
4.93727e-05
4.95053e-05
4.96465e-05
4.97961e-05
4.99536e-05
5.01185e-05
5.02905e-05
5.04688e-05
5.06528e-05
5.08419e-05
5.10352e-05
5.12318e-05
5.14309e-05
5.16314e-05
5.18325e-05
5.20329e-05
5.22317e-05
5.24277e-05
5.26198e-05
5.28068e-05
5.29877e-05
5.31611e-05
5.33261e-05
5.34817e-05
5.36266e-05
5.376e-05
5.38809e-05
5.39884e-05
5.40817e-05
5.41596e-05
5.42216e-05
5.42674e-05
5.42949e-05
5.43018e-05
5.42926e-05
5.42625e-05
5.42138e-05
5.41432e-05
4.90225e-05
4.90744e-05
4.91334e-05
4.92001e-05
4.92752e-05
4.9359e-05
4.94518e-05
4.95533e-05
4.96634e-05
4.97822e-05
4.99094e-05
5.00447e-05
5.01878e-05
5.03384e-05
5.04961e-05
5.06603e-05
5.08306e-05
5.10063e-05
5.11867e-05
5.13711e-05
5.15587e-05
5.17487e-05
5.194e-05
5.21319e-05
5.23232e-05
5.25129e-05
5.26999e-05
5.28832e-05
5.30616e-05
5.32341e-05
5.33996e-05
5.3557e-05
5.37052e-05
5.38433e-05
5.39703e-05
5.40853e-05
5.41875e-05
5.42758e-05
5.43493e-05
5.44075e-05
5.445e-05
5.44743e-05
5.44791e-05
5.44685e-05
5.44381e-05
5.43904e-05
5.43259e-05
5.4246e-05
5.41484e-05
5.40253e-05
4.96205e-05
4.96929e-05
4.97738e-05
4.9863e-05
4.99604e-05
5.00661e-05
5.018e-05
5.03017e-05
5.0431e-05
5.05678e-05
5.07116e-05
5.0862e-05
5.10187e-05
5.1181e-05
5.13484e-05
5.15203e-05
5.1696e-05
5.18747e-05
5.20556e-05
5.22379e-05
5.24207e-05
5.26029e-05
5.27837e-05
5.29619e-05
5.31366e-05
5.33067e-05
5.34711e-05
5.36287e-05
5.37787e-05
5.39199e-05
5.40515e-05
5.41724e-05
5.42817e-05
5.43787e-05
5.44624e-05
5.45318e-05
5.45865e-05
5.4626e-05
5.46474e-05
5.46505e-05
5.46386e-05
5.4608e-05
5.45605e-05
5.44967e-05
5.44185e-05
5.43229e-05
5.4208e-05
5.40712e-05
5.39129e-05
5.37276e-05
5.02629e-05
5.03563e-05
5.04575e-05
5.05663e-05
5.06825e-05
5.0806e-05
5.09364e-05
5.10735e-05
5.12168e-05
5.13659e-05
5.15204e-05
5.16797e-05
5.18432e-05
5.20103e-05
5.21803e-05
5.23524e-05
5.25257e-05
5.26995e-05
5.28729e-05
5.30449e-05
5.32144e-05
5.33807e-05
5.35425e-05
5.3699e-05
5.38492e-05
5.39919e-05
5.41264e-05
5.42516e-05
5.43666e-05
5.44706e-05
5.45627e-05
5.4642e-05
5.47076e-05
5.47592e-05
5.47959e-05
5.48149e-05
5.48165e-05
5.48038e-05
5.47733e-05
5.47263e-05
5.4663e-05
5.45859e-05
5.44919e-05
5.43793e-05
5.4246e-05
5.40918e-05
5.39172e-05
5.37206e-05
5.35028e-05
5.32576e-05
5.09416e-05
5.10524e-05
5.117e-05
5.12941e-05
5.14245e-05
5.15607e-05
5.17025e-05
5.18493e-05
5.20006e-05
5.21559e-05
5.23146e-05
5.2476e-05
5.26394e-05
5.2804e-05
5.2969e-05
5.31337e-05
5.3297e-05
5.34581e-05
5.3616e-05
5.37699e-05
5.39186e-05
5.40614e-05
5.41972e-05
5.43251e-05
5.44441e-05
5.45535e-05
5.46524e-05
5.47399e-05
5.48151e-05
5.48772e-05
5.49259e-05
5.496e-05
5.49769e-05
5.49776e-05
5.49644e-05
5.49345e-05
5.48881e-05
5.48257e-05
5.47498e-05
5.46578e-05
5.45476e-05
5.44171e-05
5.42667e-05
5.40965e-05
5.39055e-05
5.3694e-05
5.34619e-05
5.32083e-05
5.29342e-05
5.26329e-05
5.16413e-05
5.17651e-05
5.18944e-05
5.20289e-05
5.21681e-05
5.23116e-05
5.24588e-05
5.26093e-05
5.27623e-05
5.29172e-05
5.30732e-05
5.32297e-05
5.33858e-05
5.35406e-05
5.36934e-05
5.38433e-05
5.39892e-05
5.41305e-05
5.4266e-05
5.4395e-05
5.45165e-05
5.46296e-05
5.47336e-05
5.48276e-05
5.49107e-05
5.4982e-05
5.50409e-05
5.50869e-05
5.51186e-05
5.51339e-05
5.51339e-05
5.51208e-05
5.50917e-05
5.50461e-05
5.49849e-05
5.49106e-05
5.48208e-05
5.47134e-05
5.45861e-05
5.44397e-05
5.4274e-05
5.40881e-05
5.38825e-05
5.36571e-05
5.34116e-05
5.31457e-05
5.28603e-05
5.25526e-05
5.22259e-05
5.18721e-05
5.23454e-05
5.24772e-05
5.2613e-05
5.27524e-05
5.28948e-05
5.30395e-05
5.31861e-05
5.33338e-05
5.34819e-05
5.36297e-05
5.37763e-05
5.3921e-05
5.40629e-05
5.42012e-05
5.4335e-05
5.44635e-05
5.45858e-05
5.47011e-05
5.48085e-05
5.49072e-05
5.49965e-05
5.50754e-05
5.51431e-05
5.51989e-05
5.52425e-05
5.52721e-05
5.5286e-05
5.52857e-05
5.52732e-05
5.52449e-05
5.52003e-05
5.51404e-05
5.50681e-05
5.4981e-05
5.48767e-05
5.47532e-05
5.46112e-05
5.44504e-05
5.427e-05
5.40705e-05
5.38517e-05
5.36134e-05
5.33556e-05
5.30787e-05
5.27821e-05
5.24658e-05
5.21304e-05
5.17733e-05
5.13984e-05
5.09963e-05
5.3037e-05
5.31715e-05
5.33083e-05
5.34467e-05
5.35863e-05
5.37262e-05
5.38658e-05
5.40044e-05
5.41412e-05
5.42754e-05
5.44062e-05
5.45328e-05
5.46544e-05
5.47703e-05
5.48795e-05
5.49813e-05
5.50749e-05
5.51595e-05
5.52344e-05
5.52986e-05
5.53516e-05
5.53929e-05
5.54206e-05
5.54335e-05
5.5433e-05
5.54214e-05
5.5394e-05
5.53507e-05
5.52924e-05
5.52224e-05
5.51382e-05
5.50374e-05
5.4918e-05
5.47808e-05
5.46254e-05
5.4451e-05
5.4258e-05
5.40462e-05
5.38155e-05
5.35658e-05
5.32975e-05
5.30101e-05
5.27039e-05
5.23789e-05
5.20352e-05
5.16725e-05
5.12917e-05
5.08901e-05
5.0472e-05
5.00282e-05
5.36994e-05
5.38309e-05
5.39629e-05
5.40946e-05
5.42253e-05
5.43544e-05
5.44811e-05
5.46046e-05
5.47243e-05
5.48392e-05
5.49487e-05
5.5052e-05
5.51484e-05
5.5237e-05
5.53172e-05
5.53881e-05
5.5449e-05
5.54993e-05
5.55383e-05
5.55643e-05
5.55764e-05
5.5576e-05
5.55654e-05
5.55392e-05
5.54973e-05
5.54407e-05
5.53733e-05
5.52923e-05
5.51952e-05
5.50803e-05
5.49483e-05
5.47985e-05
5.46304e-05
5.44443e-05
5.42401e-05
5.40173e-05
5.37763e-05
5.3517e-05
5.32391e-05
5.29429e-05
5.26284e-05
5.22957e-05
5.19449e-05
5.15762e-05
5.11899e-05
5.07856e-05
5.03644e-05
4.99239e-05
4.94682e-05
4.89892e-05
5.43164e-05
5.44395e-05
5.45611e-05
5.46805e-05
5.47969e-05
5.49098e-05
5.50182e-05
5.51216e-05
5.52191e-05
5.53102e-05
5.53939e-05
5.54698e-05
5.55369e-05
5.55945e-05
5.56422e-05
5.56791e-05
5.57034e-05
5.5715e-05
5.57148e-05
5.57053e-05
5.56803e-05
5.56399e-05
5.55853e-05
5.55206e-05
5.5443e-05
5.53499e-05
5.52398e-05
5.51131e-05
5.49693e-05
5.48079e-05
5.4629e-05
5.44326e-05
5.42183e-05
5.39861e-05
5.37363e-05
5.34684e-05
5.31826e-05
5.28791e-05
5.25577e-05
5.22187e-05
5.18623e-05
5.14885e-05
5.10978e-05
5.06902e-05
5.02663e-05
4.98259e-05
4.93699e-05
4.88966e-05
4.84096e-05
4.79021e-05
5.47617e-05
5.48739e-05
5.49835e-05
5.50897e-05
5.51918e-05
5.52892e-05
5.53812e-05
5.5467e-05
5.55461e-05
5.56177e-05
5.5681e-05
5.57356e-05
5.57807e-05
5.58153e-05
5.58383e-05
5.58494e-05
5.58497e-05
5.58411e-05
5.58173e-05
5.57786e-05
5.57262e-05
5.56643e-05
5.55902e-05
5.55013e-05
5.5396e-05
5.52749e-05
5.51373e-05
5.49827e-05
5.48114e-05
5.4623e-05
5.44174e-05
5.41945e-05
5.39545e-05
5.36969e-05
5.3422e-05
5.31297e-05
5.28201e-05
5.24934e-05
5.21495e-05
5.17888e-05
5.14114e-05
5.10176e-05
5.06078e-05
5.01822e-05
4.97412e-05
4.92853e-05
4.88147e-05
4.83301e-05
4.78305e-05
4.7319e-05
4.67902e-05
5.52643e-05
5.53603e-05
5.54519e-05
5.55384e-05
5.56192e-05
5.56937e-05
5.57612e-05
5.58209e-05
5.58724e-05
5.5915e-05
5.59475e-05
5.59692e-05
5.59798e-05
5.59808e-05
5.59729e-05
5.59504e-05
5.59134e-05
5.58633e-05
5.58043e-05
5.57337e-05
5.5649e-05
5.55488e-05
5.54333e-05
5.53022e-05
5.51546e-05
5.49909e-05
5.48108e-05
5.46141e-05
5.44006e-05
5.41706e-05
5.39237e-05
5.36599e-05
5.33793e-05
5.30818e-05
5.27676e-05
5.24367e-05
5.20893e-05
5.17257e-05
5.1346e-05
5.09505e-05
5.05396e-05
5.01136e-05
4.9673e-05
4.92182e-05
4.87496e-05
4.82679e-05
4.77735e-05
4.72671e-05
4.67481e-05
4.62193e-05
4.56768e-05
5.561e-05
5.56912e-05
5.57671e-05
5.58371e-05
5.59006e-05
5.59568e-05
5.60053e-05
5.60455e-05
5.60759e-05
5.60963e-05
5.61066e-05
5.61081e-05
5.61008e-05
5.60797e-05
5.60443e-05
5.59967e-05
5.59404e-05
5.58734e-05
5.5793e-05
5.5698e-05
5.55882e-05
5.54634e-05
5.53229e-05
5.5167e-05
5.49953e-05
5.48075e-05
5.46037e-05
5.43839e-05
5.41477e-05
5.38952e-05
5.36265e-05
5.33413e-05
5.304e-05
5.27224e-05
5.23887e-05
5.20392e-05
5.16739e-05
5.12932e-05
5.08973e-05
5.04866e-05
5.00615e-05
4.96224e-05
4.91697e-05
4.87041e-05
4.8226e-05
4.77362e-05
4.72352e-05
4.67237e-05
4.62025e-05
4.56714e-05
4.51331e-05
4.45845e-05
5.59766e-05
5.60361e-05
5.60888e-05
5.61345e-05
5.61722e-05
5.62006e-05
5.62198e-05
5.62297e-05
5.62316e-05
5.62248e-05
5.62051e-05
5.61715e-05
5.61264e-05
5.60728e-05
5.60093e-05
5.59332e-05
5.58432e-05
5.57392e-05
5.56208e-05
5.54875e-05
5.53393e-05
5.5176e-05
5.49973e-05
5.48031e-05
5.45936e-05
5.43682e-05
5.41271e-05
5.38703e-05
5.35977e-05
5.33093e-05
5.30052e-05
5.26854e-05
5.23502e-05
5.19997e-05
5.1634e-05
5.12535e-05
5.08584e-05
5.04491e-05
5.0026e-05
4.95896e-05
4.91402e-05
4.86786e-05
4.82052e-05
4.77207e-05
4.72258e-05
4.67212e-05
4.62078e-05
4.56862e-05
4.51575e-05
4.46217e-05
4.40815e-05
4.35348e-05
5.62601e-05
5.62954e-05
5.63218e-05
5.63399e-05
5.63495e-05
5.63517e-05
5.63453e-05
5.63269e-05
5.62951e-05
5.62524e-05
5.62014e-05
5.61414e-05
5.60695e-05
5.59846e-05
5.58861e-05
5.57742e-05
5.56479e-05
5.55074e-05
5.53524e-05
5.51828e-05
5.49982e-05
5.47989e-05
5.45844e-05
5.43548e-05
5.41099e-05
5.38498e-05
5.35745e-05
5.32839e-05
5.29782e-05
5.26574e-05
5.23217e-05
5.19713e-05
5.16063e-05
5.12271e-05
5.0834e-05
5.04272e-05
5.00073e-05
4.95745e-05
4.91296e-05
4.86729e-05
4.82051e-05
4.77268e-05
4.72388e-05
4.67418e-05
4.62366e-05
4.57241e-05
4.52052e-05
4.46807e-05
4.41518e-05
4.36188e-05
4.30843e-05
4.25471e-05
5.64568e-05
5.64661e-05
5.64684e-05
5.64624e-05
5.64453e-05
5.64152e-05
5.63749e-05
5.63263e-05
5.62697e-05
5.62019e-05
5.61219e-05
5.6029e-05
5.59233e-05
5.58039e-05
5.5671e-05
5.55243e-05
5.53636e-05
5.51886e-05
5.49994e-05
5.47957e-05
5.45774e-05
5.43445e-05
5.40969e-05
5.38345e-05
5.35575e-05
5.32658e-05
5.29595e-05
5.26387e-05
5.23036e-05
5.19543e-05
5.15911e-05
5.12143e-05
5.08241e-05
5.04208e-05
5.0005e-05
4.9577e-05
4.91373e-05
4.86865e-05
4.82252e-05
4.7754e-05
4.72736e-05
4.67849e-05
4.62885e-05
4.57855e-05
4.52766e-05
4.4763e-05
4.42455e-05
4.37252e-05
4.32033e-05
4.26804e-05
4.21594e-05
4.16391e-05
5.65763e-05
5.65602e-05
5.65319e-05
5.6494e-05
5.64476e-05
5.63942e-05
5.63304e-05
5.62552e-05
5.61676e-05
5.6068e-05
5.59554e-05
5.58299e-05
5.56913e-05
5.55393e-05
5.53737e-05
5.51945e-05
5.50015e-05
5.47944e-05
5.45733e-05
5.43381e-05
5.40887e-05
5.38251e-05
5.35473e-05
5.32555e-05
5.29495e-05
5.26297e-05
5.22961e-05
5.19489e-05
5.15884e-05
5.12148e-05
5.08284e-05
5.04296e-05
5.00188e-05
4.95964e-05
4.91628e-05
4.87187e-05
4.82647e-05
4.78013e-05
4.73293e-05
4.68495e-05
4.63626e-05
4.58695e-05
4.53711e-05
4.48684e-05
4.43624e-05
4.38542e-05
4.3345e-05
4.28358e-05
4.2328e-05
4.18224e-05
4.1322e-05
4.08257e-05
5.66096e-05
5.65655e-05
5.65151e-05
5.64551e-05
5.63845e-05
5.6302e-05
5.62083e-05
5.61023e-05
5.5984e-05
5.58533e-05
5.57098e-05
5.55534e-05
5.53839e-05
5.52014e-05
5.50054e-05
5.47959e-05
5.45729e-05
5.43362e-05
5.40859e-05
5.3822e-05
5.35444e-05
5.32532e-05
5.29486e-05
5.26306e-05
5.22994e-05
5.19551e-05
5.15981e-05
5.12286e-05
5.08468e-05
5.04532e-05
5.00482e-05
4.96321e-05
4.92054e-05
4.87688e-05
4.83227e-05
4.78677e-05
4.74047e-05
4.69343e-05
4.64573e-05
4.59746e-05
4.54871e-05
4.49957e-05
4.45014e-05
4.40054e-05
4.35086e-05
4.30124e-05
4.25179e-05
4.20264e-05
4.15394e-05
4.10579e-05
4.05846e-05
4.01189e-05
5.6576e-05
5.65097e-05
5.64323e-05
5.63441e-05
5.62445e-05
5.61332e-05
5.60101e-05
5.58749e-05
5.57274e-05
5.55675e-05
5.53951e-05
5.52099e-05
5.50118e-05
5.48007e-05
5.45766e-05
5.43394e-05
5.4089e-05
5.38255e-05
5.35489e-05
5.32593e-05
5.29567e-05
5.26413e-05
5.23133e-05
5.19727e-05
5.162e-05
5.12553e-05
5.08789e-05
5.04912e-05
5.00925e-05
4.96834e-05
4.92643e-05
4.88356e-05
4.8398e-05
4.79521e-05
4.74986e-05
4.70381e-05
4.65715e-05
4.60995e-05
4.56231e-05
4.51432e-05
4.46608e-05
4.41769e-05
4.36927e-05
4.32093e-05
4.27279e-05
4.22497e-05
4.17762e-05
4.13085e-05
4.08483e-05
4.03967e-05
3.99557e-05
3.9525e-05
5.63821e-05
5.62774e-05
5.61617e-05
5.60345e-05
5.58957e-05
5.5745e-05
5.55824e-05
5.54077e-05
5.52207e-05
5.50213e-05
5.48094e-05
5.45849e-05
5.43479e-05
5.40982e-05
5.3836e-05
5.35611e-05
5.32737e-05
5.2974e-05
5.26619e-05
5.23377e-05
5.20015e-05
5.16537e-05
5.12944e-05
5.0924e-05
5.05428e-05
5.01512e-05
4.97496e-05
4.93385e-05
4.89183e-05
4.84897e-05
4.80533e-05
4.76096e-05
4.71594e-05
4.67035e-05
4.62426e-05
4.57776e-05
4.53094e-05
4.48389e-05
4.43673e-05
4.38955e-05
4.34247e-05
4.29561e-05
4.24909e-05
4.20304e-05
4.15759e-05
4.11288e-05
4.06903e-05
4.02616e-05
3.9843e-05
3.94348e-05
3.90349e-05
5.61885e-05
5.6058e-05
5.59163e-05
5.57632e-05
5.55986e-05
5.54223e-05
5.52343e-05
5.50343e-05
5.48223e-05
5.45982e-05
5.43621e-05
5.41138e-05
5.38534e-05
5.3581e-05
5.32965e-05
5.30002e-05
5.26921e-05
5.23724e-05
5.20412e-05
5.16989e-05
5.13456e-05
5.09817e-05
5.06076e-05
5.02234e-05
4.98298e-05
4.94272e-05
4.90159e-05
4.85967e-05
4.817e-05
4.77365e-05
4.72969e-05
4.68519e-05
4.64022e-05
4.59488e-05
4.54924e-05
4.50339e-05
4.45745e-05
4.41151e-05
4.36568e-05
4.32007e-05
4.27482e-05
4.23003e-05
4.18585e-05
4.14239e-05
4.09978e-05
4.05813e-05
4.01744e-05
3.97772e-05
3.93865e-05
3.89929e-05
3.85962e-05
5.59374e-05
5.57826e-05
5.56167e-05
5.54396e-05
5.52511e-05
5.50512e-05
5.48397e-05
5.46167e-05
5.43821e-05
5.41358e-05
5.38779e-05
5.36085e-05
5.33276e-05
5.30353e-05
5.27317e-05
5.2417e-05
5.20914e-05
5.1755e-05
5.14083e-05
5.10514e-05
5.06846e-05
5.03084e-05