/*--------------------------------*- C++ -*----------------------------------*\
| =========                 |                                                 |
| \\      /  F ield         | OpenFOAM: The Open Source CFD Toolbox           |
|  \\    /   O peration     | Version:  v1706                                 |
|   \\  /    A nd           | Web:      www.OpenFOAM.com                      |
|    \\/     M anipulation  |                                                 |
\*---------------------------------------------------------------------------*/
FoamFile
{
    version     2.0;
    format      ascii;
    class       volScalarField;
    location    "3e-06";
    object      p;
}
// * * * * * * * * * * * * * * * * * * * * * * * * * * * * * * * * * * * * * //

dimensions      [1 -1 -2 0 0 0 0];


internalField   nonuniform List<scalar> 
30038
(
21.9139
21.9139
21.9139
21.9139
21.9139
21.9139
21.9139
21.9139
21.9139
21.9139
21.9139
21.9139
21.9139
21.9139
21.9139
21.9139
21.9139
21.9139
21.9139
21.9139
21.9139
21.9139
21.9139
21.9139
21.9139
21.9139
21.9139
21.9139
21.9139
21.9139
21.9139
21.9139
21.9139
21.9139
21.9139
21.9139
21.9139
21.9139
21.9139
21.9139
21.9139
21.9139
21.9139
21.9139
21.9139
21.9139
21.9139
21.9139
21.9139
21.9139
21.9139
21.9139
21.9139
21.9139
21.9139
21.9139
21.9139
21.9139
21.9139
21.9139
21.9139
21.9139
21.9139
21.9139
21.9139
21.9139
21.9139
21.9139
21.9139
21.9139
21.9139
21.9139
21.9139
21.9139
21.9139
21.9139
21.9139
21.9139
21.9139
21.9139
21.9139
21.9139
21.9139
21.9139
21.9139
21.9139
21.9139
21.9139
21.9139
21.9139
21.9139
21.9139
21.9139
21.9139
21.9139
21.9139
21.9139
21.9139
21.9139
21.9139
21.9139
21.9139
21.9139
21.9139
21.9139
21.9139
21.9139
21.9139
21.9139
21.9139
21.9139
21.9139
21.9139
21.9139
21.9139
21.9139
21.9139
21.9139
21.9139
21.9139
21.9139
21.9139
21.9139
21.9139
21.9139
21.9139
21.9139
21.9139
21.9139
21.9139
21.9139
21.9139
21.9139
21.9139
21.9139
21.9139
21.9139
21.9139
21.9139
21.9139
21.9139
21.9139
21.9139
21.9139
21.9139
21.9139
21.9139
21.9139
21.9139
21.9139
21.9139
21.9139
21.9139
21.9139
21.9139
21.9139
21.9139
21.9139
21.9139
21.9139
21.9139
21.9139
21.9139
21.9139
21.9139
21.9139
21.9139
21.9139
21.9139
21.9139
21.9139
21.9139
21.9139
21.9139
21.9139
21.9139
21.9139
21.9139
21.9139
21.9139
21.9139
21.9139
21.9139
21.9139
21.9139
21.9139
21.9139
21.9139
21.9139
21.9139
21.9139
21.9139
21.9139
21.9139
21.9139
21.9139
21.9139
21.9139
21.9139
21.9139
21.9139
21.9139
21.9139
21.9139
21.9139
21.9139
21.9139
21.9139
21.9139
21.9139
21.9139
21.9139
21.9139
21.9139
21.9139
21.9139
21.9139
21.9139
21.9139
21.9139
21.9139
21.9139
21.9139
21.9139
21.9139
21.9139
21.9139
21.9139
21.9139
21.9139
21.9139
21.9139
21.9139
21.9139
21.9139
21.9139
21.9139
21.9139
21.9139
21.9139
21.9139
21.9139
21.9139
21.9139
21.9139
21.9139
21.9139
21.9139
21.9139
21.9139
21.9139
21.9139
21.9139
21.9139
21.9139
21.9139
21.9139
21.9139
21.9139
21.9139
21.9139
21.9139
21.9139
21.914
21.914
21.914
21.9139
21.9139
21.9139
21.9139
21.9139
21.9139
21.9139
21.9139
21.9139
21.9139
21.9139
21.9139
21.9139
21.9139
21.9139
21.9139
21.9139
21.9139
21.9139
21.9139
21.9139
21.9139
21.9139
21.9139
21.9139
21.9139
21.9139
21.9139
21.9139
21.9139
21.9139
21.914
21.914
21.914
21.9141
21.9142
21.9143
21.9146
21.9139
21.9139
21.9139
21.9139
21.9139
21.9139
21.9139
21.9139
21.9139
21.9139
21.9139
21.9139
21.9139
21.9139
21.9139
21.9139
21.9139
21.9139
21.9139
21.9139
21.9139
21.9139
21.9139
21.9139
21.9139
21.9139
21.9139
21.9139
21.914
21.914
21.914
21.9141
21.9142
21.9144
21.9146
21.9149
21.9154
21.9162
21.9176
21.9139
21.9139
21.9139
21.9139
21.9139
21.9139
21.9139
21.9139
21.9139
21.9139
21.9139
21.9139
21.9139
21.9139
21.9139
21.9139
21.9139
21.9139
21.9139
21.9139
21.9139
21.9139
21.9139
21.9139
21.914
21.914
21.914
21.9141
21.9142
21.9144
21.9146
21.915
21.9155
21.9162
21.9174
21.9192
21.9218
21.9258
21.933
21.9139
21.9139
21.9139
21.9139
21.9139
21.9139
21.9139
21.9139
21.9139
21.9139
21.9139
21.9139
21.9139
21.9139
21.9139
21.9139
21.9139
21.9139
21.9139
21.9139
21.914
21.914
21.9141
21.9141
21.9142
21.9144
21.9146
21.915
21.9155
21.9163
21.9175
21.9192
21.9219
21.9258
21.9317
21.9406
21.9539
21.9743
22.0101
21.9139
21.9139
21.9139
21.9139
21.9139
21.9139
21.9139
21.9139
21.9139
21.9139
21.9139
21.9139
21.9139
21.9139
21.9139
21.9139
21.914
21.914
21.914
21.9141
21.9141
21.9143
21.9144
21.9147
21.915
21.9156
21.9164
21.9176
21.9194
21.922
21.926
21.9319
21.9407
21.954
21.9737
22.0033
22.0477
22.1141
22.2153
22.3897
21.9139
21.9139
21.9139
21.9139
21.9139
21.9139
21.9139
21.9139
21.9139
21.9139
21.9139
21.9139
21.914
21.914
21.914
21.9141
21.9142
21.9143
21.9145
21.9147
21.9151
21.9157
21.9165
21.9177
21.9195
21.9223
21.9263
21.9322
21.9411
21.9543
21.9741
22.0034
22.0473
22.1126
22.21
22.3554
22.5725
22.8959
23.3825
24.1859
21.9139
21.9139
21.9139
21.9139
21.9139
21.9139
21.9139
21.9139
21.914
21.914
21.914
21.9141
21.9142
21.9143
21.9145
21.9148
21.9152
21.9158
21.9166
21.9179
21.9198
21.9225
21.9266
21.9327
21.9417
21.955
21.9748
22.0042
22.0477
22.1125
22.2087
22.3517
22.564
22.879
23.3444
24.0282
25.0263
26.468
28.5485
31.7264
21.9139
21.9139
21.9139
21.9139
21.914
21.914
21.914
21.9141
21.9142
21.9143
21.9145
21.9148
21.9152
21.9159
21.9168
21.9181
21.9201
21.9229
21.9271
21.9334
21.9425
21.9561
21.976
22.0056
22.0492
22.1138
22.2094
22.3508
22.5601
22.8691
23.324
23.9902
24.9585
26.3527
28.3352
31.1128
34.9533
40.1684
47.1651
56.8621
21.914
21.914
21.9141
21.9141
21.9142
21.9144
21.9146
21.9149
21.9154
21.916
21.917
21.9184
21.9204
21.9234
21.9278
21.9342
21.9436
21.9575
21.9778
22.0078
22.0518
22.1167
22.2123
22.3532
22.5607
22.8658
23.3132
23.966
24.9113
26.268
28.1922
30.8819
34.5829
39.5947
46.2523
54.8939
65.8485
79.498
96.2325
119.288
21.9143
21.9144
21.9147
21.915
21.9155
21.9162
21.9172
21.9187
21.9209
21.924
21.9286
21.9353
21.945
21.9593
21.9802
22.0108
22.0556
22.1214
22.2178
22.3592
22.5664
22.8699
23.3128
23.9563
24.8849
26.2125
28.0895
30.7061
34.2948
39.1363
45.5553
53.8861
64.4443
77.5617
93.6963
113.532
138.773
173.564
219.578
282.272
21.9156
21.9164
21.9175
21.9191
21.9214
21.9247
21.9296
21.9366
21.9468
21.9617
21.9833
22.0148
22.0608
22.1279
22.2259
22.369
22.5777
22.8817
23.3235
23.9624
24.8805
26.1879
28.0292
30.5878
34.0861
38.7875
44.9994
53.0511
63.255
75.9182
91.4667
110.522
134.177
165.179
207.672
262.183
325.709
390.945
449.536
502.517
21.9196
21.9221
21.9256
21.9308
21.9382
21.949
21.9646
21.9872
22.02
22.0676
22.1367
22.2371
22.3831
22.5949
22.9021
23.3462
23.9855
24.8998
26.196
28.0139
30.5301
33.9587
38.5496
44.5905
52.3986
62.2852
74.5473
89.5564
107.906
130.464
158.942
197.124
247.782
309.438
376.57
440.302
495.892
542.859
576.585
590.169
596.71
21.9402
21.9517
21.9682
21.9921
22.0265
22.0762
22.148
22.2518
22.402
22.619
22.932
23.3822
24.0269
24.9445
26.2392
28.0466
30.5368
33.9164
38.4248
44.3324
51.9371
61.5454
73.451
87.9913
105.69
127.35
154.208
188.754
235.026
293.512
360.53
428.175
488.941
540.984
582.113
603.829
611.709
616.181
619.725
623.123
623.416
21.9981
22.0345
22.0869
22.1622
22.2706
22.4265
22.6506
22.9723
23.4326
24.0884
25.0168
26.32
28.1301
30.612
33.9643
38.4175
44.2283
51.675
61.0492
72.6425
86.7737
103.901
124.76
150.415
182.591
224.453
278.933
343.969
413.754
479.434
536.597
583.949
614.7
626.779
632.162
635.84
639.215
640.883
639.849
638.109
635.52
630.563
22.18
22.2942
22.4575
22.6911
23.0246
23.4993
24.172
25.1192
26.4415
28.2682
30.7595
34.1073
38.533
44.2822
51.6165
60.8077
72.1372
85.9142
102.554
122.704
147.349
177.872
216.461
266.376
328.2
397.752
467.466
529.778
582.649
621.753
640.295
647.756
651.882
655.083
657.768
657.784
656.49
654.509
650.726
645.419
639.633
634.195
627.706
23.0912
23.5852
24.2811
25.2554
26.6079
28.4654
30.9844
34.3506
38.7772
44.4989
51.7642
60.8265
71.9484
85.4273
101.651
121.201
144.965
174.194
210.564
256.44
314.17
381.741
453.265
520.556
578.648
624.866
652.083
662.774
667.686
670.919
674.259
675.263
674.421
672.965
670.107
665.529
660.199
654.755
649.072
642.946
636.573
630.61
623.84
25.4313
26.8258
28.7291
31.2943
34.702
39.1573
44.8852
52.1218
61.106
72.0815
85.3252
101.203
120.248
143.266
171.404
206.13
249.209
302.629
366.989
438.097
508.987
572.272
624.5
660.36
676.531
683.156
686.817
689.774
691.96
691.965
690.866
688.874
685.112
680.301
675.134
669.748
663.941
657.827
651.724
645.659
639.554
633.338
627.476
620.762
31.702
35.1747
39.6868
45.4536
52.6998
61.6513
72.5367
85.6124
101.217
119.846
142.24
169.454
202.849
243.932
294.145
354.506
423.556
495.668
563.624
621.388
664.895
688.474
698.073
702.513
705.346
708.212
708.997
708.319
706.996
704.116
699.87
695.1
690.017
684.549
678.71
672.761
666.852
660.898
654.87
648.84
642.829
636.856
630.819
625.137
618.551
46.2261
53.5193
62.4804
73.325
86.2932
101.699
120.001
141.882
168.322
200.593
240.105
288.071
345.127
410.921
482.249
552.823
615.865
665.918
697.823
711.948
717.789
720.979
723.802
725.464
725.378
724.452
722.457
718.883
714.572
709.849
704.717
699.195
693.458
687.707
681.929
676.065
670.169
664.289
658.42
652.544
646.671
640.801
634.978
629.1
623.593
617.156
63.6267
74.4772
87.3915
102.664
120.722
142.198
168.001
199.326
237.513
283.721
338.48
401.282
470.335
541.35
608.047
664.14
703.825
723.965
732.588
736.49
739.006
741.411
742.009
741.41
740.168
737.34
733.491
729.203
724.42
719.225
713.756
708.186
702.59
696.914
691.173
685.433
679.698
673.953
668.199
662.448
656.708
650.976
645.258
639.548
633.89
628.181
622.847
616.565
122.045
143.216
168.516
199.06
236.122
280.835
333.757
394.447
461.213
531.022
599.138
659.748
706.573
734.254
746.492
751.584
754.344
757.067
758.162
758.001
757.183
755.191
751.878
748.02
743.641
738.782
733.613
728.266
722.853
717.373
711.81
706.221
700.634
695.033
689.415
683.792
678.17
672.551
666.937
661.331
655.74
650.166
644.613
639.071
633.582
628.034
622.853
616.699
169.913
199.841
235.979
279.417
330.736
389.631
454.656
523.14
591.182
654.017
706.257
741.715
758.924
766.231
769.562
771.882
773.846
774.235
773.66
772.415
769.733
766.284
762.367
757.861
752.996
747.914
742.701
737.418
732.05
726.627
721.195
715.748
710.277
704.793
699.304
693.811
688.316
682.822
677.335
671.86
666.398
660.951
655.521
650.106
644.707
639.312
633.96
628.537
623.468
617.428
329.511
386.815
450.207
517.418
585.123
649.011
704.38
746.025
769.697
780.152
784.456
786.833
789.188
790.048
789.792
789.024
787.05
784.026
780.541
776.443
771.891
767.1
762.118
757.033
751.868
746.627
741.357
736.071
730.757
725.421
720.074
714.718
709.353
703.984
698.614
693.25
687.893
682.546
677.211
671.888
666.576
661.273
655.977
650.687
645.405
640.125
634.894
629.606
624.691
618.858
580.915
645.311
702.824
748.742
778.436
792.868
798.948
801.729
803.918
805.474
805.619
805.031
803.764
801.274
798.161
794.527
790.3
785.794
781.081
776.201
771.241
766.199
761.102
755.981
750.832
745.653
740.455
735.243
730.018
724.783
719.541
714.298
709.057
703.82
698.591
693.37
688.157
682.95
677.746
672.545
667.346
662.15
656.963
651.792
646.653
641.55
636.538
631.505
626.875
621.333
785.662
804.297
812.852
816.333
818.441
820.516
821.088
820.687
819.932
818.013
815.263
812.063
808.216
803.993
799.565
794.917
790.155
785.319
780.407
775.457
770.478
765.465
760.425
755.365
750.287
745.193
740.087
734.974
729.858
724.741
719.627
714.517
709.412
704.31
699.209
694.107
689.003
683.896
678.79
673.692
668.612
663.565
658.565
653.627
648.762
643.958
639.245
634.474
630.048
624.584
833.009
835.206
836.185
836.029
835.476
834.22
831.899
829.046
825.635
821.706
817.553
813.17
808.609
803.976
799.263
794.487
789.68
784.837
779.96
775.059
770.136
765.191
760.23
755.255
750.271
745.282
740.291
735.299
730.309
725.32
720.33
715.336
710.338
705.332
700.321
695.309
690.304
685.318
680.367
675.467
670.63
665.864
661.165
656.517
651.904
647.276
642.616
637.719
632.94
627.089
850.603
849.889
848.066
845.523
842.553
838.958
835.061
830.954
826.613
822.172
817.662
813.069
808.432
803.762
799.053
794.314
789.548
784.758
779.946
775.116
770.273
765.419
760.558
755.693
750.825
745.954
741.081
736.203
731.317
726.422
721.517
716.604
711.689
706.782
701.895
697.045
692.247
687.512
682.845
678.24
673.68
669.142
664.578
659.937
655.155
650.161
645.129
639.925
635.073
629.328
858.939
855.755
852.11
848.262
844.17
839.918
835.604
831.203
826.737
822.238
817.699
813.124
808.518
803.885
799.226
794.545
789.846
785.132
780.408
775.675
770.936
766.191
761.44
756.683
751.916
747.139
742.348
737.545
732.733
727.918
723.112
718.329
713.583
708.89
704.258
699.69
695.176
690.699
686.231
681.72
677.124
672.371
667.442
662.466
657.447
652.464
647.603
642.716
638.25
632.796
861.281
857.226
853.089
848.882
844.591
840.258
835.891
831.482
827.039
822.566
818.063
813.534
808.983
804.413
799.828
795.231
790.625
786.01
781.387
776.755
772.112
767.456
762.787
758.102
753.403
748.694
743.983
739.282
734.605
729.967
725.381
720.853
716.383
711.959
707.561
703.159
698.7
694.15
689.437
684.572
679.685
674.769
669.913
665.117
660.422
655.777
651.221
646.528
642.195
636.781
861.991
857.822
853.62
849.378
845.099
840.788
836.445
832.072
827.673
823.251
818.809
814.352
809.882
805.4
800.908
796.405
791.889
787.36
782.814
778.251
773.671
769.078
764.476
759.872
755.279
750.711
746.182
741.704
737.28
732.907
728.572
724.252
719.912
715.509
711.01
706.347
701.559
696.765
691.96
687.208
682.496
677.876
673.319
668.811
664.321
659.79
655.283
650.575
646.259
640.767
862.691
858.541
854.359
850.145
845.901
841.631
837.338
833.025
828.695
824.351
819.993
815.623
811.238
806.836
802.418
797.98
793.523
789.049
784.561
780.067
775.574
771.092
766.635
762.217
757.845
753.524
749.247
744.999
740.756
736.479
732.135
727.691
723.091
718.392
713.7
709.01
704.352
699.716
695.168
690.683
686.254
681.831
677.387
672.917
668.411
663.845
659.304
654.546
650.202
644.628
863.66
859.544
855.401
851.235
847.05
842.847
838.628
834.394
830.143
825.875
821.588
817.279
812.948
808.596
804.228
799.846
795.46
791.078
786.709
782.365
778.057
773.792
769.571
765.388
761.226
757.058
752.847
748.567
744.183
739.659
735.058
730.477
725.903
721.332
716.771
712.291
707.881
703.528
699.172
694.797
690.398
685.956
681.482
676.968
672.425
667.794
663.227
658.334
653.972
648.239
864.938
860.878
856.799
852.704
848.591
844.46
840.308
836.133
831.934
827.71
823.465
819.202
814.928
810.65
806.378
802.123
797.892
793.694
789.534
785.411
781.318
777.238
773.146
769.003
764.793
760.477
756.039
751.545
747.082
742.62
738.133
733.645
729.236
724.904
720.626
716.338
712.033
707.702
703.329
698.923
694.486
690.005
685.483
680.913
676.314
671.593
666.972
661.908
657.526
651.5
866.573
862.58
858.565
854.528
850.464
846.375
842.259
838.12
833.964
829.798
825.631
821.471
817.327
813.207
809.118
805.061
801.034
797.027
793.027
789.008
784.938
780.803
776.564
772.222
767.84
763.501
759.144
754.739
750.325
745.99
741.739
737.536
733.32
729.086
724.825
720.522
716.188
711.82
707.411
702.96
698.472
693.929
689.34
684.682
679.994
675.16
670.433
665.219
660.738
654.439
868.527
864.574
860.593
856.586
852.555
848.508
844.451
840.395
836.347
832.315
828.306
824.324
820.368
816.434
812.512
808.587
804.638
800.643
796.587
792.433
788.196
783.93
779.715
775.459
771.136
766.796
762.541
758.373
754.245
750.103
745.943
741.755
737.525
733.265
728.971
724.634
720.257
715.841
711.374
706.857
702.286
697.652
692.961
688.189
683.373
678.409
673.516
668.178
663.501
656.974
870.686
866.764
862.827
858.881
854.936
850.999
847.08
843.181
839.305
835.447
831.604
827.765
823.916
820.036
816.115
812.137
808.074
803.949
799.803
795.712
791.551
787.311
783.048
778.876
774.791
770.74
766.675
762.591
758.479
754.326
750.142
745.924
741.664
737.363
733.023
728.631
724.191
719.696
715.142
710.525
705.843
701.089
696.263
691.348
686.37
681.252
676.156
670.679
665.751
659.026
876.918
873.083
869.249
865.424
861.615
857.824
854.052
850.294
846.541
842.784
839.008
835.2
831.353
827.451
823.482
819.471
815.45
811.478
807.41
803.252
799.069
794.981
790.981
787.008
783.023
779.018
774.983
770.91
766.805
762.665
758.484
754.262
750.001
745.69
741.33
736.914
732.441
727.905
723.304
718.634
713.889
709.067
704.162
699.173
694.086
688.918
683.615
678.291
672.651
667.436
660.536
879.619
875.918
872.233
868.561
864.898
861.235
857.561
853.86
850.126
846.356
842.533
838.656
834.755
830.86
826.999
823.024
818.949
814.849
810.847
806.929
803.037
799.134
795.209
791.256
787.263
783.24
779.181
775.082
770.941
766.763
762.534
758.257
753.926
749.538
745.088
740.573
735.989
731.332
726.598
721.782
716.881
711.891
706.806
701.625
696.339
690.956
685.441
679.872
674.04
668.524
661.475
886.404
882.831
879.261
875.685
872.092
868.468
864.811
861.119
857.375
853.594
849.799
846.023
842.263
838.384
834.395
830.382
826.462
822.626
818.814
814.995
811.152
807.282
803.374
799.434
795.459
791.444
787.387
783.294
779.151
774.961
770.718
766.417
762.058
757.634
753.141
748.577
743.935
739.213
734.406
729.511
724.522
719.437
714.251
708.962
703.565
698.056
692.44
686.693
680.875
674.831
669.021
661.855
889.885
886.372
882.825
879.247
875.634
871.972
868.286
864.597
860.933
857.266
853.483
849.584
845.663
841.822
838.066
834.334
830.599
826.84
823.055
819.233
815.379
811.49
807.562
803.591
799.585
795.53
791.428
787.276
783.066
778.799
774.469
770.072
765.604
761.061
756.438
751.732
746.937
742.05
737.067
731.984
726.798
721.505
716.102
710.587
704.958
699.213
693.355
687.371
681.31
675.054
668.99
661.751
893.426
889.892
886.314
882.725
879.143
875.589
872.014
868.327
864.519
860.691
856.928
853.25
849.598
845.947
842.271
838.572
834.836
831.068
827.265
823.424
819.543
815.624
811.66
807.649
803.589
799.473
795.3
791.066
786.767
782.399
777.958
773.438
768.837
764.149
759.37
754.496
749.524
744.448
739.266
733.974
728.57
723.051
717.417
711.665
705.798
699.814
693.723
687.516
681.246
674.811
668.58
661.34
896.909
893.436
889.988
886.504
882.913
879.199
875.463
871.776
868.176
864.603
861.035
857.441
853.827
850.177
846.495
842.779
839.027
835.234
831.404
827.532
823.613
819.646
815.626
811.55
807.414
803.215
798.949
794.612
790.198
785.705
781.128
776.462
771.702
766.846
761.888
756.824
751.652
746.367
740.968
735.451
729.817
724.064
718.194
712.209
706.113
699.913
693.623
687.244
680.839
674.312
668.042
660.913
900.734
897.238
893.62
889.977
886.366
882.843
879.348
875.862
872.35
868.82
865.255
861.658
858.029
854.364
850.661
846.919
843.139
839.312
835.44
831.516
827.538
823.502
819.405
815.243
811.011
806.706
802.323
797.859
793.308
788.667
783.93
779.095
774.156
769.11
763.953
758.682
753.294
747.787
742.16
736.413
730.547
724.565
718.473
712.279
705.995
699.634
693.22
686.765
680.339
673.864
667.701
660.842
904.231
900.697
897.248
893.831
890.425
886.995
883.547
880.068
876.555
873.012
869.433
865.819
862.165
858.476
854.742
850.964
847.136
843.256
839.321
835.327
831.269
827.145
822.95
818.679
814.329
809.896
805.375
800.762
796.052
791.242
786.327
781.303
776.167
770.915
765.545
760.054
754.442
748.708
742.855
736.885
730.805
724.623
718.352
712.007
705.61
699.184
692.763
686.368
680.069
673.81
667.847
661.362
908.051
904.723
901.375
898.009
894.614
891.185
887.727
884.234
880.707
877.141
873.541
869.899
866.214
862.482
858.7
854.865
850.973
847.021
843.005
838.92
834.763
830.529
826.215
821.816
817.327
812.746
808.066
803.285
798.397
793.4
788.29
783.063
777.717
772.249
766.659
760.947
755.115
749.166
743.106
736.944
730.693
724.37
717.996
711.596
705.2
698.841
692.554
686.361
680.293
674.267
668.263
661.567
908.892
905.546
902.172
898.764
895.323
891.846
888.333
884.782
881.188
877.552
873.866
870.131
866.341
862.493
858.584
854.609
850.566
846.449
842.254
837.978
833.615
829.163
824.616
819.97
815.222
810.366
805.4
800.321
795.124
789.807
784.368
778.808
773.124
767.321
761.4
755.369
749.237
743.015
736.721
730.376
724.005
717.638
711.306
705.044
698.879
692.818
686.812
680.716
674.152
666.59
657.282
913.024
909.668
906.278
902.851
899.39
895.888
892.344
888.754
885.116
881.426
877.682
873.879
870.013
866.082
862.081
858.006
853.852
849.616
845.294
840.88
836.371
831.763
827.051
822.232
817.302
812.257
807.095
801.813
796.41
790.884
785.236
779.469
773.584
767.59
761.494
755.31
749.053
742.745
736.409
730.075
723.773
717.536
711.388
705.334
699.326
693.205
686.593
678.919
669.57
658.511
646.607
917.097
913.724
910.311
906.859
903.363
899.821
896.23
892.587
888.888
885.131
881.31
877.423
873.466
869.434
865.323
861.13
856.849
852.477
848.01
843.443
838.772
833.993
829.103
824.099
818.977
813.735
808.372
802.887
797.28
791.554
785.713
779.762
773.71
767.57
761.357
755.092
748.799
742.503
736.236
730.026
723.898
717.852
711.838
705.697
699.049
691.33
681.916
670.879
659.248
647.131
633.211
917.693
914.246
910.752
907.209
903.612
899.96
896.249
892.474
888.632
884.72
880.733
876.667
872.518
868.282
863.955
859.531
855.009
850.382
845.648
840.803
835.843
830.766
825.569
820.252
814.813
809.254
803.576
797.783
791.881
785.879
779.789
773.627
767.411
761.165
754.913
748.685
742.509
736.404
730.371
724.36
718.214
711.557
703.838
694.408
683.429
671.912
659.839
646.263
630.356
610.278
921.547
918.051
914.503
910.898
907.233
903.505
899.71
895.844
891.903
887.884
883.781
879.592
875.312
870.936
866.46
861.882
857.196
852.399
847.489
842.461
837.315
832.049
826.662
821.155
815.53
809.791
803.944
797.998
791.964
785.857
779.696
773.501
767.298
761.114
754.974
748.897
742.883
736.885
730.751
724.122
716.456
707.083
696.191
684.78
672.762
659.248
643.341
623.757
598.987
566.572
925.258
921.701
918.084
914.404
910.657
906.838
902.946
898.974
894.92
890.78
886.549
882.223
877.798
873.27
868.636
863.892
859.035
854.062
848.971
843.76
838.43
832.981
827.415
821.735
815.949
810.063
804.09
798.043
791.94
785.803
779.653
773.516
767.416
761.372
755.384
749.407
743.302
736.731
729.166
719.921
709.156
697.867
685.946
672.538
656.709
637.158
612.363
580.566
540.079
489.228
928.804
925.172
921.474
917.705
913.861
909.94
905.937
901.847
897.667
893.394
889.022
884.548
879.969
875.281
870.481
865.566
860.535
855.385
850.116
844.73
839.227
833.613
827.892
822.072
816.164
810.182
804.143
798.065
791.972
785.887
779.832
773.825
767.867
761.919
755.856
749.367
741.945
732.896
722.293
711.143
699.369
686.141
670.505
651.138
626.487
594.728
554.129
503.684
444.163
378.601
932.163
928.444
924.652
920.782
916.831
912.794
908.668
904.449
900.133
895.716
891.195
886.567
881.827
876.974
872.006
866.921
861.719
856.4
850.966
845.421
839.77
834.021
828.184
822.271
816.3
810.287
804.255
798.225
792.219
786.253
780.33
774.417
768.406
762.017
754.771
745.977
735.575
724.575
712.993
700.012
684.68
665.664
641.392
609.975
569.565
518.977
458.851
392.704
326.614
266.667
935.318
931.502
927.605
923.623
919.553
915.391
911.133
906.776
902.315
897.749
893.073
888.286
883.385
878.368
873.236
867.989
862.628
857.157
851.582
845.908
840.146
834.307
828.408
822.465
816.497
810.527
804.574
798.654
792.772
786.9
780.946
774.668
767.622
759.134
748.976
738.136
726.784
714.106
699.171
680.657
656.982
626.213
586.384
536.102
475.701
408.453
340.527
278.743
227.299
186.39
938.26
934.335
930.323
926.22
922.023
917.728
913.331
908.829
904.22
899.502
894.671
889.726
884.668
879.497
874.213
868.821
863.324
857.73
852.048
846.288
840.465
834.596
828.698
822.792
816.896
811.028
805.191
799.365
793.474
787.313
780.479
772.337
762.473
751.803
740.709
728.38
713.917
696.035
673.151
643.308
604.44
554.919
494.709
426.696
356.941
292.62
238.611
195.772
162.16
135.158
936.939
932.805
928.574
924.243
919.809
915.27
910.623
905.865
900.996
896.015
890.923
885.72
880.41
874.997
869.486
863.888
858.211
852.469
846.678
840.854
835.017
829.184
823.371
817.585
811.81
805.985
799.942
793.324
785.552
776.042
765.566
754.741
742.794
728.858
711.714
689.784
661.115
623.559
575.256
515.739
447.377
375.956
308.954
251.986
206.539
170.905
142.501
119.269
99.869
939.316
935.053
930.69
926.223
921.65
916.969
912.178
907.278
902.268
897.149
891.925
886.598
881.175
875.664
870.074
864.418
858.709
852.964
847.2
841.435
835.684
829.954
824.235
818.478
812.549
806.143
798.746
789.657
779.417
768.854
757.304
743.937
727.61
706.765
679.477
643.548
596.902
538.616
470.417
397.622
327.879
267.61
219.139
181.113
150.887
126.235
105.751
88.6058
74.2371
941.474
937.081
932.585
927.983
923.274
918.457
913.532
908.5
903.365
898.128
892.796
887.376
881.877
876.31
870.688
865.026
859.34
853.648
847.964
842.295
836.637
830.951
825.132
818.928
811.891
803.289
793.346
783.025
771.868
759.1
743.645
723.977
698.235
664.2
619.617
563.108
495.672
421.951
349.554
285.702
233.759
192.929
160.583
134.297
112.485
94.2172
78.9221
66.1956
55.701
938.909
934.284
929.553
924.716
919.774
914.73
909.587
904.35
899.024
893.619
888.144
882.613
877.038
871.436
865.821
860.209
854.607
849.014
843.402
837.689
831.672
824.97
816.909
807.333
797.229
786.461
774.301
759.743
741.308
717.229
685.298
643.133
588.936
522.932
448.891
374.11
306.503
250.643
206.547
171.724
143.554
120.235
100.705
84.3215
70.6423
59.3309
50.1141
42.7437
940.567
935.821
930.973
926.023
920.976
915.835
910.607
905.299
899.921
894.484
889.001
883.486
877.953
872.418
866.889
861.366
855.83
850.217
844.371
837.98
830.465
821.343
811.439
801.065
789.504
775.831
758.656
736.309
706.632
667.171
615.779
551.907
478.299
401.623
330.256
270.077
222.208
184.49
154.139
129.103
108.15
90.5478
75.8064
63.5588
53.5132
45.4246
39.0678
34.2087
937.243
932.294
927.253
922.126
916.918
911.639
906.3
900.912
895.489
890.043
884.59
879.137
873.69
868.232
862.718
857.027
850.913
843.897
835.322
825.671
815.667
804.679
791.85
775.932
755.342
728
691.451
643.285
582.238
509.931
432.082
357.176
292.371
240.193
199.096
166.214
139.216
116.658
97.6898
81.7623
68.472
57.5029
48.5968
41.5255
36.0644
31.9768
29.0107
938.605
933.58
928.476
923.3
918.061
912.772
907.444
902.09
896.723
891.353
885.984
880.608
875.19
869.642
863.766
857.184
849.235
839.956
830.258
819.783
807.754
793.065
774.207
749.219
715.708
671.093
613.505
543.43
465.353
387.413
317.848
260.835
215.802
179.968
150.72
126.347
105.85
88.6006
74.1508
62.1549
52.3364
44.4603
38.3044
33.6379
30.2139
27.7793
26.0938
934.902
929.767
924.58
919.351
914.093
908.816
903.533
898.247
892.956
887.634
882.216
876.549
870.343
863.041
854.253
844.802
834.79
823.517
810.001
792.805
770.136
739.699
698.85
645.252
578.334
501.154
421.007
346.811
284.509
234.924
195.635
163.786
137.355
115.143
96.4212
80.6848
67.5514
56.7199
47.9434
40.9995
35.6636
31.6948
28.8383
26.843
25.484
24.5744
936.336
931.209
926.05
920.869
915.676
910.478
905.274
900.048
894.751
889.269
883.383
876.649
868.474
859.288
849.714
839.135
826.685
811.06
790.625
763.222
726.231
677.016
614.098
539.042
457.835
379.492
311.616
256.838
213.497
178.621
149.841
125.7
105.336
88.1721
73.7809
61.8298
52.0533
44.2239
38.1223
33.5159
30.1533
27.7763
26.1424
25.0436
24.3162
23.8399
937.96
932.878
927.78
922.674
917.56
912.429
907.246
901.931
896.31
890.049
882.566
873.797
864.57
854.592
843.083
828.921
810.597
786.111
752.958
708.359
650.133
578.425
497.568
415.986
342.546
281.977
233.899
195.474
163.99
137.672
115.471
96.7219
80.9405
67.755
56.8741
48.0585
41.0905
35.7467
31.7837
28.9421
26.9664
25.627
24.7356
24.1508
23.771
23.5268
939.842
934.831
929.812
924.778
919.706
914.537
909.141
903.277
896.468
888.27
879.32
869.852
859.191
846.372
829.989
808.246
778.809
738.893
685.849
618.596
539.657
456.178
377.614
310.821
257.261
214.653
180.028
151.231
126.971
106.457
89.1374
74.5921
62.4956
52.5894
44.6515
38.4655
33.7992
30.3985
28.0006
26.3577
25.2566
24.5306
24.0579
23.7532
23.559
23.4361
942.025
937.089
932.124
927.089
921.891
916.35
910.093
902.588
893.986
884.964
875.045
863.39
848.76
829.551
803.627
768.308
720.706
658.798
583.345
499.682
416.968
343.842
284.076
236.537
198.227
166.584
140.001
117.517
98.4913
82.4466
69.0145
57.9086
48.8945
41.7584
36.2796
32.2144
29.3008
27.2775
25.9086
25
24.406
24.0216
23.7758
23.6197
23.5219
23.4613
944.502
939.591
934.565
929.283
923.49
916.706
908.636
899.944
890.627
879.965
866.907
849.998
827.314
796.372
754.249
698.29
627.729
545.813
460.493
381.433
314.895
261.59
218.921
183.976
154.755
130.061
109.137
91.4357
76.5359
64.1139
53.9141
45.7181
39.3135
34.4705
30.9347
28.4395
26.7302
25.5859
24.8331
24.344
24.03
23.83
23.7037
23.6248
23.5767
23.5485
947.166
942.107
936.683
930.511
923.118
914.761
905.958
896.151
884.461
869.58
849.825
822.948
786.137
736.416
671.848
593.614
507.72
423.788
350.276
290.368
242.527
203.705
171.458
144.273
121.23
101.691
85.1748
71.3102
59.8103
50.4427
42.9974
37.2577
32.9829
29.9097
27.7715
26.3239
25.3635
24.7364
24.3317
24.0733
23.9093
23.8062
23.7421
23.7034
23.6815
23.671
944.03
937.378
929.526
921.102
911.986
901.425
888.318
871.168
847.978
816.154
772.656
714.79
641.946
557.792
470.764
390.679
323.498
269.562
226.142
190.383
160.368
134.945
113.361
95.0594
79.6116
66.6891
56.0353
47.4337
40.6763
35.5383
31.7679
29.0961
27.2607
26.0303
25.2208
24.6954
24.3585
24.144
24.0084
23.9234
23.871
23.8397
23.8227
23.8154
23.8147
944.108
936.028
927.476
917.862
906.276
891.39
871.469
844.195
806.657
755.783
689.621
609.505
521.768
436.315
361.614
300.65
251.747
211.86
178.598
150.489
126.617
106.334
89.1434
74.6641
62.6039
52.7294
44.8332
38.7043
34.1079
30.7825
28.457
26.8771
25.8271
25.1411
24.6984
24.4159
24.2364
24.1234
24.0527
24.0094
23.9841
23.971
23.966
23.9667
23.9713
942.703
933.847
923.5
910.549
893.479
870.259
838.229
794.258
735.55
661.452
575.712
486.969
405.225
336.498
281.102
236.301
199.265
168.101
141.657
119.164
100.046
83.8589
70.2629
58.9957
49.8401
42.5928
37.0363
32.9247
29.9895
27.9613
26.5964
25.6962
25.1114
24.7362
24.4972
24.3459
24.2507
24.1915
24.1555
24.135
24.1249
24.1217
24.1232
24.1283
24.1361
928.749
914.114
894.423
867.332
829.87
778.861
712.206
631.103
541.854
454.517
377.807
314.906
264.226
222.742
188.064
158.709
133.739
112.479
94.4106
79.1349
66.3485
55.8125
47.3209
40.6693
35.6315
31.9517
29.3568
27.5828
26.3986
25.6229
25.1214
24.8011
24.5973
24.4687
24.3878
24.3377
24.3076