/*--------------------------------*- C++ -*----------------------------------*\
| =========                 |                                                 |
| \\      /  F ield         | OpenFOAM: The Open Source CFD Toolbox           |
|  \\    /   O peration     | Version:  v1706                                 |
|   \\  /    A nd           | Web:      www.OpenFOAM.com                      |
|    \\/     M anipulation  |                                                 |
\*---------------------------------------------------------------------------*/
FoamFile
{
    version     2.0;
    format      ascii;
    class       volScalarField;
    location    "3e-06";
    object      rho;
}
// * * * * * * * * * * * * * * * * * * * * * * * * * * * * * * * * * * * * * //

dimensions      [1 -3 0 0 0 0 0];


internalField   nonuniform List<scalar> 
30038
(
0.000511309
0.000511309
0.000511309
0.000511309
0.000511309
0.000511309
0.000511309
0.000511309
0.000511309
0.000511309
0.000511309
0.000511309
0.000511309
0.000511309
0.000511309
0.000511309
0.000511309
0.000511309
0.000511309
0.000511309
0.000511309
0.000511309
0.000511309
0.000511309
0.000511309
0.000511309
0.000511309
0.000511309
0.000511309
0.000511309
0.000511309
0.000511309
0.000511309
0.000511309
0.000511309
0.000511309
0.000511309
0.000511309
0.000511309
0.000511309
0.000511309
0.000511309
0.000511309
0.000511309
0.000511309
0.000511309
0.000511309
0.000511309
0.000511309
0.000511309
0.000511309
0.000511309
0.000511309
0.000511309
0.000511309
0.000511309
0.000511309
0.000511309
0.000511309
0.000511309
0.000511309
0.000511309
0.000511309
0.000511309
0.000511309
0.000511309
0.000511309
0.000511309
0.000511309
0.000511309
0.000511309
0.000511309
0.000511309
0.000511309
0.000511309
0.000511309
0.000511309
0.000511309
0.000511309
0.000511309
0.000511309
0.000511309
0.000511309
0.000511309
0.000511309
0.000511309
0.000511309
0.000511309
0.000511309
0.000511309
0.000511309
0.000511309
0.000511309
0.000511309
0.000511309
0.000511309
0.000511309
0.000511309
0.000511309
0.000511309
0.000511309
0.000511309
0.000511309
0.000511309
0.000511309
0.000511309
0.000511309
0.000511309
0.000511309
0.000511309
0.000511309
0.000511309
0.000511309
0.000511309
0.000511309
0.000511309
0.000511309
0.000511309
0.000511309
0.000511309
0.000511309
0.000511309
0.000511309
0.000511309
0.000511309
0.000511309
0.000511309
0.000511309
0.000511309
0.000511309
0.000511309
0.000511309
0.000511309
0.000511309
0.000511309
0.000511309
0.000511309
0.000511309
0.000511309
0.000511309
0.000511309
0.000511309
0.000511309
0.000511309
0.000511309
0.000511309
0.000511309
0.000511309
0.000511309
0.000511309
0.000511309
0.000511309
0.000511309
0.000511309
0.000511309
0.000511309
0.000511309
0.000511309
0.000511309
0.000511309
0.000511309
0.000511309
0.000511309
0.000511309
0.000511309
0.000511309
0.000511309
0.000511309
0.000511309
0.000511309
0.000511309
0.000511309
0.000511309
0.000511309
0.000511309
0.000511309
0.000511309
0.000511309
0.000511309
0.000511309
0.000511309
0.000511309
0.000511309
0.000511309
0.000511309
0.000511309
0.000511309
0.000511309
0.000511309
0.000511309
0.000511309
0.000511309
0.000511309
0.000511309
0.000511309
0.000511309
0.000511309
0.000511309
0.000511309
0.000511309
0.000511309
0.000511309
0.000511309
0.000511309
0.000511309
0.000511309
0.000511309
0.000511309
0.000511309
0.000511309
0.000511309
0.000511309
0.000511309
0.000511309
0.000511309
0.000511309
0.000511309
0.000511309
0.000511309
0.000511309
0.000511309
0.000511309
0.000511309
0.000511309
0.000511309
0.000511309
0.000511309
0.000511309
0.000511309
0.000511309
0.000511309
0.000511309
0.000511309
0.000511309
0.000511309
0.000511309
0.000511309
0.000511309
0.000511309
0.000511309
0.000511309
0.000511309
0.000511309
0.000511309
0.000511309
0.000511309
0.000511309
0.000511309
0.000511309
0.000511309
0.000511309
0.000511309
0.000511309
0.000511309
0.000511309
0.000511309
0.000511309
0.000511309
0.000511309
0.000511309
0.000511309
0.000511309
0.000511309
0.00051131
0.00051131
0.00051131
0.000511309
0.000511309
0.000511309
0.000511309
0.000511309
0.000511309
0.000511309
0.000511309
0.000511309
0.000511309
0.000511309
0.000511309
0.000511309
0.000511309
0.000511309
0.000511309
0.000511309
0.000511309
0.000511309
0.000511309
0.000511309
0.000511309
0.000511309
0.000511309
0.000511309
0.000511309
0.000511309
0.000511309
0.000511309
0.000511309
0.000511309
0.00051131
0.00051131
0.00051131
0.00051131
0.00051131
0.000511311
0.000511311
0.000511309
0.000511309
0.000511309
0.000511309
0.000511309
0.000511309
0.000511309
0.000511309
0.000511309
0.000511309
0.000511309
0.000511309
0.000511309
0.000511309
0.000511309
0.000511309
0.000511309
0.000511309
0.000511309
0.000511309
0.000511309
0.000511309
0.000511309
0.000511309
0.000511309
0.000511309
0.000511309
0.000511309
0.00051131
0.00051131
0.00051131
0.00051131
0.00051131
0.000511311
0.000511311
0.000511312
0.000511314
0.000511316
0.00051132
0.000511309
0.000511309
0.000511309
0.000511309
0.000511309
0.000511309
0.000511309
0.000511309
0.000511309
0.000511309
0.000511309
0.000511309
0.000511309
0.000511309
0.000511309
0.000511309
0.000511309
0.000511309
0.000511309
0.000511309
0.000511309
0.000511309
0.000511309
0.000511309
0.00051131
0.00051131
0.00051131
0.00051131
0.00051131
0.000511311
0.000511311
0.000511312
0.000511314
0.000511316
0.000511319
0.000511324
0.000511331
0.000511341
0.000511361
0.000511309
0.000511309
0.000511309
0.000511309
0.000511309
0.000511309
0.000511309
0.000511309
0.000511309
0.000511309
0.000511309
0.000511309
0.000511309
0.000511309
0.000511309
0.000511309
0.000511309
0.000511309
0.000511309
0.000511309
0.00051131
0.00051131
0.00051131
0.00051131
0.00051131
0.000511311
0.000511311
0.000511312
0.000511314
0.000511316
0.000511319
0.000511324
0.000511331
0.000511341
0.000511356
0.00051138
0.000511414
0.000511464
0.000511558
0.000511309
0.000511309
0.000511309
0.000511309
0.000511309
0.000511309
0.000511309
0.000511309
0.000511309
0.000511309
0.000511309
0.000511309
0.000511309
0.000511309
0.000511309
0.000511309
0.000511309
0.00051131
0.00051131
0.00051131
0.00051131
0.00051131
0.000511311
0.000511311
0.000511312
0.000511314
0.000511316
0.000511319
0.000511324
0.000511331
0.000511341
0.000511356
0.000511379
0.000511412
0.000511463
0.000511536
0.000511646
0.000511807
0.000512042
0.000512473
0.000511309
0.000511309
0.000511309
0.000511309
0.000511309
0.000511309
0.000511309
0.000511309
0.000511309
0.000511309
0.000511309
0.000511309
0.00051131
0.00051131
0.00051131
0.00051131
0.00051131
0.00051131
0.000511311
0.000511312
0.000511313
0.000511314
0.000511316
0.000511319
0.000511324
0.000511331
0.000511341
0.000511356
0.000511379
0.000511412
0.000511461
0.000511533
0.000511639
0.000511795
0.000512026
0.000512366
0.000512877
0.00051363
0.000514732
0.000516674
0.000511309
0.000511309
0.000511309
0.000511309
0.000511309
0.000511309
0.000511309
0.000511309
0.00051131
0.00051131
0.00051131
0.00051131
0.00051131
0.00051131
0.000511311
0.000511312
0.000511313
0.000511314
0.000511316
0.00051132
0.000511324
0.000511331
0.000511342
0.000511357
0.000511379
0.000511412
0.00051146
0.000511531
0.000511635
0.000511787
0.000512011
0.000512341
0.00051283
0.000513553
0.00051462
0.000516173
0.000518424
0.000521622
0.000526122
0.000533705
0.000511309
0.000511309
0.000511309
0.000511309
0.00051131
0.00051131
0.00051131
0.00051131
0.00051131
0.00051131
0.000511311
0.000511312
0.000511313
0.000511314
0.000511317
0.00051132
0.000511325
0.000511332
0.000511342
0.000511358
0.00051138
0.000511413
0.000511461
0.000511531
0.000511633
0.000511783
0.000512002
0.000512323
0.000512796
0.000513493
0.000514516
0.000516004
0.000518148
0.000521203
0.000525532
0.000531644
0.000540326
0.000552425
0.000568776
0.000593673
0.00051131
0.00051131
0.00051131
0.00051131
0.00051131
0.000511311
0.000511311
0.000511312
0.000511313
0.000511315
0.000511317
0.000511321
0.000511326
0.000511333
0.000511343
0.000511359
0.000511381
0.000511414
0.000511462
0.000511532
0.000511634
0.000511782
0.000511997
0.000512313
0.000512774
0.00051345
0.000514437
0.000515869
0.000517927
0.000520854
0.000524988
0.000530799
0.000538951
0.0005503
0.000565802
0.00058634
0.0006125
0.000645248
0.000685404
0.000750423
0.00051131
0.000511311
0.000511311
0.000511312
0.000511313
0.000511315
0.000511318
0.000511321
0.000511326
0.000511334
0.000511345
0.000511361
0.000511384
0.000511417
0.000511466
0.000511536
0.000511637
0.000511785
0.000511999
0.00051231
0.000512764
0.000513424
0.000514384
0.000515771
0.000517757
0.000520575
0.000524544
0.0005301
0.000537835
0.000548528
0.000563083
0.000582391
0.000607156
0.000638052
0.000676831
0.000727015
0.000796426
0.000901554
0.00104714
0.00125484
0.000511314
0.000511315
0.000511318
0.000511322
0.000511327
0.000511335
0.000511347
0.000511363
0.000511387
0.000511421
0.00051147
0.000511541
0.000511644
0.000511792
0.000512006
0.000512315
0.000512765
0.000513416
0.000514357
0.00051571
0.000517639
0.000520368
0.0005242
0.000529544
0.000536939
0.000547085
0.000560824
0.000579017
0.000602426
0.000631753
0.000668346
0.000715067
0.000777079
0.000865782
0.000996173
0.00116978
0.00137579
0.0015889
0.00178081
0.00195443
0.000511323
0.000511329
0.000511337
0.000511349
0.000511366
0.00051139
0.000511426
0.000511476
0.000511549
0.000511653
0.000511803
0.000512019
0.00051233
0.000512779
0.000513426
0.000514356
0.000515685
0.000517573
0.000520233
0.000523955
0.000529125
0.000536246
0.00054595
0.000559001
0.000576219
0.000598369
0.000626208
0.000660877
0.000704712
0.000761722
0.000839209
0.000951399
0.00110756
0.00130235
0.00151707
0.00172221
0.00190243
0.00205484
0.00216044
0.00219695
0.00220845
0.00051137
0.000511395
0.000511432
0.000511484
0.000511559
0.000511666
0.000511819
0.000512038
0.000512353
0.000512805
0.000513454
0.000514381
0.000515699
0.00051756
0.000520172
0.000523811
0.000528845
0.000535745
0.000545096
0.000557587
0.000573973
0.000595003
0.000621448
0.000654381
0.00069573
0.00074885
0.000819056
0.000916039
0.00105372
0.00123335
0.0014428
0.00165632
0.00184977
0.00201648
0.00214608
0.00220935
0.00222703
0.00223283
0.00223455
0.00223508
0.00222514
0.000511495
0.000511573
0.000511683
0.000511841
0.000512066
0.000512387
0.000512846
0.000513502
0.000514434
0.000515751
0.000517603
0.000520187
0.00052377
0.000528704
0.000535434
0.000544508
0.000556555
0.000572256
0.000592318
0.000617502
0.00064884
0.000688025
0.000737893
0.000802807
0.000889545
0.00100945
0.00117184
0.00137002
0.00158573
0.00179091
0.00197112
0.00211976
0.00221211
0.00224356
0.00225305
0.00225597
0.00225717
0.0022531
0.00224023
0.00222462
0.00220598
0.00217833
0.00051187
0.000512102
0.000512433
0.000512904
0.000513572
0.000514516
0.000515845
0.000517702
0.000520279
0.000523834
0.000528704
0.000535312
0.000544176
0.000555877
0.000571035
0.00059029
0.000614371
0.000644267
0.000681529
0.000728622
0.000789291
0.000868884
0.000975326
0.00111946
0.00130295
0.00151305
0.00172654
0.00191954
0.00208387
0.00220254
0.00225456
0.00227105
0.00227619
0.00227761
0.00227699
0.00226829
0.00225489
0.00223909
0.00221744
0.0021903
0.0021604
0.00213051
0.00209566
0.000513668
0.000514634
0.000515985
0.000517862
0.000520454
0.000524009
0.00052885
0.000535383
0.000544096
0.000555536
0.000570273
0.000588884
0.000612037
0.000640664
0.000676209
0.000720899
0.000778021
0.00085214
0.000949289
0.00107749
0.00124418
0.00144342
0.00165782
0.00186235
0.00204039
0.00218062
0.00225938
0.0022864
0.00229478
0.00229703
0.0022988
0.00229383
0.00228267
0.00226931
0.00225149
0.0022279
0.00220097
0.00217251
0.00214255
0.0021106
0.00207718
0.00204431
0.00200765
0.000518094
0.000520722
0.000524305
0.000529153
0.000535656
0.000544276
0.000555528
0.000569944
0.000588053
0.000610459
0.000638014
0.000672058
0.000714641
0.000768737
0.000838395
0.000928685
0.00104554
0.00119548
0.00138056
0.00158892
0.00180012
0.00199093
0.00214828
0.00225334
0.0022973
0.00231152
0.00231574
0.00231727
0.00231611
0.00230832
0.00229676
0.00228239
0.00226242
0.00223847
0.00221228
0.00218452
0.00215485
0.00212357
0.00209161
0.00205922
0.00202629
0.00199266
0.00195974
0.0019234
0.00052963
0.000536149
0.000544733
0.000555867
0.000570049
0.000587772
0.00060959
0.000636278
0.000669056
0.000709813
0.000761288
0.000827179
0.000912012
0.00102069
0.00115788
0.00132711
0.00152475
0.00173502
0.00193625
0.0021083
0.00223602
0.00230218
0.00232582
0.00233313
0.002335
0.00233621
0.00233151
0.00232194
0.00231026
0.00229388
0.00227286
0.0022493
0.00222374
0.00219634
0.00216719
0.00213698
0.00210625
0.00207489
0.00204291
0.00201058
0.00197804
0.00194546
0.00191259
0.00188069
0.00184573
0.000556585
0.000570616
0.000588053
0.000609414
0.000635413
0.000667164
0.000706391
0.000755613
0.000818254
0.000898495
0.00100076
0.00112883
0.00128494
0.00146885
0.00167222
0.00187712
0.00206221
0.00220847
0.00229905
0.00233644
0.0023486
0.00235207
0.00235396
0.00235221
0.00234514
0.00233526
0.00232225
0.0023043
0.00228338
0.00226021
0.00223503
0.00220808
0.00217979
0.00215075
0.00212106
0.00209066
0.00205976
0.00202857
0.00199716
0.00196558
0.00193393
0.0019023
0.00187087
0.00183945
0.00180922
0.00177632
0.000588939
0.000609962
0.000635423
0.000666355
0.000704341
0.000751692
0.000811561
0.000887846
0.000984697
0.00110559
0.00125228
0.0014239
0.00161639
0.00181825
0.0020108
0.00217326
0.00228623
0.00234132
0.00236201
0.00236821
0.00237
0.00237072
0.00236635
0.00235807
0.00234781
0.00233296
0.00231454
0.00229393
0.00227097
0.00224617
0.00221993
0.00219265
0.00216466
0.00213593
0.00210657
0.00207679
0.00204671
0.00201636
0.00198583
0.00195522
0.00192464
0.00189416
0.00186387
0.00183383
0.00180421
0.0017748
0.00174676
0.00171637
0.000703664
0.000749503
0.000807089
0.00088003
0.000972212
0.00108698
0.00122606
0.00138866
0.00157085
0.00176507
0.00195799
0.00213133
0.00226428
0.00234072
0.00237232
0.00238262
0.00238561
0.00238785
0.00238546
0.00237916
0.00237066
0.00235889
0.00234303
0.00232483
0.00230423
0.00228155
0.00225736
0.00223196
0.00220568
0.00217865
0.00215089
0.0021226
0.00209393
0.00206492
0.00203562
0.00200614
0.00197657
0.00194701
0.00191751
0.00188818
0.00185908
0.00183031
0.00180193
0.00177398
0.00174662
0.00171958
0.00169402
0.00166634
0.00080483
0.00087503
0.000963301
0.00107279
0.00120524
0.00136016
0.00153426
0.00172101
0.00190996
0.00208682
0.00223404
0.00233224
0.00237814
0.00239523
0.00240038
0.00240239
0.00240267
0.00239857
0.00239139
0.00238223
0.00236901
0.00235302
0.0023349
0.00231433
0.00229214
0.00226868
0.00224413
0.00221879
0.00219269
0.00216595
0.00213874
0.00211112
0.00208314
0.00205489
0.00202645
0.00199791
0.00196935
0.00194083
0.00191246
0.00188429
0.00185642
0.0018289
0.00180179
0.00177515
0.00174903
0.00172345
0.00169854
0.00167405
0.00165107
0.00162622
0.00118981
0.00133797
0.00150469
0.00168463
0.0018692
0.00204601
0.0022002
0.00231519
0.00237903
0.00240537
0.00241385
0.00241655
0.00241848
0.00241623
0.00241059
0.00240321
0.00239264
0.00237877
0.00236292
0.00234457
0.00232433
0.00230281
0.00228007
0.0022564
0.00223196
0.0022068
0.00218109
0.00215491
0.00212831
0.00210135
0.00207414
0.00204673
0.0020192
0.00199162
0.00196408
0.00193666
0.00190942
0.00188243
0.00185577
0.00182948
0.00180363
0.00177825
0.00175339
0.00172908
0.00170539
0.00168231
0.00166001
0.00163823
0.00161808
0.00159635
0.00183504
0.00201034
0.00216839
0.00229427
0.00237433
0.00241193
0.00242582
0.0024301
0.00243241
0.00243232
0.00242839
0.00242213
0.00241392
0.00240231
0.00238843
0.0023724
0.00235407
0.00233439
0.00231351
0.0022915
0.00226871
0.00224517
0.00222097
0.00219626
0.00217108
0.00214548
0.00211954
0.00209333
0.00206693
0.00204039
0.00201379
0.00198722
0.00196073
0.00193441
0.00190831
0.0018825
0.00185703
0.00183195
0.00180731
0.00178315
0.00175952
0.00173644
0.00171399
0.0016922
0.00167115
0.00165087
0.00163151
0.00161282
0.00159585
0.00157743
0.0023659
0.00241496
0.00243589
0.00244257
0.00244526
0.00244705
0.00244477
0.00243963
0.00243318
0.00242376
0.00241171
0.0023978
0.00238148
0.00236356
0.00234449
0.00232419
0.00230298
0.00228104
0.00225839
0.00223516
0.00221142
0.00218721
0.0021626
0.00213766
0.00211244
0.00208702
0.00206146
0.00203582
0.0020102
0.00198464
0.00195922
0.001934
0.00190904
0.00188438
0.00186008
0.00183618
0.00181271
0.00178974
0.0017673
0.00174544
0.00172424
0.00170375
0.00168404
0.00166515
0.00164715
0.00163001
0.00161381
0.00159821
0.00158421
0.00156852
0.00245784
0.00246061
0.00245976
0.00245584
0.0024505
0.00244323
0.00243304
0.00242092
0.0024067
0.00239048
0.00237311
0.00235453
0.00233488
0.00231449
0.00229338
0.00227162
0.00224932
0.00222652
0.00220327
0.00217963
0.00215567
0.00213142
0.00210697
0.00208237
0.00205769
0.002033
0.00200835
0.00198383
0.00195947
0.00193535
0.00191149
0.00188796
0.00186479
0.00184202
0.00181971
0.0017979
0.00177665
0.00175604
0.00173611
0.00171695
0.0016986
0.0016811
0.00166445
0.00164864
0.00163363
0.00161932
0.00160564
0.00159216
0.00157982
0.00156565
0.00246638
0.00246085
0.00245255
0.00244201
0.00242978
0.00241534
0.00239955
0.00238264
0.00236455
0.00234564
0.00232604
0.00230574
0.00228485
0.00226345
0.00224157
0.00221925
0.00219656
0.00217354
0.00215025
0.00212675
0.00210309
0.00207935
0.00205558
0.00203184
0.0020082
0.0019847
0.00196139
0.00193833
0.00191556
0.00189311
0.00187104
0.00184939
0.00182821
0.00180758
0.00178755
0.0017682
0.00174958
0.00173176
0.00171476
0.00169858
0.00168319
0.00166857
0.00165459
0.00164112
0.00162807
0.00161534
0.00160318
0.00159139
0.00158121
0.00156963
0.00245082
0.00243826
0.00242397
0.00240863
0.0023921
0.00237462
0.00235646
0.00233759
0.00231809
0.00229807
0.00227754
0.00225654
0.00223514
0.00221336
0.00219126
0.0021689
0.00214633
0.0021236
0.00210078
0.00207792
0.00205507
0.0020323
0.00200964
0.00198715
0.00196487
0.00194284
0.00192112
0.00189973
0.00187874
0.00185821
0.00183818
0.00181875
0.00179997
0.0017819
0.0017646
0.00174808
0.00173235
0.00171737
0.00170311
0.00168943
0.00167623
0.00166342
0.00165098
0.00163907
0.00162784
0.00161738
0.00160787
0.00159889
0.0015916
0.00158282
0.00241764
0.00240154
0.00238473
0.00236726
0.00234911
0.00233042
0.00231123
0.00229154
0.00227142
0.0022509
0.00223002
0.00220883
0.00218737
0.0021657
0.00214388
0.00212196
0.00209999
0.00207801
0.00205609
0.00203426
0.00201257
0.00199106
0.00196978
0.00194877
0.00192807
0.00190774
0.00188784
0.00186844
0.00184959
0.00183138
0.00181386
0.00179708
0.00178104
0.00176574
0.00175115
0.00173723
0.00172384
0.0017109
0.00169833
0.00168619
0.0016746
0.00166371
0.00165364
0.00164436
0.0016359
0.00162822
0.00162149
0.00161527
0.00161077
0.00160459
0.00237801
0.0023606
0.0023427
0.0023243
0.00230544
0.00228617
0.00226651
0.0022465
0.00222619
0.00220563
0.00218485
0.00216391
0.00214287
0.00212176
0.00210065
0.00207956
0.00205854
0.00203764
0.00201689
0.00199634
0.00197604
0.00195602
0.00193636
0.0019171
0.00189831
0.00188006
0.00186242
0.00184543
0.00182915
0.00181358
0.0017987
0.0017845
0.00177089
0.00175779
0.00174511
0.00173281
0.00172095
0.00170969
0.00169914
0.00168939
0.00168039
0.00167218
0.00166476
0.00165821
0.0016525
0.00164751
0.00164337
0.0016396
0.00163764
0.00163379
0.00233725
0.0023192
0.00230076
0.00228194
0.00226279
0.00224334
0.00222364
0.00220373
0.00218367
0.00216349
0.00214323
0.00212295
0.00210268
0.00208246
0.00206233
0.00204233
0.0020225
0.0020029
0.00198356
0.00196456
0.00194594
0.00192777
0.00191011
0.00189303
0.00187658
0.00186079
0.00184568
0.00183121
0.00181737
0.00180408
0.00179125
0.00177884
0.00176682
0.00175527
0.00174433
0.0017341
0.00172464
0.00171589
0.0017079
0.0017007
0.00169437
0.00168885
0.00168409
0.00168005
0.00167675
0.00167412
0.00167238
0.00167097
0.00167146
0.00166991
0.00229717
0.00227885
0.00226024
0.00224139
0.00222234
0.00220312
0.00218378
0.00216437
0.00214491
0.00212544
0.002106
0.00208662
0.00206736
0.00204824
0.00202933
0.00201067
0.00199232
0.00197434
0.00195678
0.00193972
0.0019232
0.00190727
0.00189197
0.0018773
0.00186323
0.00184975
0.00183676
0.00182422
0.00181208
0.00180035
0.00178911
0.00177849
0.00176858
0.00175937
0.00175084
0.00174305
0.00173605
0.00172991
0.00172457
0.00171996
0.00171608
0.00171291
0.00171048
0.00170876
0.00170779
0.00170746
0.00170812
0.0017089
0.0017119
0.0017125
0.00225887
0.00224064
0.00222225
0.00220374
0.00218514
0.00216648
0.0021478
0.00212913
0.0021105
0.00209196
0.00207355
0.00205532
0.00203733
0.00201963
0.00200228
0.00198534
0.00196886
0.0019529
0.00193749
0.00192266
0.00190841
0.00189474
0.0018816
0.00186892
0.00185667
0.00184481
0.00183338
0.00182246
0.00181215
0.00180253
0.00179355
0.00178523
0.00177762
0.0017708
0.00176483
0.00175963
0.00175516
0.0017514
0.00174835
0.00174602
0.00174442
0.00174354
0.00174338
0.00174394
0.00174527
0.00174718
0.00175021
0.00175308
0.00175862
0.00176104
0.00222334
0.00220553
0.00218766
0.00216975
0.00215183
0.00213394
0.00211611
0.0020984
0.00208085
0.00206352
0.00204647
0.00202975
0.00201342
0.00199752
0.0019821
0.0019672
0.00195283
0.001939
0.0019257
0.0019129
0.00190054
0.00188858
0.00187702
0.00186589
0.00185529
0.00184529
0.00183594
0.00182718
0.00181904
0.0018116
0.00180495
0.00179912
0.00179404
0.00178968
0.00178602
0.00178306
0.00178081
0.00177928
0.00177847
0.00177837
0.001779
0.00178034
0.00178242
0.00178519
0.00178876
0.00179286
0.00179815
0.00180317
0.00181105
0.00181527
0.00219127
0.00217409
0.00215692
0.0021398
0.00212278
0.00210591
0.00208924
0.00207283
0.00205673
0.002041
0.00202567
0.00201079
0.00199639
0.00198248
0.00196906
0.00195612
0.00194365
0.00193159
0.00191994
0.00190868
0.00189787
0.00188759
0.00187789
0.00186878
0.00186022
0.00185226
0.00184498
0.00183849
0.00183278
0.00182781
0.00182353
0.00181994
0.00181705
0.00181485
0.00181337
0.00181258
0.00181251
0.00181315
0.00181451
0.00181658
0.00181938
0.00182288
0.00182712
0.00183204
0.00183775
0.001844
0.00185138
0.00185858
0.00186854
0.0018746
0.00216301
0.00214668
0.00213048
0.00211446
0.00209869
0.0020832
0.00206806
0.0020533
0.00203896
0.00202505
0.00201158
0.00199856
0.00198599
0.00197383
0.00196208
0.00195073
0.00193978
0.0019293
0.00191933
0.00190991
0.00190103
0.00189266
0.00188487
0.00187775
0.0018714
0.0018658
0.00186091
0.00185671
0.00185318
0.00185032
0.00184816
0.00184669
0.00184591
0.00184583
0.00184645
0.00184778
0.00184982
0.00185256
0.00185602
0.00186019
0.00186506
0.00187065
0.00187694
0.00188392
0.00189166
0.00189997
0.00190928
0.00191859
0.00193038
0.00193824
0.00215455
0.00213918
0.00212403
0.00210916
0.0020946
0.0020804
0.00206657
0.00205315
0.00204013
0.00202751
0.00201529
0.00200346
0.00199201
0.00198096
0.00197032
0.00196016
0.0019505
0.00194136
0.00193269
0.0019245
0.00191687
0.0019099
0.00190367
0.00189817
0.00189336
0.00188921
0.00188572
0.00188289
0.00188073
0.00187925
0.00187846
0.00187834
0.00187892
0.00188019
0.00188216
0.00188482
0.00188818
0.00189225
0.00189701
0.00190247
0.00190864
0.0019155
0.00192305
0.00193129
0.0019402
0.00194981
0.00196001
0.00197109
0.0019823
0.00199568
0.00200523
0.00213459
0.00212061
0.00210695
0.00209364
0.00208069
0.0020681
0.00205588
0.00204401
0.00203251
0.00202138
0.00201062
0.00200029
0.00199043
0.00198107
0.0019722
0.00196374
0.00195572
0.00194825
0.00194143
0.00193531
0.00192989
0.00192515
0.00192104
0.00191758
0.00191475
0.00191259
0.00191108
0.00191024
0.00191007
0.00191058
0.00191176
0.00191363
0.00191618
0.00191942
0.00192335
0.00192796
0.00193327
0.00193926
0.00194594
0.00195329
0.00196133
0.00197004
0.0019794
0.00198942
0.00200008
0.00201138
0.00202325
0.00203588
0.00204872
0.00206339
0.00207444
0.00213295
0.00212014
0.00210765
0.00209549
0.00208367
0.00207216
0.00206099
0.00205016
0.00203971
0.00202968
0.00202012
0.00201105
0.00200242
0.00199416
0.00198632
0.001979
0.00197231
0.0019663
0.00196096
0.00195627
0.0019522
0.00194874
0.00194592
0.00194373
0.00194219
0.00194129
0.00194104
0.00194145
0.00194253
0.00194427
0.00194669
0.00194977
0.00195354
0.00195797
0.00196309
0.00196887
0.00197533
0.00198246
0.00199025
0.0019987
0.0020078
0.00201754
0.00202791
0.0020389
0.00205049
0.00206265
0.0020754
0.00208865
0.00210254
0.00211666
0.00213231
0.00214459
0.0021223
0.00211086
0.00209971
0.00208887
0.00207836
0.00206822
0.00205849
0.00204922
0.00204041
0.00203202
0.00202396
0.0020163
0.00200913
0.00200257
0.00199665
0.00199137
0.00198673
0.00198268
0.00197924
0.0019764
0.00197418
0.00197258
0.00197161
0.00197127
0.00197157
0.00197252
0.00197412
0.00197638
0.00197929
0.00198286
0.00198709
0.00199198
0.00199754
0.00200375
0.00201061
0.00201813
0.00202629
0.00203509
0.00204451
0.00205456
0.0020652
0.00207644
0.00208825
0.00210061
0.0021135
0.00212688
0.00214076
0.00215506
0.0021699
0.00218491
0.0022012
0.0022144
0.00211615
0.00210596
0.00209612
0.00208669
0.00207772
0.00206918
0.00206101
0.00205315
0.00204566
0.00203865
0.00203221
0.00202637
0.00202115
0.00201655
0.00201252
0.00200908
0.00200622
0.00200395
0.00200228
0.00200123
0.00200078
0.00200096
0.00200177
0.00200322
0.00200529
0.00200801
0.00201137
0.00201537
0.00202002
0.00202531
0.00203125
0.00203782
0.00204504
0.00205288
0.00206135
0.00207043
0.00208011
0.00209039
0.00210125
0.00211266
0.00212462
0.00213709
0.00215006
0.00216349
0.00217736
0.00219164
0.00220631
0.0022213
0.00223674
0.00225226
0.00226894
0.00228275
0.00211429
0.00210561
0.00209733
0.00208939
0.00208173
0.00207442
0.00206756
0.00206124
0.00205548
0.00205032
0.00204574
0.00204173
0.00203827
0.00203538
0.00203306
0.00203132
0.00203017
0.00202961
0.00202966
0.00203031
0.00203158
0.00203347
0.00203598
0.00203911
0.00204286
0.00204725
0.00205226
0.0020579
0.00206416
0.00207105
0.00207855
0.00208666
0.00209537
0.00210467
0.00211456
0.00212501
0.002136
0.00214753
0.00215956
0.00217208
0.00218505
0.00219846
0.00221226
0.00222644
0.00224095
0.00225577
0.00227089
0.00228625
0.00230199
0.00231775
0.00233464
0.00234883
0.00211715
0.0021097
0.00210257
0.00209586
0.00208965
0.00208397
0.00207886
0.00207432
0.00207032
0.00206685
0.00206392
0.00206154
0.00205972
0.00205847
0.00205779
0.00205769
0.00205818
0.00205926
0.00206094
0.00206323
0.00206611
0.00206961
0.00207372
0.00207843
0.00208376
0.00208969
0.00209623
0.00210337
0.0021111
0.00211942
0.00212832
0.00213779
0.00214781
0.00215837
0.00216944
0.00218102
0.00219307
0.00220557
0.00221849
0.00223181
0.00224549
0.00225949
0.0022738
0.00228838
0.0023032
0.00231826
0.00233355
0.00234904
0.00236487
0.00238073
0.00239767
0.00241214
0.00212356
0.00211746
0.00211187
0.00210681
0.00210229
0.0020983
0.00209481
0.00209185
0.00208941
0.0020875
0.00208614
0.00208533
0.00208507
0.00208539
0.00208628
0.00208775
0.0020898
0.00209244
0.00209566
0.00209948
0.00210389
0.00210889
0.00211448
0.00212065
0.00212742
0.00213476
0.00214267
0.00215115
0.00216018
0.00216975
0.00217985
0.00219046
0.00220156
0.00221313
0.00222514
0.00223757
0.00225038
0.00226356
0.00227705
0.00229084
0.00230489
0.00231917
0.00233367
0.00234836
0.00236324
0.00237831
0.00239359
0.00240907
0.00242488
0.00244076
0.00245741
0.00247185
0.00213416
0.00212967
0.00212568
0.00212218
0.00211917
0.00211667
0.00211468
0.0021132
0.00211226
0.00211185
0.00211199
0.00211268
0.00211393
0.00211574
0.00211812
0.00212106
0.00212458
0.00212867
0.00213334
0.00213857
0.00214438
0.00215075
0.00215769
0.00216518
0.00217323
0.00218181
0.00219092
0.00220055
0.00221067
0.00222128
0.00223235
0.00224386
0.00225578
0.00226809
0.00228075
0.00229373
0.002307
0.00232053
0.00233428
0.00234823
0.00236236
0.00237665
0.00239109
0.00240568
0.00242045
0.0024354
0.00245057
0.00246592
0.00248145
0.00249676
0.00251156
0.00252315
0.00214592
0.00214335
0.00214127
0.00213969
0.00213861
0.00213805
0.002138
0.00213849
0.00213952
0.00214109
0.0021432
0.00214586
0.00214907
0.00215284
0.00215716
0.00216203
0.00216746
0.00217344
0.00217996
0.00218703
0.00219463
0.00220275
0.0022114
0.00222054
0.00223018
0.00224028
0.00225084
0.00226184
0.00227324
0.00228502
0.00229716
0.00230962
0.00232237
0.00233537
0.00234861
0.00236203
0.00237562
0.00238936
0.00240322
0.0024172
0.0024313
0.00244553
0.00245991
0.00247445
0.00248916
0.00250394
0.00251851
0.0025322
0.00254351
0.00255029
0.00254957
0.00216561
0.0021644
0.00216368
0.00216346
0.00216375
0.00216455
0.00216587
0.00216771
0.00217009
0.00217299
0.00217643
0.0021804
0.00218491
0.00218996
0.00219553
0.00220164
0.00220827
0.00221542
0.00222309
0.00223125
0.00223991
0.00224904
0.00225864
0.00226869
0.00227916
0.00229003
0.00230128
0.00231289
0.00232482
0.00233704
0.00234952
0.00236224
0.00237514
0.00238821
0.00240142
0.00241474
0.00242815
0.00244166
0.00245525
0.00246894
0.00248274
0.00249666
0.00251068
0.00252472
0.0025385
0.00255131
0.00256168
0.00256735
0.002566
0.00255809
0.00254678
0.00218838
0.00218846
0.00218904
0.00219012
0.0021917
0.00219379
0.00219638
0.00219949
0.00220312
0.00220726
0.00221192
0.00221709
0.00222278
0.00222897
0.00223567
0.00224287
0.00225056
0.00225872
0.00226735
0.00227644
0.00228596
0.0022959
0.00230624
0.00231696
0.00232803
0.00233943
0.00235112
0.00236307
0.00237526
0.00238765
0.0024002
0.0024129
0.0024257
0.00243859
0.00245155
0.00246457
0.00247765
0.0024908
0.00250402
0.00251731
0.00253067
0.00254399
0.00255698
0.00256896
0.00257847
0.00258328
0.00258115
0.00257296
0.00256243
0.00254926
0.00252855
0.00221519
0.00221699
0.00221928
0.00222207
0.00222535
0.00222912
0.0022334
0.00223817
0.00224343
0.00224919
0.00225544
0.00226217
0.00226937
0.00227704
0.00228517
0.00229374
0.00230274
0.00231215
0.00232196
0.00233214
0.00234267
0.00235353
0.00236468
0.00237611
0.00238777
0.00239964
0.00241168
0.00242387
0.00243617
0.00244855
0.002461
0.0024735
0.00248603
0.0024986
0.0025112
0.00252385
0.00253654
0.00254925
0.00256188
0.00257415
0.00258538
0.00259416
0.00259832
0.00259562
0.00258724
0.00257678
0.00256351
0.002544
0.00251494
0.00246901
0.00224418
0.00224712
0.00225054
0.00225443
0.0022588
0.00226365
0.00226897
0.00227477
0.00228103
0.00228776
0.00229494
0.00230256
0.00231062
0.00231909
0.00232798
0.00233725
0.00234689
0.00235688
0.0023672
0.00237782
0.00238871
0.00239984
0.00241119
0.00242272
0.00243441
0.00244621
0.00245811
0.00247007
0.00248207
0.0024941
0.00250614
0.0025182
0.00253027