/*--------------------------------*- C++ -*----------------------------------*\
| =========                 |                                                 |
| \\      /  F ield         | OpenFOAM: The Open Source CFD Toolbox           |
|  \\    /   O peration     | Version:  v1706                                 |
|   \\  /    A nd           | Web:      www.OpenFOAM.com                      |
|    \\/     M anipulation  |                                                 |
\*---------------------------------------------------------------------------*/
FoamFile
{
    version     2.0;
    format      ascii;
    class       volScalarField;
    location    "3e-06";
    object      Tov;
}
// * * * * * * * * * * * * * * * * * * * * * * * * * * * * * * * * * * * * * //

dimensions      [0 0 0 1 0 0 0];


internalField   nonuniform List<scalar> 
30038
(
144.4
144.4
144.4
144.4
144.4
144.4
144.4
144.4
144.4
144.4
144.4
144.4
144.4
144.4
144.4
144.4
144.4
144.4
144.4
144.4
144.4
144.4
144.4
144.4
144.4
144.4
144.4
144.4
144.4
144.4
144.4
144.4
144.4
144.4
144.4
144.4
144.4
144.4
144.4
144.4
144.4
144.4
144.4
144.4
144.4
144.4
144.4
144.4
144.4
144.4
144.4
144.4
144.4
144.4
144.4
144.4
144.4
144.4
144.4
144.4
144.4
144.4
144.4
144.4
144.4
144.4
144.4
144.4
144.4
144.4
144.4
144.4
144.4
144.4
144.4
144.4
144.4
144.4
144.4
144.4
144.4
144.4
144.4
144.4
144.4
144.4
144.4
144.4
144.4
144.4
144.4
144.4
144.4
144.4
144.4
144.4
144.4
144.4
144.4
144.4
144.4
144.4
144.4
144.4
144.4
144.4
144.4
144.4
144.4
144.4
144.4
144.4
144.4
144.4
144.4
144.4
144.4
144.4
144.4
144.4
144.4
144.4
144.4
144.4
144.4
144.4
144.4
144.4
144.4
144.4
144.4
144.4
144.4
144.4
144.4
144.4
144.4
144.4
144.4
144.4
144.4
144.4
144.4
144.4
144.4
144.4
144.4
144.4
144.4
144.4
144.4
144.4
144.4
144.4
144.4
144.4
144.4
144.4
144.4
144.4
144.4
144.4
144.4
144.4
144.4
144.4
144.4
144.4
144.4
144.4
144.4
144.4
144.4
144.4
144.4
144.4
144.4
144.4
144.4
144.4
144.4
144.4
144.4
144.4
144.4
144.4
144.4
144.4
144.4
144.4
144.4
144.4
144.4
144.4
144.4
144.4
144.4
144.4
144.4
144.4
144.4
144.4
144.4
144.4
144.4
144.4
144.4
144.4
144.4
144.4
144.4
144.4
144.4
144.4
144.4
144.4
144.4
144.4
144.4
144.4
144.4
144.4
144.4
144.4
144.4
144.4
144.4
144.4
144.4
144.4
144.4
144.4
144.4
144.4
144.4
144.4
144.4
144.4
144.4
144.4
144.4
144.4
144.4
144.4
144.4
144.4
144.4
144.4
144.4
144.4
144.4
144.4
144.4
144.4
144.4
144.4
144.4
144.4
144.4
144.4
144.4
144.4
144.4
144.4
144.4
144.401
144.4
144.4
144.4
144.4
144.4
144.4
144.4
144.4
144.4
144.4
144.4
144.4
144.4
144.4
144.4
144.4
144.4
144.4
144.4
144.4
144.4
144.4
144.4
144.4
144.4
144.4
144.4
144.4
144.4
144.4
144.4
144.4
144.401
144.401
144.401
144.402
144.403
144.404
144.4
144.4
144.4
144.4
144.4
144.4
144.4
144.4
144.4
144.4
144.4
144.4
144.4
144.4
144.4
144.4
144.4
144.4
144.4
144.4
144.4
144.4
144.4
144.4
144.4
144.4
144.4
144.4
144.4
144.401
144.401
144.401
144.402
144.403
144.404
144.406
144.409
144.413
144.422
144.4
144.4
144.4
144.4
144.4
144.4
144.4
144.4
144.4
144.4
144.4
144.4
144.4
144.4
144.4
144.4
144.4
144.4
144.4
144.4
144.4
144.4
144.4
144.4
144.4
144.401
144.401
144.401
144.402
144.403
144.404
144.406
144.409
144.414
144.42
144.431
144.446
144.469
144.511
144.4
144.4
144.4
144.4
144.4
144.4
144.4
144.4
144.4
144.4
144.4
144.4
144.4
144.4
144.4
144.4
144.4
144.4
144.4
144.4
144.4
144.401
144.401
144.401
144.402
144.403
144.404
144.406
144.409
144.414
144.421
144.431
144.446
144.469
144.504
144.556
144.634
144.754
144.963
144.4
144.4
144.4
144.4
144.4
144.4
144.4
144.4
144.4
144.4
144.4
144.4
144.4
144.4
144.4
144.4
144.4
144.4
144.401
144.401
144.401
144.402
144.403
144.404
144.407
144.41
144.414
144.422
144.432
144.448
144.471
144.505
144.557
144.635
144.751
144.925
145.186
145.578
146.177
147.2
144.4
144.4
144.4
144.4
144.4
144.4
144.4
144.4
144.4
144.4
144.4
144.4
144.4
144.4
144.401
144.401
144.401
144.402
144.403
144.405
144.407
144.41
144.415
144.422
144.433
144.449
144.472
144.508
144.56
144.638
144.754
144.927
145.185
145.571
146.147
147.005
148.285
150.189
153.052
157.716
144.4
144.4
144.4
144.4
144.4
144.4
144.4
144.4
144.4
144.401
144.401
144.401
144.402
144.402
144.403
144.405
144.407
144.411
144.416
144.423
144.434
144.451
144.475
144.511
144.564
144.642
144.759
144.932
145.19
145.573
146.142
146.988
148.243
150.101
152.837
156.84
162.646
170.961
182.822
200.286
144.4
144.4
144.4
144.4
144.4
144.401
144.401
144.401
144.402
144.403
144.404
144.405
144.408
144.412
144.417
144.425
144.436
144.453
144.478
144.515
144.569
144.649
144.767
144.941
145.2
145.583
146.149
146.988
148.227
150.053
152.734
156.643
162.292
170.353
181.659
197.174
217.954
244.987
279.39
322.706
144.4
144.401
144.401
144.401
144.402
144.403
144.404
144.406
144.409
144.412
144.418
144.426
144.438
144.456
144.482
144.52
144.575
144.657
144.778
144.955
145.217
145.602
146.17
147.007
148.238
150.045
152.687
156.526
162.054
169.919
180.93
196.022
216.194
242.42
275.423
315.432
362.219
415.108
473.049
535.575
144.402
144.403
144.404
144.406
144.409
144.413
144.42
144.428
144.441
144.46
144.487
144.526
144.584
144.669
144.793
144.974
145.241
145.632
146.205
147.046
148.278
150.078
152.699
156.493
161.935
169.651
180.423
195.163
214.838
240.388
272.582
311.74
357.615
409.565
466.416
526.147
587.071
648.632
706.502
757.897
144.41
144.415
144.421
144.431
144.444
144.464
144.493
144.534
144.595
144.683
144.812
144.999
145.273
145.673
146.257
147.109
148.352
150.159
152.778
156.551
161.944
169.559
180.154
194.616
213.887
238.874
270.34
308.698
353.771
404.883
461.098
520.756
581.761
642.801
702.382
755.145
797.641
828.988
850.507
866.285
144.434
144.448
144.469
144.5
144.544
144.608
144.701
144.836
145.031
145.315
145.727
146.327
147.198
148.461
150.29
152.927
156.709
162.089
169.656
180.14
194.402
213.362
237.902
268.758
306.382
350.709
401.092
456.569
515.9
577.067
638.115
698.083
753.758
800.531
836.319
861.38
878.233
890.103
899.192
905.08
910.345
144.557
144.625
144.723
144.865
145.071
145.368
145.797
146.418
147.316
148.611
150.477
153.155
156.976
162.384
169.955
180.4
194.548
213.296
237.504
267.88
304.872
348.504
398.221
453.044
511.829
572.976
634.344
694.244
751.486
801.807
841.914
870.981
890.574
903.904
913.886
920.832
925.442
929.787
934.417
939.317
943.958
144.902
145.12
145.434
145.885
146.533
147.467
148.807
150.728
153.47
157.362
162.842
170.474
180.952
195.079
213.721
237.715
267.747
304.244
347.261
396.355
450.59
508.798
569.655
631.262
691.581
749.158
801.98
845.906
879.114
901.96
917.204
928.151
936.241
941.258
945.343
949.611
954.146
958.362
962.314
966.43
970.642
975.295
145.994
146.678
147.657
149.056
151.05
153.882
157.879
163.477
171.23
181.817
196.019
214.67
238.575
268.399
304.549
347.076
395.603
449.294
506.989
567.398
628.987
689.726
747.759
801.71
848.676
885.706
912.231
929.883
942.035
951.097
956.862
960.983
964.921
969.055
973.291
977.049
980.921
984.859
988.728
992.818
997.536
1002.93
1009.18
151.459
154.409
158.549
164.313
172.25
183.025
197.397
216.173
240.122
269.879
305.829
348.012
396.073
449.26
506.479
566.451
627.776
688.737
747.337
801.868
850.769
891.065
921.183
941.755
955.503
965.468
972.4
976.664
980.308
984.091
988.228
991.843
995.449
999.149
1002.78
1006.47
1010.63
1015.43
1020.69
1026.36
1032.54
1039.31
1046.92
165.384
173.571
184.616
199.258
218.273
242.396
272.225
308.119
350.105
397.831
450.587
507.36
566.919
627.907
688.815
747.831
803.067
852.906
895.629
928.963
952.655
968.452
979.43
987.382
992.204
995.759
999.27
1002.91
1006.59
1010
1013.47
1016.91
1020.28
1023.96
1028.21
1032.97
1038.11
1043.7
1049.82
1056.41
1063.42
1070.86
1078.77
1087.39
201.672
221.043
245.467
275.504
311.478
353.398
400.914
453.337
509.708
568.869
629.513
690.215
749.384
805.203
855.911
900.009
935.929
962.535
980.75
993.027
1001.87
1007.58
1011.24
1014.49
1017.77
1021.37
1024.56
1027.8
1031.07
1034.2
1037.47
1041.19
1045.46
1050.11
1055.16
1060.7
1066.72
1073.17
1080.03
1087.3
1094.94
1102.94
1111.25
1119.93
1129.12
279.825
316.008
357.98
405.388
457.564
513.589
572.36
632.641
693.081
752.198
808.355
859.807
904.955
942.567
971.646
992.257
1006.2
1015.92
1022.65
1026.65
1029.72
1032.77
1035.98
1039.13
1042.14
1045.21
1048.18
1051.12
1054.38
1058.15
1062.34
1066.88
1071.86
1077.32
1083.22
1089.52
1096.22
1103.31
1110.76
1118.54
1126.61
1134.95
1143.52
1152.3
1161.29
1170.59
363.999
411.388
463.38
519.092
577.476
637.36
697.466
756.411
812.675
864.625
910.672
949.512
980.376
1003.12
1018.83
1029.63
1037.23
1041.81
1044.98
1047.8
1050.58
1053.68
1056.48
1059.33
1062.18
1064.86
1067.73
1071.02
1074.76
1078.83
1083.28
1088.2
1093.56
1099.31
1105.46
1111.99
1118.9
1126.14
1133.69
1141.53
1149.62
1157.92
1166.4
1175.02
1183.74
1192.52
1201.38
1210.32
584.367
643.798
703.477
762.11
818.288
870.486
917.169
957.028
989.233
1013.64
1030.97
1042.94
1051.37
1056.89
1060.19
1062.81
1065.37
1068.22
1070.83
1073.44
1076.13
1078.65
1081.19
1084.06
1087.35
1090.98
1094.96
1099.35
1104.18
1109.4
1115.01
1120.99
1127.35
1134.06
1141.08
1148.4
1156
1163.83
1171.87
1180.07
1188.4
1196.82
1205.29
1213.75
1222.18
1230.53
1238.79
1246.92
711.302
769.473
825.36
877.543
924.568
965.151
998.426
1024.15
1042.86
1055.93
1065.13
1071.5
1075.21
1077.81
1080.18
1082.53
1085.16
1087.56
1090.01
1092.44
1094.72
1097.22
1100.09
1103.31
1106.84
1110.73
1115.05
1119.77
1124.85
1130.3
1136.13
1142.3
1148.79
1155.59
1162.68
1170.02
1177.6
1185.36
1193.28
1201.33
1209.45
1217.62
1225.78
1233.9
1241.93
1249.81
1257.53
1265.01
1272.27
1279.2
933.086
974.067
1008.08
1034.83
1054.69
1068.75
1078.64
1085.67
1090.06
1092.77
1094.94
1097.03
1099.44
1101.66
1103.88
1106.19
1108.3
1110.47
1112.96
1115.78
1118.9
1122.34
1126.17
1130.39
1134.98
1139.91
1145.21
1150.86
1156.83
1163.11
1169.69
1176.54
1183.63
1190.93
1198.42
1206.06
1213.81
1221.64
1229.51
1237.37
1245.18
1252.91
1260.5
1267.9
1275.09
1282
1288.61
1294.87
1300.76
1306.15
1066.59
1081.51
1092.04
1099.56
1104.62
1107.56
1109.66
1111.57
1113.54
1115.74
1117.74
1119.82
1121.85
1123.78
1125.93
1128.37
1131.11
1134.14
1137.51
1141.26
1145.36
1149.81
1154.6
1159.73
1165.19
1170.96
1177.03
1183.38
1189.98
1196.81
1203.85
1211.06
1218.41
1225.87
1233.4
1240.97
1248.53
1256.04
1263.47
1270.76
1277.88
1284.77
1291.41
1297.74
1303.73
1309.33
1314.51
1319.23
1323.49
1327.1
1118.85
1122.11
1124.31
1126.04
1127.7
1129.73
1131.57
1133.41
1135.36
1137.11
1138.95
1141.06
1143.43
1146.08
1149.04
1152.34
1155.99
1159.96
1164.27
1168.91
1173.87
1179.14
1184.71
1190.56
1196.67
1203.02
1209.6
1216.36
1223.29
1230.36
1237.53
1244.76
1252.03
1259.29
1266.5
1273.63
1280.63
1287.45
1294.07
1300.43
1306.49
1312.23
1317.58
1322.53
1327.04
1331.06
1334.59
1337.55
1339.96
1341.63
1141.9
1143.62
1145.36
1146.97
1148.71
1150.4
1152
1153.8
1155.84
1158.14
1160.72
1163.61
1166.82
1170.36
1174.21
1178.37
1182.85
1187.64
1192.71
1198.07
1203.7
1209.57
1215.68
1221.99
1228.48
1235.14
1241.92
1248.79
1255.74
1262.7
1269.67
1276.58
1283.41
1290.12
1296.66
1303
1309.09
1314.89
1320.37
1325.49
1330.22
1334.51
1338.35
1341.69
1344.5
1346.75
1348.45
1349.5
1349.85
1349.47
1161.98
1163.61
1165.05
1166.56
1168.32
1170.29
1172.52
1175.03
1177.83
1180.95
1184.37
1188.09
1192.11
1196.43
1201.03
1205.91
1211.06
1216.46
1222.1
1227.95
1234
1240.23
1246.61
1253.1
1259.69
1266.34
1273.01
1279.68
1286.3
1292.84
1299.26
1305.52
1311.58
1317.4
1322.95
1328.19
1333.08
1337.59
1341.68
1345.33
1348.5
1351.16
1353.28
1354.85
1355.82
1356.09
1355.8
1354.83
1353.21
1350.86
1180.81
1182.5
1184.4
1186.57
1189
1191.72
1194.74
1198.04
1201.62
1205.5
1209.65
1214.07
1218.76
1223.69
1228.87
1234.27
1239.87
1245.66
1251.62
1257.71
1263.93
1270.23
1276.58
1282.96
1289.34
1295.67
1301.92
1308.06
1314.04
1319.84
1325.4
1330.7
1335.71
1340.37
1344.67
1348.57
1352.04
1355.05
1357.56
1359.56
1361.02
1361.88
1362.08
1361.75
1360.76
1359.17
1357.03
1354.35
1351.1
1346.98
1200.29
1202.64
1205.27
1208.18
1211.36
1214.81
1218.53
1222.52
1226.76
1231.25
1235.97
1240.92
1246.09
1251.44
1256.97
1262.66
1268.48
1274.41
1280.43
1286.5
1292.59
1298.67
1304.72
1310.68
1316.54
1322.26
1327.79
1333.1
1338.16
1342.93
1347.39
1351.48
1355.2
1358.5
1361.35
1363.73
1365.61
1366.97
1367.74
1367.87
1367.5
1366.5
1364.93
1362.8
1360.18
1356.99
1353.14
1348.57
1343.27
1337.07
1221.29
1224.35
1227.66
1231.23
1235.05
1239.11
1243.4
1247.91
1252.64
1257.57
1262.68
1267.95
1273.38
1278.93
1284.58
1290.31
1296.09
1301.9
1307.7
1313.46
1319.15
1324.73
1330.18
1335.45
1340.52
1345.34
1349.89
1354.14
1358.04
1361.58
1364.72
1367.43
1369.68
1371.45
1372.73
1373.41
1373.49
1373.09
1372.09
1370.53
1368.42
1365.84
1362.7
1358.93
1354.46
1349.3
1343.46
1336.88
1329.6
1321.4
1243.6
1247.25
1251.12
1255.22
1259.53
1264.03
1268.72
1273.59
1278.61
1283.77
1289.06
1294.43
1299.89
1305.39
1310.91
1316.43
1321.91
1327.32
1332.64
1337.82
1342.84
1347.67
1352.26
1356.6
1360.64
1364.36
1367.73
1370.72
1373.29
1375.42
1377.1
1378.29
1378.9
1378.95
1378.53
1377.55
1376.01
1373.93
1371.39
1368.3
1364.61
1360.24
1355.2
1349.49
1343.1
1336.02
1328.26
1319.79
1310.64
1300.61
1266.72
1270.82
1275.1
1279.57
1284.19
1288.96
1293.87
1298.89
1303.99
1309.17
1314.4
1319.64
1324.88
1330.09
1335.23
1340.28
1345.21
1349.98
1354.57
1358.94
1363.07
1366.92
1370.46
1373.66
1376.5
1378.95
1380.97
1382.56
1383.67
1384.22
1384.25
1383.84
1382.88
1381.37
1379.32
1376.83
1373.82
1370.22
1365.95
1361.04
1355.48
1349.25
1342.36
1334.81
1326.6
1317.72
1308.2
1297.96
1287.1
1275.37
1290.11
1294.49
1299.02
1303.67
1308.43
1313.27
1318.18
1323.14
1328.11
1333.08
1338.02
1342.89
1347.69
1352.36
1356.89
1361.25
1365.4
1369.32
1372.97
1376.34
1379.39
1382.09
1384.41
1386.33
1387.84
1388.88
1389.39
1389.4
1389.01
1388.08
1386.6
1384.6
1382.17
1379.25
1375.75
1371.6
1366.83
1361.43
1355.38
1348.69
1341.35
1333.37
1324.75
1315.5
1305.62
1295.09
1283.95
1272.11
1259.72
1246.45
1313.2
1317.7
1322.28
1326.93
1331.62
1336.32
1341.03
1345.7
1350.32
1354.86
1359.29
1363.58
1367.71
1371.64
1375.36
1378.83
1382.03
1384.92
1387.49
1389.7
1391.52
1392.95
1393.93
1394.4
1394.41
1394.04
1393.15
1391.71
1389.75
1387.4
1384.58
1381.19
1377.18
1372.57
1367.34
1361.48
1355
1347.9
1340.16
1331.8
1322.83
1313.24
1303.03
1292.22
1280.81
1268.79
1256.21
1242.97
1229.22
1214.67
1335.42
1339.85
1344.3
1348.74
1353.16
1357.52
1361.81
1366
1370.06
1373.97
1377.69
1381.21
1384.5
1387.53
1390.28
1392.71
1394.81
1396.54
1397.9
1398.81
1399.26
1399.27
1398.93
1398.08
1396.69
1394.79
1392.52
1389.8
1386.54
1382.68
1378.23
1373.2
1367.54
1361.29
1354.43
1346.95
1338.87
1330.19
1320.9
1311.01
1300.54
1289.47
1277.83
1265.62
1252.86
1239.54
1225.7
1211.27
1196.38
1180.78
1356.23
1360.39
1364.51
1368.56
1372.51
1376.35
1380.04
1383.56
1386.89
1390
1392.87
1395.47
1397.77
1399.76
1401.41
1402.69
1403.55
1403.98
1403.99
1403.69
1402.88
1401.54
1399.71
1397.53
1394.92
1391.79
1388.08
1383.82
1378.98
1373.54
1367.52
1360.92
1353.72
1345.93
1337.55
1328.58
1319.03
1308.9
1298.2
1286.93
1275.1
1262.74
1249.84
1236.42
1222.49
1208.07
1193.19
1177.78
1161.98
1145.58
1371.3
1375.12
1378.84
1382.45
1385.93
1389.26
1392.4
1395.34
1398.05
1400.5
1402.68
1404.56
1406.13
1407.34
1408.15
1408.55
1408.58
1408.32
1407.55
1406.26
1404.5
1402.41
1399.92
1396.93
1393.39
1389.3
1384.67
1379.46
1373.69
1367.35
1360.43
1352.94
1344.88
1336.25
1327.05
1317.28
1306.95
1296.07
1284.64
1272.68
1260.2
1247.2
1233.71
1219.74
1205.31
1190.43
1175.13
1159.42
1143.28
1126.81
1109.85
1388.39
1391.66
1394.79
1397.75
1400.52
1403.08
1405.39
1407.45
1409.23
1410.71
1411.84
1412.61
1413
1413.05
1412.81
1412.08
1410.85
1409.17
1407.18
1404.8
1401.95
1398.58
1394.68
1390.26
1385.28
1379.76
1373.69
1367.07
1359.89
1352.16
1343.87
1335.03
1325.63
1315.69
1305.21
1294.2
1282.66
1270.6
1258.05
1245
1231.48
1217.5
1203.09
1188.25
1173.02
1157.41
1141.44
1125.14
1108.5
1091.61
1074.35
1400.18
1402.96
1405.56
1407.97
1410.15
1412.09
1413.76
1415.16
1416.23
1416.95
1417.32
1417.39
1417.17
1416.49
1415.31
1413.72
1411.81
1409.56
1406.85
1403.65
1399.94
1395.73
1390.99
1385.72
1379.93
1373.61
1366.74
1359.34
1351.4
1342.93
1333.92
1324.38
1314.31
1303.72
1292.61
1281
1268.9
1256.31
1243.25
1229.75
1215.8
1201.44
1186.68
1171.54
1156.05
1140.24
1124.12
1107.72
1091.07
1074.17
1057.11
1039.8
1412.73
1414.78
1416.6
1418.18
1419.49
1420.48
1421.17
1421.53
1421.61
1421.41
1420.77
1419.65
1418.14
1416.33
1414.19
1411.62
1408.59
1405.07
1401.08
1396.57
1391.57
1386.05
1380.02
1373.47
1366.42
1358.83
1350.73
1342.11
1332.97
1323.32
1313.16
1302.5
1291.34
1279.7
1267.58
1255
1241.98
1228.52
1214.64
1200.37
1185.72
1170.71
1155.38
1139.73
1123.81
1107.63
1091.23
1074.64
1057.88
1040.96
1023.98
1006.86
1422.47
1423.7
1424.63
1425.27
1425.62
1425.72
1425.52
1424.93
1423.87
1422.44
1420.71
1418.69
1416.27
1413.4
1410.07
1406.29
1402.02
1397.27
1392.03
1386.3
1380.07
1373.35
1366.12
1358.39
1350.16
1341.43
1332.2
1322.48
1312.27
1301.57
1290.4
1278.76
1266.67
1254.14
1241.18
1227.8
1214.03
1199.88
1185.37
1170.53
1155.37
1139.93
1124.22
1108.29
1092.15
1075.83
1059.38
1042.81
1026.17
1009.47
992.799
976.107
1429.27
1429.61
1429.71
1429.53
1428.97
1427.98
1426.63
1424.98
1423.07
1420.78
1418.08
1414.94
1411.36
1407.32
1402.83
1397.87
1392.43
1386.52
1380.13
1373.26
1365.9
1358.06
1349.74
1340.93
1331.64
1321.88
1311.65
1300.95
1289.8
1278.21
1266.17
1253.72
1240.85
1227.59
1213.95
1199.96
1185.62
1170.97
1156.02
1140.8
1125.34
1109.66
1093.79
1077.77
1061.63
1045.39
1029.1
1012.79
996.488
980.225
964.085
948.036
1433.42
1432.91
1431.97
1430.69
1429.12
1427.32
1425.17
1422.63
1419.66
1416.29
1412.48
1408.23
1403.54
1398.39
1392.79
1386.73
1380.22
1373.23
1365.78
1357.86
1349.47
1340.62
1331.31
1321.54
1311.32
1300.66
1289.56
1278.03
1266.09
1253.74
1241
1227.88
1214.41
1200.59
1186.45
1172.01
1157.29
1142.32
1127.12
1111.72
1096.15
1080.43
1064.61
1048.71
1032.76
1016.81
1000.89
985.029
969.279
953.659
938.26
923.052
1434.65
1433.16
1431.45
1429.42
1427.04
1424.25
1421.07
1417.48
1413.47
1409.04
1404.18
1398.89
1393.16
1386.98
1380.36
1373.29
1365.77
1357.81
1349.39
1340.53
1331.22
1321.48
1311.3
1300.69
1289.67
1278.24
1266.41
1254.19
1241.6
1228.66
1215.37
1201.75
1187.83
1173.63
1159.16
1144.46
1129.54
1114.43
1099.16
1083.77
1068.27
1052.71
1037.12
1021.53
1005.98
990.501
975.139
959.929
944.916
930.13
915.652
901.462
1433.56
1431.31
1428.69
1425.7
1422.33
1418.55
1414.38
1409.8
1404.8
1399.38
1393.55
1387.28
1380.59
1373.47
1365.91
1357.92
1349.5
1340.65
1331.38
1321.68
1311.57
1301.05
1290.14
1278.82
1267.13
1255.07
1242.66
1229.9
1216.82
1203.43
1189.75
1175.79
1161.6
1147.17
1132.55
1117.75
1102.8
1087.73
1072.58
1057.36
1042.13
1026.9
1011.71
996.612
981.629
966.804
952.178
937.788
923.68
909.886
896.467
883.409
1427.02
1423.47
1419.54
1415.23
1410.52
1405.41
1399.9
1393.99
1387.66
1380.92
1373.77
1366.2
1358.22
1349.82
1341.01
1331.79
1322.17
1312.15
1301.74
1290.95
1279.78
1268.25
1256.37
1244.14
1231.59
1218.74
1205.58
1192.16
1178.48
1164.56
1150.43
1136.11
1121.63
1107.01
1092.28
1077.47
1062.61
1047.73
1032.86
1018.04
1003.31
988.698
974.247
959.994
945.978
932.238
918.811
905.731
893.007
880.644
868.593
1420.47
1416.04
1411.24
1406.04
1400.47
1394.5
1388.13
1381.37
1374.21
1366.66
1358.7
1350.35
1341.6
1332.46
1322.94
1313.03
1302.75
1292.1
1281.1
1269.74
1258.05
1246.04
1233.72
1221.1
1208.2
1195.04
1181.64
1168.02
1154.19
1140.19
1126.03
1111.75
1097.36
1082.9
1068.39
1053.87
1039.36
1024.91
1010.54
996.295
982.206
968.313
954.654
941.266
928.185
915.441
903.038
890.972
879.165
867.319
855.421
1411.97
1406.72
1401.09
1395.09
1388.71
1381.95
1374.81
1367.28
1359.38
1351.09
1342.43
1333.39
1323.98
1314.2
1304.07
1293.59
1282.76
1271.6
1260.12
1248.33
1236.25
1223.88
1211.25
1198.37
1185.26
1171.94
1158.43
1144.74
1130.92
1116.97
1102.93
1088.82
1074.66
1060.5
1046.36
1032.26
1018.25
1004.36
990.629
977.085
963.768
950.716
937.961
925.533
913.434
901.666
890.121
878.502
866.816
855.281
843.738
1395.78
1389.41
1382.67
1375.56
1368.09
1360.25
1352.05
1343.49
1334.57
1325.29
1315.66
1305.69
1295.39
1284.76
1273.81
1262.55
1251
1239.16
1227.06
1214.7
1202.11
1189.3
1176.28
1163.09
1149.73
1136.24
1122.63
1108.94
1095.18
1081.38
1067.57
1053.78
1040.05
1026.39
1012.85
999.464
986.259
973.273
960.542
948.096
935.966
924.153
912.664
901.374
889.997
878.549
867.231
855.9
844.479
832.792
1383.53
1376.48
1369.08
1361.33
1353.23
1344.78
1335.99
1326.86
1317.4
1307.61
1297.49
1287.07
1276.34
1265.31
1254.01
1242.43
1230.6
1218.53
1206.23
1193.72
1181.02
1168.15
1155.12
1141.96
1128.7
1115.35
1101.94
1088.49
1075.03
1061.6
1048.21
1034.91
1021.71
1008.66
995.784
983.119
970.696
958.548
946.701
935.157
923.931
912.887
901.747
890.539
879.454
868.352
857.122
845.623
833.639
820.782
1370.25
1362.6
1354.62
1346.3
1337.66
1328.69
1319.4
1309.8
1299.89
1289.68
1279.18
1268.4
1257.35
1246.04
1234.49
1222.7
1210.7
1198.5
1186.12
1173.57
1160.87
1148.05
1135.12
1122.12
1109.05
1095.95
1082.85
1069.76
1056.72
1043.75
1030.89
1018.17
1005.62
993.26
981.136
969.272
957.696
946.41
935.432
924.632
913.725
902.752
891.894
881.021
870.014
858.724
846.911
834.229
820.197
804.057
1356.22
1348.04
1339.56
1330.76
1321.65
1312.25
1302.55
1292.57
1282.31
1271.78
1260.99
1249.96
1238.69
1227.19
1215.49
1203.6
1191.54
1179.31
1166.95
1154.46
1141.88
1129.21
1116.49
1103.73
1090.97
1078.23
1065.52
1052.89
1040.36
1027.95
1015.71
1003.65
991.818
980.229
968.912
957.873
947.131
936.573
925.901
915.156
904.522
893.876
883.094
872.026
860.437
847.974
834.128
818.182
799.203
776.02
1341.67
1333.06
1324.15
1314.95
1305.48
1295.73
1285.71
1275.44
1264.91
1254.16
1243.17
1231.98
1220.58
1209
1197.25
1185.35
1173.32
1161.16
1148.91
1136.59
1124.21
1111.79
1099.37
1086.96
1074.58
1062.28
1050.07
1037.97
1026.03
1014.27
1002.71
991.382
980.315
969.514
958.994
948.676
938.243
927.719
917.308
906.887
896.333
885.497
874.15
861.944
848.374
832.721
814.022
791.107
762.784
728.214
1326.87
1317.89
1308.64
1299.13
1289.36
1279.35
1269.09
1258.62
1247.92
1237.02
1225.93
1214.66
1203.23
1191.66
1179.95
1168.13
1156.21
1144.22
1132.17
1120.09
1108
1095.92
1083.87
1071.88
1059.98
1048.19
1036.54
1025.06
1013.77
1002.7
991.873
981.3
970.992
960.909
950.717
940.41
930.22
920.024
909.699
899.104
888.018
876.1
862.859
847.585
829.316
806.867
778.987
744.737
703.982
657.637
1312.03
1302.76
1293.24
1283.49
1273.51
1263.31
1252.91
1242.31
1231.52
1220.57
1209.45
1198.2
1186.81
1175.32
1163.73
1152.07
1140.35
1128.6
1116.84
1105.08
1093.35
1081.67
1070.07
1058.58
1047.22
1036.01
1024.98
1014.15
1003.56
993.206
983.101
973.241
963.294
953.202
943.23
933.257
923.163
912.816
902.004
890.402
877.535
862.713
844.988
823.172
795.972
762.353
722.032
675.763
625.114
571.949
1287.85
1278.14
1268.23
1258.11
1247.81
1237.33
1226.68
1215.88
1204.94
1193.88
1182.71
1171.45
1160.11
1148.72
1137.29
1125.85
1114.4
1102.99
1091.62
1080.32
1069.11
1058.02
1047.08
1036.3
1025.72
1015.35
1005.21
995.298
985.647
975.945
966.072
956.312
946.561
936.695
926.602
916.075
904.808
892.352
878.043
860.959
839.922
813.606
780.876
741.287
695.431
644.778
591.137
536.229
481.653
1273.34
1263.51
1253.5
1243.32
1232.98
1222.49
1211.87
1201.13
1190.28
1179.34
1168.32
1157.25
1146.14
1135.01
1123.87
1112.76
1101.69
1090.68
1079.75
1068.94
1058.25
1047.72
1037.37
1027.22
1017.28
1007.56
998.102
988.644
979.003
969.445
959.909
950.271
940.434
930.197
919.279
907.259
893.509
877.145
857.009
831.76
800.164
761.592
716.441
666.052
612.212
556.664
500.992
446.65
395.025
1259.37
1249.49
1239.45
1229.27
1218.96
1208.53
1197.99
1187.37
1176.67
1165.91
1155.11
1144.29
1133.46
1122.64
1111.86
1101.14
1090.49
1079.94
1069.51
1059.22
1049.09
1039.15
1029.41
1019.88
1010.59
1001.37
991.974
982.608
973.278
963.867
954.286
944.339
933.777
922.209
909.048
893.458
874.321
850.292
820.054
782.784
738.643
688.801
634.997
579.006
522.443
466.791
413.431
363.643
318.59
1236.18
1226.18
1216.06
1205.83
1195.52
1185.13
1174.68
1164.19
1153.67
1143.14
1132.61
1122.12
1111.67
1101.29
1091
1080.82
1070.76
1060.86
1051.13
1041.58
1032.23
1023.09
1014.11
1004.97
995.78
986.652
977.466
968.135
958.475
948.269
937.157
924.6
909.818
891.746
869.057
840.37
804.673
761.858
712.878
659.383
603.167
545.881
489.045
434.077
382.301
334.915
292.923
257.059
1223.7
1213.78
1203.77
1193.68
1183.54
1173.35
1163.12
1152.89
1142.65
1132.44
1122.26
1112.14
1102.11
1092.16
1082.34
1072.65
1063.13
1053.77
1044.6
1035.61
1026.83
1017.96
1008.94
1000.01
991.049
981.959
972.582
962.726
952.065
940.112
926.151
909.179
887.912
860.93
827.052
785.88
738.102
685.226
629.045
571.245
513.383
456.911
403.198
353.507
308.934
270.323
238.153
212.462
1202.32
1192.47
1182.57
1172.64
1162.69
1152.73
1142.8
1132.89
1123.03
1113.24
1103.53
1093.94
1084.46
1075.13
1065.96
1056.97
1048.14
1039.52
1030.9
1022.09
1013.35
1004.6
995.74
986.639
977.123
966.901
955.539
942.39
926.526
906.723
881.556
849.704
810.481
764.258
712.348
656.501
598.442
539.759
481.934
426.378
374.408
327.208
285.748
250.673
222.2
200.059
183.554
1191.84
1182.19
1172.52
1162.85
1153.18
1143.53
1133.93
1124.38
1114.91
1105.53
1096.27
1087.14
1078.15
1069.32
1060.66
1052.18
1043.79
1035.22
1026.65
1018.1
1009.46
1000.63
991.438
981.636
970.844
958.481
943.705
925.372
902.081
872.414
835.416
791.103
740.533
685.362
627.339
568.083
509.109
451.857
397.692
347.873
303.481
265.324
233.82
208.903
190.03
176.296
166.64
1172.97
1163.57
1154.18
1144.82
1135.52
1126.28
1117.12
1108.06
1099.12
1090.32
1081.66
1073.15
1064.81
1056.61
1048.32
1039.9
1031.54
1023.12
1014.54
1005.65
996.25
985.995
974.38
960.65
943.755
922.352
894.972
860.431
818.376
769.538
715.421
657.768
598.232
538.357
479.609
423.392
371.022
323.681
282.322
247.56
219.553
197.96
182.003
170.644
162.801
157.511
1164.82
1155.7
1146.63
1137.62
1128.68
1119.83
1111.08
1102.45
1093.96
1085.61
1077.41
1069.36
1061.31
1053.09
1044.91
1036.7
1028.36
1019.76
1010.73
1000.97
990.055
977.312
961.793
942.242
917.19
885.278
845.795
799.09
746.437
689.527
630.047
569.564
509.569
451.496
396.71
346.47
301.856
263.666
232.29
207.62
189.056
175.643
166.279
159.915
155.672
152.881
1157.72
1148.93
1140.2
1131.55
1122.99
1114.54
1106.22
1098.02
1089.96
1082.04
1074.21
1066.22
1058.2
1050.19
1042.06
1033.74
1025.05
1015.76
1005.48
993.653
979.426
961.651
938.903
909.72
873.075
828.892
778.136
722.382
663.33
602.575
541.632
481.954
424.945
371.925
324.078
282.363
247.392
219.309
197.744
181.883
170.651
162.94
157.768
154.353
152.124
150.679
1151.67
1143.22
1134.85
1126.58
1118.41
1110.37
1102.45
1094.66
1087
1079.28
1071.41
1063.57
1055.66
1047.59
1039.22
1030.34
1020.65
1009.65
996.615
980.504
959.982
933.55
899.933
858.63
810.215
756.064
697.851
637.202
575.651
514.67
455.689
400.075
349.094
303.838
265.119
233.337
208.384
189.65
176.154
166.765
160.411
156.194
153.434
151.642
150.487
149.748
1146.65
1138.55
1130.55
1122.66
1114.88
1107.22
1099.68
1092.18
1084.52
1076.85
1069.14
1061.3
1053.22
1044.72
1035.56
1025.31
1013.34
998.757
980.332
956.595
926.108
887.983
842.34
790.265
733.341
673.216
611.44
549.506
488.86
430.902
376.959
328.232
285.7
250.002
221.311
199.273
183.071
171.615
163.767
158.519
155.067
152.822
151.373
150.444
149.851
149.474
1142.6
1134.86
1127.23
1119.7
1112.28
1104.95
1097.55
1090.03
1082.5
1074.87
1067.05
1058.9
1050.2
1040.61
1029.6
1016.39
999.897
978.727
951.374
916.637
874.162
824.648
769.499
710.349
648.774
586.279
524.324
464.333
407.676
355.631
309.315
269.577
236.863
211.111
191.736
177.764
168.047
161.477
157.127
154.287
152.45
151.269
150.516
150.037
149.734
149.545
1139.49
1132.1
1124.8
1117.6
1110.41
1103.08
1095.72
1088.29
1080.72
1072.87
1064.58
1055.57
1045.4
1033.41
1018.65
999.868
975.556
944.307
905.328
858.843
805.982
748.297
687.385
624.764
561.905
500.246
441.185
386.059
336.087
292.288
255.358
225.535
202.525
185.547
173.515
165.266
159.75
156.128
153.778
152.264
151.296
150.68
150.288
150.043
149.892
149.805
1130.14
1123.12
1116.03
1108.82
1101.58
1094.21
1086.64
1078.71
1070.2
1060.75
1049.83
1036.61
1019.99
998.537
970.757
935.495
892.467
842.413
786.719
726.967
664.694
601.377
538.465
477.374
419.477
366.068
318.298
277.07
242.909
215.839
195.349
180.5
170.137
163.12
158.471
155.439
153.481
152.226
151.426
150.917
150.595
150.394
150.273
150.206
150.173
1128.8
1121.77
1114.7
1107.53
1100.21
1092.59
1084.52
1075.7
1065.68
1053.8
1039.09
1020.26
995.816
964.36
925.135
878.389
825.235
767.174
705.758
642.471
578.766
516.071
455.781
399.239
347.693
302.208
263.559
232.085
207.597
189.391
176.411
167.473
161.485
157.549
154.996
153.354
152.305
151.638
151.214
150.946
150.781
150.685
150.632
150.609
150.606
1127.67
1120.69
1113.58
1106.24
1098.54
1090.25
1081.01
1070.27
1057.22
1040.73
1019.38
991.683
956.479
913.491
863.428
807.624
747.605
684.871
620.876
557.051
494.805
435.512
380.481
330.902
287.746
251.641
222.734
200.634
184.475
173.12
165.394
160.263
156.912
154.748
153.361
152.478
151.916
151.561
151.337
151.201
151.123
151.082
151.066
151.067
151.08
1119.67
1112.29
1104.45
1095.86
1086.08
1074.44
1059.99
1041.44
1017.31
986.188
947.304
900.856
847.891
789.844
728.22
664.474
600.037
536.324
474.725
416.59
363.189
315.645
274.822
241.19
214.704
194.787
180.444
170.493
163.791
159.373
156.503
154.657
153.478
152.728
152.251
151.949
151.761
151.649
151.585
151.553
151.542
151.546
151.561
151.584
1118.31
1110.26
1101.28
1090.83
1078.12
1062.03
1041.16
1014.03
979.447
937.071
887.52
832.047
772.118
709.193
644.702
580.056
516.654
455.867
399.019
347.334
301.859
263.339
232.08
207.849
189.905
177.159
168.416
162.578
158.753
156.28
154.694
153.683
153.041
152.632
152.375
152.216
152.122
152.069
152.044
152.037
152.044
152.059
152.082
152.111
1115.95
1106.48
1095.22
1081.23
1063.27
1039.87
1009.61
971.633
926.033
873.745
816.125
754.625
690.669
625.666
561.012
498.09
438.25
382.786
332.872
289.468
253.193
224.181
202.028
185.852
174.503
166.794
161.684
158.353
156.207
154.834
153.962
153.406
153.054
152.832
152.697
152.618
152.574
152.554
152.551
152.558
152.574
152.597
152.625
152.657
1111.41
1099.18
1083.73
1063.7
1037.58
1004.16
962.952
914.44
859.764