/*--------------------------------*- C++ -*----------------------------------*\
| =========                 |                                                 |
| \\      /  F ield         | OpenFOAM: The Open Source CFD Toolbox           |
|  \\    /   O peration     | Version:  v1706                                 |
|   \\  /    A nd           | Web:      www.OpenFOAM.com                      |
|    \\/     M anipulation  |                                                 |
\*---------------------------------------------------------------------------*/
FoamFile
{
    version     2.0;
    format      ascii;
    class       volScalarField;
    location    "3e-06";
    object      Tv;
}
// * * * * * * * * * * * * * * * * * * * * * * * * * * * * * * * * * * * * * //

dimensions      [0 0 0 1 0 0 0];


internalField   nonuniform List<scalar> 
30038
(
144.4
144.4
144.4
144.4
144.4
144.4
144.4
144.4
144.4
144.4
144.4
144.4
144.4
144.4
144.4
144.4
144.4
144.4
144.4
144.4
144.4
144.4
144.4
144.4
144.4
144.4
144.4
144.4
144.4
144.4
144.4
144.4
144.4
144.4
144.4
144.4
144.4
144.4
144.4
144.4
144.4
144.4
144.4
144.4
144.4
144.4
144.4
144.4
144.4
144.4
144.4
144.4
144.4
144.4
144.4
144.4
144.4
144.4
144.4
144.4
144.4
144.4
144.4
144.4
144.4
144.4
144.4
144.4
144.4
144.4
144.4
144.4
144.4
144.4
144.4
144.4
144.4
144.4
144.4
144.4
144.4
144.4
144.4
144.4
144.4
144.4
144.4
144.4
144.4
144.4
144.4
144.4
144.4
144.4
144.4
144.4
144.4
144.4
144.4
144.4
144.4
144.4
144.4
144.4
144.4
144.4
144.4
144.4
144.4
144.4
144.4
144.4
144.4
144.4
144.4
144.4
144.4
144.4
144.4
144.4
144.4
144.4
144.4
144.4
144.4
144.4
144.4
144.4
144.4
144.4
144.4
144.4
144.4
144.4
144.4
144.4
144.4
144.4
144.4
144.4
144.4
144.4
144.4
144.4
144.4
144.4
144.4
144.4
144.4
144.4
144.4
144.4
144.4
144.4
144.4
144.4
144.4
144.4
144.4
144.4
144.4
144.4
144.4
144.4
144.4
144.4
144.4
144.4
144.4
144.4
144.4
144.4
144.4
144.4
144.4
144.4
144.4
144.4
144.4
144.4
144.4
144.4
144.4
144.4
144.4
144.4
144.4
144.4
144.4
144.4
144.4
144.4
144.4
144.4
144.4
144.4
144.4
144.4
144.4
144.4
144.4
144.4
144.4
144.4
144.4
144.4
144.4
144.4
144.4
144.4
144.4
144.4
144.4
144.4
144.4
144.4
144.4
144.4
144.4
144.4
144.4
144.4
144.4
144.4
144.4
144.4
144.4
144.4
144.4
144.4
144.4
144.4
144.4
144.4
144.4
144.4
144.4
144.4
144.4
144.4
144.4
144.4
144.4
144.4
144.4
144.4
144.4
144.4
144.4
144.4
144.4
144.4
144.4
144.4
144.4
144.4
144.4
144.4
144.4
144.4
144.4
144.4
144.4
144.4
144.4
144.4
144.4
144.4
144.4
144.4
144.4
144.4
144.4
144.4
144.4
144.4
144.4
144.4
144.4
144.4
144.4
144.4
144.4
144.4
144.4
144.4
144.4
144.4
144.4
144.4
144.4
144.4
144.4
144.4
144.4
144.4
144.4
144.4
144.4
144.4
144.4
144.4
144.4
144.4
144.4
144.4
144.4
144.4
144.4
144.4
144.4
144.4
144.4
144.4
144.4
144.4
144.4
144.4
144.4
144.4
144.4
144.4
144.4
144.4
144.4
144.4
144.4
144.4
144.4
144.4
144.4
144.4
144.4
144.4
144.4
144.4
144.4
144.4
144.4
144.4
144.4
144.4
144.4
144.4
144.4
144.4
144.4
144.4
144.4
144.4
144.4
144.4
144.4
144.4
144.4
144.4
144.4
144.4
144.4
144.4
144.4
144.4
144.4
144.4
144.4
144.4
144.4
144.4
144.4
144.4
144.4
144.4
144.4
144.4
144.4
144.4
144.4
144.4
144.4
144.4
144.4
144.401
144.4
144.4
144.4
144.4
144.4
144.4
144.4
144.4
144.4
144.4
144.4
144.4
144.4
144.4
144.4
144.4
144.4
144.4
144.4
144.4
144.4
144.4
144.4
144.4
144.4
144.4
144.4
144.4
144.4
144.4
144.4
144.4
144.4
144.401
144.401
144.401
144.402
144.404
144.407
144.4
144.4
144.4
144.4
144.4
144.4
144.4
144.4
144.4
144.4
144.4
144.4
144.4
144.4
144.4
144.4
144.4
144.4
144.4
144.4
144.4
144.4
144.4
144.4
144.4
144.4
144.4
144.4
144.4
144.4
144.401
144.401
144.402
144.403
144.404
144.407
144.411
144.418
144.43
144.456
144.4
144.4
144.4
144.4
144.4
144.4
144.4
144.4
144.4
144.4
144.4
144.4
144.4
144.4
144.4
144.4
144.4
144.4
144.4
144.4
144.4
144.4
144.4
144.4
144.4
144.4
144.401
144.401
144.402
144.403
144.404
144.407
144.412
144.42
144.432
144.452
144.486
144.54
144.629
144.801
144.4
144.4
144.4
144.4
144.4
144.4
144.4
144.4
144.4
144.4
144.4
144.4
144.4
144.4
144.4
144.4
144.4
144.4
144.4
144.4
144.4
144.4
144.401
144.401
144.402
144.403
144.405
144.408
144.413
144.421
144.434
144.456
144.491
144.547
144.638
144.783
145.009
145.353
145.864
146.68
144.4
144.4
144.4
144.4
144.4
144.4
144.4
144.4
144.4
144.4
144.4
144.4
144.4
144.4
144.4
144.4
144.4
144.4
144.401
144.401
144.402
144.403
144.405
144.409
144.414
144.423
144.437
144.459
144.496
144.555
144.65
144.8
145.033
145.385
145.9
146.62
147.575
148.772
150.205
151.96
144.4
144.4
144.4
144.4
144.4
144.4
144.4
144.4
144.4
144.4
144.4
144.4
144.4
144.401
144.401
144.401
144.402
144.404
144.406
144.409
144.415
144.425
144.44
144.464
144.503
144.565
144.665
144.821
145.062
145.426
145.954
146.688
147.658
148.869
150.298
151.902
153.627
155.428
157.278
159.263
144.4
144.4
144.4
144.4
144.4
144.4
144.4
144.4
144.4
144.401
144.401
144.402
144.403
144.404
144.407
144.411
144.417
144.427
144.443
144.469
144.511
144.578
144.683
144.847
145.098
145.475
146.019
146.771
147.759
148.986
150.431
152.05
153.787
155.595
157.436
159.271
161.081
162.868
164.629
166.5
144.4
144.4
144.4
144.4
144.4
144.401
144.401
144.402
144.403
144.405
144.407
144.412
144.419
144.43
144.448
144.476
144.521
144.592
144.704
144.878
145.142
145.534
146.097
146.871
147.88
149.127
150.589
152.222
153.972
155.789
157.636
159.483
161.302
163.087
164.846
166.564
168.237
169.862
171.429
173.094
144.4
144.401
144.401
144.401
144.402
144.403
144.405
144.409
144.413
144.421
144.434
144.453
144.484
144.533
144.61
144.73
144.915
145.195
145.607
146.193
146.991
148.026
149.296
150.776
152.424
154.186
156.012
157.864
159.717
161.546
163.334
165.09
166.816
168.499
170.135
171.719
173.251
174.738
176.172
177.536
178.98
144.403
144.404
144.406
144.41
144.415
144.424
144.438
144.46
144.494
144.548
144.632
144.763
144.962
145.26
145.695
146.308
147.136
148.2
149.496
150.997
152.66
154.433
156.268
158.125
159.98
161.814
163.608
165.36
167.084
168.775
170.421
172.016
173.56
175.055
176.501
177.882
179.211
180.506
181.76
182.96
184.224
144.411
144.418
144.428
144.444
144.468
144.507
144.567
144.66
144.802
145.018
145.338
145.801
146.448
147.31
148.408
149.733
151.258
152.936
154.719
156.562
158.423
160.278
162.112
163.91
165.663
167.378
169.069
170.722
172.326
173.88
175.385
176.84
178.234
179.569
180.865
182.124
183.337
184.506
185.639
186.738
187.795
188.9
144.451
144.479
144.522
144.59
144.693
144.85
145.087
145.434
145.93
146.615
147.518
148.654
150.012
151.562
153.257
155.051
156.898
158.762
160.616
162.446
164.243
165.997
167.708
169.389
171.043
172.654
174.216
175.729
177.192
178.598
179.939
181.237
182.498
183.717
184.89
186.027
187.131
188.198
189.227
190.22
191.179
192.1
193.056
144.735
144.91
145.171
145.55
146.086
146.815
147.764
148.944
150.338
151.915
153.629
155.432
157.282
159.146
160.998
162.823
164.614
166.365
168.073
169.742
171.388
173.002
174.571
176.09
177.56
178.976
180.327
181.625
182.886
184.108
185.284
186.423
187.529
188.601
189.636
190.636
191.602
192.535
193.433
194.296
195.125
195.918
196.732
145.692
146.273
147.053
148.055
149.282
150.716
152.322
154.054
155.866
157.719
159.58
161.428
163.247
165.029
166.772
168.474
170.136
171.767
173.376
174.947
176.471
177.947
179.37
180.73
182.03
183.29
184.513
185.692
186.83
187.936
189.01
190.048
191.053
192.025
192.964
193.871
194.745
195.586
196.393
197.166
197.905
198.609
199.278
199.958
148.396
149.675
151.151
152.787
154.537
156.357
158.211
160.069
161.91
163.72
165.493
167.225
168.917
170.571
172.189
173.782
175.349
176.876
178.354
179.782
181.151
182.456
183.714
184.934
186.115
187.252
188.356
189.429
190.468
191.475
192.449
193.393
194.306
195.187
196.037
196.855
197.641
198.395
199.115
199.801
200.454
201.072
201.656
202.205
202.755
153.315
155.082
156.909
158.762
160.613
162.445
164.245
166.006
167.726
169.405
171.047
172.655
174.233
175.786
177.309
178.788
180.218
181.592
182.903
184.159
185.376
186.555
187.691
188.792
189.861
190.899
191.905
192.88
193.825
194.741
195.627
196.483
197.309
198.105
198.87
199.604
200.305
200.975
201.612
202.215
202.785
203.32
203.821
204.288
204.721
205.147
157.526
159.374
161.217
163.037
164.823
166.571
168.276
169.942
171.57
173.164
174.729
176.266
177.776
179.251
180.681
182.057
183.373
184.627
185.84
187.015
188.149
189.245
190.31
191.345
192.348
193.321
194.265
195.181
196.069
196.929
197.76
198.562
199.335
200.079
200.793
201.477
202.129
202.75
203.338
203.894
204.417
204.907
205.363
205.785
206.173
206.527
206.847
207.154
165.459
167.189
168.878
170.527
172.14
173.719
175.269
176.792
178.286
179.75
181.174
182.549
183.867
185.123
186.33
187.498
188.629
189.719
190.778
191.807
192.805
193.775
194.716
195.63
196.517
197.377
198.21
199.016
199.795
200.546
201.269
201.963
202.628
203.263
203.868
204.442
204.984
205.495
205.973
206.419
206.831
207.21
207.556
207.868
208.146
208.389
208.6
208.792
169.535
171.165
172.759
174.321
175.855
177.362
178.842
180.291
181.704
183.074
184.39
185.646
186.847
188.008
189.133
190.218
191.268
192.289
193.281
194.244
195.18
196.09
196.974
197.832
198.665
199.472
200.253
201.009
201.738
202.44
203.114
203.761
204.379
204.967
205.526
206.055
206.553
207.02
207.455
207.858
208.228
208.566
208.871
209.142
209.381
209.585
209.756
209.893
209.997
210.077
176.488
177.978
179.441
180.875
182.276
183.635
184.945
186.199
187.395
188.547
189.662
190.741
191.782
192.794
193.778
194.733
195.662
196.565
197.443
198.297
199.127
199.933
200.714
201.471
202.203
202.91
203.592
204.246
204.875
205.475
206.048
206.592
207.106
207.592
208.047
208.471
208.864
209.226
209.556
209.854
210.12
210.352
210.552
210.719
210.852
210.953
211.02
211.051
211.049
211.026
182.889
184.236
185.537
186.784
187.975
189.117
190.221
191.29
192.322
193.323
194.297
195.243
196.163
197.058
197.929
198.776
199.601
200.402
201.181
201.937
202.67
203.379
204.064
204.724
205.36
205.969
206.553
207.109
207.638
208.139
208.611
209.055
209.468
209.852
210.205
210.527
210.818
211.077
211.305
211.5
211.663
211.792
211.89
211.955
211.984
211.98
211.949
211.88
211.777
211.644
188.589
189.721
190.813
191.87
192.891
193.88
194.842
195.777
196.686
197.571
198.433
199.272
200.089
200.884
201.658
202.41
203.141
203.849
204.535
205.199
205.838
206.454
207.045
207.612
208.152
208.666
209.153
209.612
210.044
210.446
210.82
211.164
211.478
211.762
212.015
212.237
212.428
212.587
212.714
212.809
212.872
212.899
212.895
212.863
212.793
212.69
212.553
212.382
212.177
211.939
193.491
194.466
195.414
196.337
197.234
198.107
198.958
199.786
200.594
201.381
202.148
202.895
203.621
204.326
205.011
205.674
206.315
206.934
207.531
208.103
208.652
209.176
209.675
210.148
210.595
211.014
211.406
211.77
212.105
212.411
212.688
212.935
213.151
213.337
213.492
213.616
213.709
213.77
213.795
213.791
213.758
213.689
213.587
213.451
213.281
213.078
212.84
212.566
212.261
211.93
197.808
198.668
199.506
200.323
201.119
201.896
202.654
203.392
204.112
204.812
205.492
206.153
206.794
207.414
208.012
208.589
209.144
209.675
210.183
210.667
211.126
211.559
211.967
212.347
212.701
213.027
213.326
213.595
213.836
214.047
214.228
214.379
214.5
214.59
214.649
214.674
214.67
214.637
214.568
214.467
214.333
214.164
213.964
213.728
213.457
213.154
212.829
212.482
212.103
211.69
201.667
202.432
203.179
203.907
204.618
205.31
205.985
206.641
207.278
207.896
208.495
209.073
209.63
210.167
210.681
211.173
211.641
212.086
212.506
212.901
213.271
213.615
213.932
214.222
214.484
214.718
214.924
215.101
215.248
215.366
215.454
215.511
215.535
215.53
215.498
215.43
215.33
215.198
215.032
214.835
214.602
214.333
214.035
213.714
213.371
212.998
212.592
212.152
211.68
211.171
205.141
205.824
206.49
207.139
207.771
208.385
208.981
209.558
210.116
210.654
211.172
211.669
212.145
212.598
213.029
213.436
213.819
214.177
214.511
214.819
215.1
215.355
215.583
215.783
215.955
216.099
216.213
216.299
216.355
216.378
216.374
216.342
216.275
216.177
216.047
215.885
215.69
215.461
215.196
214.902
214.586
214.248
213.88
213.479
213.046
212.581
212.082
211.551
210.987
210.386
208.276
208.884
209.475
210.049
210.605
211.142
211.662
212.161
212.641
213.1
213.538
213.955
214.349
214.719
215.067
215.39
215.688
215.962
216.209
216.43
216.625
216.793
216.932
217.044
217.127
217.182
217.205
217.2
217.169
217.103
217.008
216.881
216.721
216.531
216.306
216.046
215.756
215.446
215.113
214.751
214.356
213.929
213.47
212.979
212.455
211.9
211.312
210.692
210.039
209.349
211.1
211.635
212.152
212.652
213.134
213.597
214.04
214.463
214.865
215.245
215.604
215.94
216.253
216.542
216.806
217.046
217.261
217.45
217.613
217.748
217.857
217.938
217.991
218.014
218.01
217.979
217.915
217.822
217.698
217.543
217.356
217.136
216.881
216.597
216.292
215.966
215.61
215.222
214.802
214.351
213.867
213.352
212.804
212.224
211.613
210.971
210.296
209.591
208.853
208.079
213.627
214.091
214.536
214.963
215.371
215.759
216.126
216.472
216.797
217.099
217.379
217.635
217.867
218.075
218.259
218.416
218.548
218.654
218.733
218.784
218.806
218.802
218.773
218.711
218.62
218.5
218.348
218.166
217.951
217.702
217.423
217.125
216.805
216.456
216.076
215.665
215.222
214.747
214.24
213.702
213.131
212.53
211.896
211.232
210.537
209.811
209.054
208.266
207.447
206.592
215.871
216.264
216.637
216.991
217.325
217.638
217.93
218.2
218.448
218.673
218.874
219.051
219.204
219.332
219.434
219.511
219.561
219.583
219.579
219.55
219.49
219.402
219.285
219.138
218.961
218.752
218.508
218.236
217.944
217.631
217.29
216.919
216.516
216.083
215.617
215.12
214.592
214.032
213.44
212.818
212.164
211.48
210.765
210.019
209.243
208.437
207.602
206.736
205.84
204.91
217.841
218.163
218.465
218.746
219.006
219.245
219.462
219.657
219.828
219.976
220.1
220.199
220.273
220.322
220.343
220.34
220.312
220.254
220.169
220.055
219.912
219.741
219.537
219.3
219.035
218.749
218.444
218.111
217.749
217.355
216.932
216.477
215.99
215.473
214.924
214.345
213.734
213.092
212.42
211.717
210.983
210.22
209.426
208.603
207.75
206.869
205.959
205.02
204.052
203.051
219.547
219.798
220.028
220.237
220.424
220.59
220.733
220.852
220.948
221.02
221.067
221.088
221.085
221.058
221.001
220.919
220.809
220.671
220.505
220.308
220.077
219.819
219.54
219.243
218.919
218.566
218.182
217.769
217.325
216.85
216.345
215.809
215.241
214.644
214.015
213.356
212.666
211.946
211.196
210.416
209.606
208.766
207.898
207.002
206.077
205.124
204.145
203.137
202.102
201.036
220.997
221.178
221.337
221.474
221.59
221.682
221.752
221.797
221.817
221.814
221.788
221.734
221.655
221.548
221.415
221.254
221.064
220.84
220.589
220.316
220.027
219.712
219.369
218.996
218.594
218.162
217.699
217.206
216.683
216.129
215.545
214.93
214.286
213.61
212.905
212.17
211.404
210.609
209.785
208.931
208.049
207.139
206.2
205.235
204.242
203.223
202.179
201.109
200.012
198.886
222.07
222.202
222.313
222.402
222.469
222.513
222.532
222.529
222.504
222.452
222.375
222.272
222.143
221.988
221.804
221.588
221.344
221.079
220.798
220.492
220.159
219.796
219.406
218.985
218.535
218.056
217.546
217.006
216.437
215.837
215.208
214.548
213.859
213.139
212.39
211.611
210.803
209.966
209.1
208.205
207.282
206.332
205.355
204.351
203.321
202.266
201.186
200.082
198.954
197.801
196.622
223.107
223.172
223.214
223.232
223.229
223.205
223.154
223.08
222.981
222.857
222.707
222.53
222.321
222.084
221.826
221.553
221.257
220.934
220.583
220.204
219.796
219.359
218.893
218.397
217.872
217.318
216.734
216.121
215.478
214.805
214.103
213.371
212.609
211.819
210.999
210.15
209.273
208.368
207.435
206.474
205.487
204.473
203.434
202.369
201.281
200.168
199.032
197.874
196.694
195.491
194.264
223.901
223.918
223.915
223.891
223.842
223.771
223.676
223.555
223.411
223.24
223.039
222.81
222.559
222.294
222.007
221.695
221.354
220.987
220.592
220.169
219.717
219.236
218.726
218.188
217.62
217.023
216.398
215.742
215.058
214.344
213.601
212.83
212.029
211.199
210.341
209.454
208.54
207.598
206.629
205.633
204.612
203.564
202.492
201.395
200.275
199.132
197.968
196.782
195.575
194.348
193.1
191.831
224.564
224.516
224.447
224.355
224.239
224.1
223.935
223.742
223.521
223.278
223.02
222.742
222.441
222.112
221.757
221.375
220.964
220.527
220.061
219.567
219.045
218.494
217.914
217.306
216.669
216.004
215.309
214.586
213.833
213.052
212.243
211.405
210.539
209.644
208.723
207.774
206.798
205.795
204.767
203.713
202.634
201.532
200.406
199.257
198.087
196.895
195.684
194.453
193.203
191.934
190.647
189.342
225.021
224.909
224.774
224.616
224.43
224.217
223.981
223.731
223.463
223.171
222.854
222.511
222.142
221.745
221.322
220.872
220.393
219.888
219.354
218.792
218.202
217.584
216.938
216.263
215.56
214.828
214.068
213.279
212.463
211.618
210.745
209.845
208.917
207.962
206.981
205.973
204.94
203.882
202.799
201.692
200.561
199.408
198.234
197.038
195.822
194.588
193.334
192.063
190.776
189.471
188.15
186.813
225.282
225.104
224.898
224.67
224.427
224.168
223.887
223.581
223.25
222.894
222.511
222.103
221.667
221.205
220.716
220.2
219.656
219.085
218.486
217.859
217.205
216.522
215.812
215.073
214.306
213.512
212.689
211.839
210.961
210.056
209.124
208.166
207.181
206.169
205.133
204.071
202.985
201.875
200.742
199.587
198.409
197.211
195.993
194.755
193.5
192.226
190.937
189.631
188.31
186.975
185.623
184.259
225.345
225.108
224.859
224.587
224.293
223.974
223.631
223.262
222.868
222.448
222.001
221.529
221.03
220.505
219.952
219.373
218.766
218.132
217.471
216.782
216.066
215.322
214.55
213.751
212.924
212.07
211.189
210.281
209.346
208.384
207.397
206.384
205.345
204.282
203.195
202.084
200.949
199.793
198.614
197.415
196.196
194.957
193.7
192.426
191.135
189.828
188.506
187.17
185.821
184.458
183.081
181.692
225.272
224.989
224.682
224.352
223.996
223.616
223.212
222.782
222.326
221.845
221.337
220.804
220.244
219.658
219.045
218.405
217.738
217.044
216.323
215.575
214.8
213.997
213.167
212.311
211.428
210.518
209.581
208.619
207.631
206.617
205.578
204.515
203.428
202.317
201.183
200.027
198.849
197.65
196.431
195.193
193.937
192.662
191.371
190.064
188.742
187.406
186.056
184.694
183.319
181.931
180.531
179.119
225.056
224.715
224.349
223.959
223.545
223.106
222.643
222.154
221.639
221.099
220.533
219.941
219.323
218.678
218.007
217.309
216.585
215.834
215.056
214.252
213.421
212.563
211.679
210.769
209.832
208.87
207.882
206.87
205.832
204.77
203.684
202.575
201.443
200.289
199.113
197.916
196.699
195.463
194.208
192.936
191.646
190.34
189.019
187.684
186.335
184.972
183.598
182.211
180.813
179.402
177.979
176.546
224.292
223.87
223.423
222.952
222.457
221.936
221.391
220.82
220.223
219.601
218.953
218.279
217.579
216.852
216.1
215.321
214.516
213.684
212.827
211.943
211.034
210.099
209.138
208.152
207.142
206.106
205.047
203.964
202.858
201.729
200.578
199.406
198.213
196.999
195.767
194.515
193.245
191.959
190.656
189.337
188.004
186.656
185.296
183.922
182.536
181.138
179.729
178.308
176.875
175.429
173.974
223.733
223.256
222.755
222.23
221.68
221.105
220.505
219.88
219.23
218.554
217.853
217.125
216.372
215.593
214.789
213.958
213.102
212.22
211.313
210.381
209.423
208.44
207.433
206.402
205.347
204.268
203.166
202.042
200.896
199.728
198.54
197.331
196.103
194.856
193.591
192.309
191.01
189.695
188.365
187.021
185.663
184.292
182.908
181.511
180.103
178.682
177.25
175.806
174.351
172.883
171.405
223.05
222.521
221.968
221.391
220.788
220.162
219.51
218.834
218.132
217.405
216.653
215.875
215.072
214.244
213.39
212.511
211.607
210.678
209.725
208.747
207.744
206.718
205.668
204.595
203.499
202.38
201.24
200.078
198.896
197.693
196.472
195.231
193.972
192.695
191.402
190.092
188.767
187.428
186.074
184.706
183.325
181.932
180.525
179.106
177.675
176.232
174.777
173.31
171.832
170.342
168.846
221.676
221.073
220.446
219.794
219.118
218.417
217.691
216.941
216.165
215.365
214.54
213.69
212.815
211.916
210.992
210.043
209.071
208.074
207.054
206.011
204.944
203.855
202.743
201.61
200.456
199.281
198.086
196.871
195.638
194.386
193.117
191.83
190.527
189.209
187.875
186.527
185.164
183.788
182.398
180.995
179.579
178.15
176.709
175.255
173.789
172.312
170.824
169.327
167.825
166.327
220.733
220.082
219.407
218.708
217.984
217.237
216.465
215.669
214.848
214.002
213.133
212.239
211.321
210.379
209.413
208.423
207.41
206.374
205.315
204.234
203.131
202.006
200.861
199.694
198.508
197.302
196.077
194.833
193.572
192.294
190.999
189.688
188.362
187.02
185.664
184.294
182.91
181.512
180.101
178.675
177.237
175.786
174.322
172.847
171.361
169.867
168.37
166.876
165.394
163.94
219.701
219.005
218.285
217.541
216.774
215.982
215.167
214.327
213.463
212.576
211.665
210.73
209.772
208.79
207.786
206.758
205.708
204.636
203.542
202.427
201.291
200.134
198.957
197.761
196.546
195.312
194.06
192.791
191.506
190.204
188.886
187.553
186.205
184.842
183.465
182.074
180.668
179.249
177.815
176.369
174.909
173.438
171.956
170.468
168.977
167.493
166.025
164.59
163.21
161.914
218.593
217.854
217.092
216.306
215.496
214.664
213.807
212.927
212.024
211.097
210.148
209.175
208.18
207.162
206.122
205.06
203.976
202.871
201.746
200.6
199.434
198.248
197.044
195.821
194.58
193.321
192.046
190.754
189.446
188.123
186.784
185.43
184.062
182.679
181.281
179.868
178.442
177.002
175.549
174.084
172.609
171.129
169.649
168.179
166.731
165.324
163.985
162.74
161.62
160.66
217.419
216.64
215.837
215.012
214.163
213.292
212.397
211.48
210.54
209.577
208.592
207.584
206.555
205.504
204.432
203.338
202.224
201.09
199.935
198.762
197.569
196.358
195.129
193.882
192.618
191.338
190.041
188.728
187.4
186.057
184.698
183.324
181.936
180.533
179.115
177.684
176.24
174.784
173.32
171.852
170.387
168.935
167.513
166.143
164.853
163.672
162.646
161.824
161.168
160.646
216.188
215.371
214.531
213.669
212.784
211.877
210.947
209.995
209.021
208.025
207.007
205.968
204.908
203.826
202.725
201.603
200.461
199.301
198.121
196.922
195.706
194.472
193.22
191.952
190.668
189.367
188.051
186.719
185.372
184.009
182.632
181.239
179.833
178.412
176.98
175.536
174.086
172.633
171.188
169.761
168.372
167.047
165.813
164.714
163.826
163.124
162.574
162.117
161.809
161.625
214.911
214.059
213.184
212.287
211.369
210.428
209.466
208.482
207.477
206.45
205.403
204.335
203.247
202.138
201.01
199.863
198.697
197.512
196.309
195.089
193.851
192.596
191.325
190.038
188.734
187.415
186.081
184.731
183.366
181.986
180.592
179.185
177.766
176.338
174.905
173.472
172.051
170.655
169.307
168.031
166.866
165.892
165.125
164.532
164.042
163.706
163.517
163.451
163.463
163.538
212.711
211.804
210.876
209.926
208.955
207.963
206.95
205.916
204.862
203.788
202.694
201.58
200.447
199.296
198.126
196.938
195.732
194.508
193.268
192.011
190.738
189.449
188.144
186.823
185.487
184.136
182.771
181.392
180
178.598
177.187
175.774
174.366
172.973
171.614
170.312
169.094
168.023
167.176
166.518
165.987
165.601
165.388
165.325
165.358
165.458
165.605
165.782
165.983
211.337
210.4
209.443
208.465
207.466
206.446
205.407
204.347
203.268
202.17
201.052
199.916
198.761
197.589
196.398
195.19
193.965
192.724
191.466
190.192
188.902
187.596
186.276
184.941
183.591
182.229
180.854
179.471
178.081
176.692
175.311
173.952
172.635
171.382
170.234
169.286
168.542
167.966
167.501
167.234
167.146
167.192
167.324
167.511
167.722
167.949
168.187
168.434
168.689
209.945
208.981
207.997
206.992
205.968
204.924
203.86
202.778
201.676
200.556
199.417
198.261
197.086
195.895
194.686
193.461
192.219
190.961
189.688
188.399
187.095
185.777
184.445
183.1
181.745
180.383
179.017
177.654
176.304
174.983
173.712
172.515
171.456
170.618
169.965
169.432
169.074
168.919
168.948
169.099
169.331
169.596
169.871
170.147
170.42
170.692
170.963
171.234
171.504
207.552
206.544
205.516
204.469
203.402
202.317
201.214
200.092
198.952
197.795
196.62
195.429
194.22
192.996
191.755
190.499
189.227
187.941
186.642
185.329
184.004
182.671
181.331
179.991
178.658
177.342
176.062
174.839
173.705
172.753
172.002
171.413
170.941
170.685
170.643
170.773
171.028
171.35
171.692
172.032
172.358
172.668
172.966
173.254
173.535
173.811
174.082
174.344
206.122
205.091
204.042
202.974
201.888
200.784
199.661
198.522
197.365
196.191
195
193.794
192.571
191.333
190.08
188.813
187.533
186.241
184.938
183.627
182.313
181.001
179.699
178.421
177.184
176.012
174.951
174.095
173.42
172.865
172.482
172.318
172.376
172.605
172.958
173.365
173.784
174.187
174.564
174.915
175.243
175.552
175.846
176.129
176.403
176.666
176.919
177.155
203.645
202.577
201.49
200.386
199.265
198.126
196.971
195.799
194.611
193.407
192.189
190.955
189.708
188.449
187.178
185.898
184.612
183.325
182.043
180.774
179.535
178.344
177.224
176.249
175.469
174.852
174.341
174.038
173.967
174.108
174.431
174.869
175.359
175.853
176.321
176.753
177.147
177.508
177.843
178.155
178.449
178.729
178.996
179.249
179.486
179.706
179.905
202.211
201.125
200.022
198.903
197.766
196.614
195.445
194.262
193.063
191.85
190.624
189.386
188.138
186.883
185.623
184.363
183.112
181.88
180.681
179.535
178.472
177.579
176.863
176.278
175.83
175.598
175.607
175.827
176.233
176.751
177.32
177.888
178.422
178.91
179.351
179.75
180.114
180.448
180.759
181.051
181.325
181.582
181.821
182.041
182.24
182.419
182.58
199.693
198.576
197.443
196.295
195.132
193.954
192.762
191.558
190.343
189.119
187.888
186.655
185.426
184.207
183.01
181.852
180.752
179.75
178.928
178.267
177.709
177.323
177.16
177.231
177.525
178.001
178.593
179.237
179.877
180.478
181.026
181.517
181.958
182.355
182.717
183.048
183.355
183.641
183.907
184.153
184.377
184.578
184.756
184.913
185.056
185.186
198.286
197.158
196.016
194.859
193.689
192.508
191.316
190.117
188.912
187.707
186.508
185.322
184.162
183.045
181.991
181.054
180.289
179.669
179.144
178.812
178.709
178.835
179.191
179.728
180.386
181.099
181.811
182.481
183.09
183.636
184.122
184.558
184.95
185.306
185.633
185.935
186.215
186.471
186.704
186.911
187.093
187.25
187.388
187.51
187.625
187.734
196.911
195.777
194.63
193.472
192.304
191.13
189.952
188.776
187.607
186.455
185.332
184.255
183.246
182.371
181.654
181.059
180.577
180.29
180.239
180.412
180.819
181.407
182.124
182.901
183.682
184.421
185.096
185.699
186.236
186.713
187.14
187.525
187.876
188.198
188.494
188.765
189.011
189.23
189.42
189.583
189.721
189.839
189.945
190.043
190.139
190.235
195.581
194.447
193.304
192.156
191.005
189.858
188.72
187.601
186.515
185.478
184.514
183.694
183.018
182.442
182.001
181.758
181.744
181.958
182.404
183.034
183.801
184.637
185.483
186.292
187.034
187.699
188.29
188.814
189.28
189.698
190.077
190.422
190.738
191.027
191.289
191.524
191.728
191.901
192.045
192.165
192.267
192.356
192.44
192.522
192.608
192.697
194.314
193.192
192.069
190.95
189.844
188.758
187.708
186.709
185.79
185.017
184.376
183.819
183.414
183.208
183.222
183.47
183.944
184.608
185.415
186.303
187.211
188.087
188.899
189.629
190.278
190.853
191.363
191.819
192.229
192.6
192.939
193.248
193.53
193.783
194.004
194.193
194.35
194.477
194.581
194.668
194.744
194.815
194.885
194.959
195.038
195.124
193.14
192.051
190.975
189.923
188.907
187.944
187.07
186.337
185.722
185.187
184.811
184.635
184.673
184.945
185.438
186.127
186.965
187.896
188.86
189.802
190.683
191.482
192.195
192.825
193.384
193.88
194.325
194.727
195.091
195.424
195.727
196
196.242
196.451
196.625
196.766
196.878
196.967
197.041
197.105
197.165
197.224
197.287
197.356
197.433
197.517
192.112
191.091
190.11
189.182
188.35
187.649
187.053
186.543
186.191
186.039
186.094
186.381
186.886
187.59
188.45
189.416
190.429
191.433
192.383
193.253
194.032
194.723
195.335
195.877
196.362
196.797
197.191
197.549
197.875
198.171
198.435
198.666
198.861
199.02
199.146
199.244
199.321
199.384
199.438
199.488
199.538
199.592
199.651
199.717
199.792
199.875
190.418
189.625
188.953
188.37
187.884
187.553
187.418
187.485
187.779
188.289
188.999
189.873
190.864
191.917
192.977
193.994
194.935
195.785
196.541
197.21
197.804
198.332
198.805
199.231
199.618
199.97
200.29
200.578
200.833
201.051
201.232
201.377
201.49
201.576
201.642
201.695
201.741
201.783
201.825
201.87
201.92
201.977
202.042
202.116
202.199
190.244
189.674
189.209
188.896
188.771
188.845
189.14
189.648
190.356
191.235
192.241
193.326
194.433
195.513
196.525
197.448
198.273
199.005
199.654
200.231
200.746
201.208
201.627
202.007
202.353
202.666
202.946
203.19
203.397
203.564
203.695
203.796
203.871
203.928
203.974
204.012
204.047
204.082
204.119
204.162
204.21
204.266
204.33
204.404
204.487
190.516
190.218
190.099
190.175
190.465
190.964
191.664
192.538
193.551
194.657
195.803
196.938
198.019
199.015
199.914
200.714
201.423
202.053
202.614
203.117
203.571
203.982
204.356
204.696
205.002
205.273
205.507
205.7
205.855
205.974
206.063
206.128
206.178
206.217
206.249
206.278
206.307
206.339
206.374
206.415
206.462
206.517
206.581
206.655
206.738
191.475
191.755
192.241
192.925
193.788
194.797
195.914
197.089
198.272
199.416
200.485
201.458
202.33
203.105
203.793
204.405
204.953
205.445
205.891
206.295
206.663
206.997
207.296
207.558
207.78
207.961
208.103
208.211
208.29
208.347
208.39
208.423
208.45
208.475
208.499
208.525
208.555
208.589
208.629
208.675
208.73
208.794
208.868
208.951
193.479
194.143
194.986
195.985
197.102
198.295
199.515
200.714
201.852
202.901
203.848
204.694
205.446
206.114
206.711
207.247
207.729
208.167
208.566
208.928
209.256
209.547
209.799
210.009
210.179
210.309
210.406
210.476
210.527
210.564
210.592
210.615
210.636
210.657
210.678
210.702
210.73
210.764
210.803
210.849
210.904
210.968
211.041
211.124
196.139
197.118
198.226
199.425
200.671
201.917
203.118
204.241
205.265
206.185
207.005
207.735
208.387
208.97
209.494
209.968
210.4
210.792
211.149
211.47
211.753
211.995
212.194
212.352
212.471
212.559
212.621
212.666
212.698
212.722
212.742
212.76
212.777
212.795
212.815
212.838
212.865
212.898
212.937
212.983
213.038
213.102
213.175
213.258
199.292
200.487
201.747
203.027
204.283
205.475
206.576
207.573
208.467
209.264
209.974
210.61
211.18
211.695
212.162
212.587
212.974
213.325
213.639
213.913
214.145
214.333
214.48
214.589
214.668
214.724
214.764
214.792
214.813
214.83
214.844
214.859
214.874
214.89
214.909