/*--------------------------------*- C++ -*----------------------------------*\
| =========                 |                                                 |
| \\      /  F ield         | OpenFOAM: The Open Source CFD Toolbox           |
|  \\    /   O peration     | Version:  v1706                                 |
|   \\  /    A nd           | Web:      www.OpenFOAM.com                      |
|    \\/     M anipulation  |                                                 |
\*---------------------------------------------------------------------------*/
FoamFile
{
    version     2.0;
    format      ascii;
    class       volVectorField;
    location    "3e-06";
    object      U;
}
// * * * * * * * * * * * * * * * * * * * * * * * * * * * * * * * * * * * * * //

dimensions      [0 1 -1 0 0 0 0];


internalField   nonuniform List<vector> 
30038
(
(2764.5 -7.25618e-11 7.31289e-15)
(2764.5 -5.84241e-11 2.87484e-15)
(2764.5 -4.07207e-11 8.7155e-15)
(2764.5 -2.0915e-11 3.84747e-15)
(2764.5 -9.50185e-13 4.00263e-15)
(2764.5 1.63933e-11 3.5643e-15)
(2764.5 2.23854e-11 8.38181e-15)
(2764.5 1.13599e-11 7.91915e-15)
(2764.5 -1.88247e-12 4.54571e-15)
(2764.5 -3.41518e-11 4.47103e-15)
(2764.5 -7.61048e-11 8.5551e-15)
(2764.5 -1.21407e-10 7.66088e-15)
(2764.5 -1.57141e-10 5.39835e-15)
(2764.5 -1.66668e-10 4.36259e-15)
(2764.5 -1.50866e-10 6.00495e-15)
(2764.5 -9.92441e-11 9.07062e-15)
(2764.5 -1.22871e-11 7.11544e-15)
(2764.5 1.07778e-10 2.14999e-15)
(2764.5 1.97659e-10 3.73108e-15)
(2764.5 2.19232e-10 7.64221e-15)
(2764.5 1.98493e-10 7.59984e-15)
(2764.5 1.16273e-10 5.3213e-15)
(2764.5 -8.8232e-11 8.80405e-17)
(2764.5 -3.22526e-10 7.32742e-15)
(2764.5 -4.70785e-10 5.72279e-15)
(2764.5 -5.55734e-10 1.55769e-15)
(2764.5 -4.48482e-10 2.25146e-15)
(2764.5 9.4464e-11 8.37194e-15)
(2764.5 8.0524e-10 1.38167e-14)
(2764.5 1.20935e-09 1.25927e-14)
(2764.5 1.87018e-09 1.02718e-14)
(2764.5 2.66203e-09 1.38299e-14)
(2764.5 3.38918e-09 1.16171e-14)
(2764.5 4.39885e-09 1.1042e-14)
(2764.5 6.03746e-09 1.43582e-14)
(2764.5 8.28994e-09 1.03061e-14)
(2764.5 1.27206e-08 5.42062e-15)
(2764.5 1.98854e-08 8.86808e-15)
(2764.5 -1.67217e-13 1.72581e-14)
(2764.5 1.13244e-11 2.03455e-14)
(2764.5 -2.24679e-12 1.98843e-14)
(2764.5 -4.86912e-11 1.82161e-14)
(2764.5 -1.15419e-10 2.29679e-14)
(2764.5 -1.86732e-10 2.11097e-14)
(2764.5 -2.58925e-10 2.34482e-14)
(2764.5 -3.12419e-10 2.30916e-14)
(2764.5 -3.23193e-10 1.84928e-14)
(2764.5 -2.95963e-10 2.23832e-14)
(2764.5 -2.11518e-10 2.29278e-14)
(2764.5 -8.51553e-11 1.67539e-14)
(2764.5 8.41378e-11 2.01654e-14)
(2764.5 2.36384e-10 1.89989e-14)
(2764.5 2.85498e-10 1.8307e-14)
(2764.5 2.49469e-10 1.95242e-14)
(2764.5 1.42119e-10 1.92728e-14)
(2764.5 -1.77976e-10 1.76792e-14)
(2764.5 -5.73674e-10 1.55837e-14)
(2764.5 -7.99932e-10 1.69406e-14)
(2764.5 -8.61008e-10 1.77346e-14)
(2764.5 -7.68775e-10 1.96775e-14)
(2764.5 -3.58625e-10 2.14996e-14)
(2764.5 7.17218e-10 2.34169e-14)
(2764.5 1.34839e-09 2.37874e-14)
(2764.5 2.31672e-09 2.56417e-14)
(2764.5 3.37516e-09 2.56048e-14)
(2764.5 3.93409e-09 2.24738e-14)
(2764.5 4.84075e-09 2.46343e-14)
(2764.5 6.70834e-09 2.33392e-14)
(2764.5 9.58084e-09 1.74164e-14)
(2764.5 1.38016e-08 2.73473e-14)
(2764.5 2.03876e-08 2.83057e-14)
(2764.5 3.00786e-08 2.50264e-14)
(2764.5 4.5545e-08 2.63887e-14)
(2764.5 6.58177e-08 2.1381e-14)
(2764.5 1.02038e-07 2.12894e-14)
(2764.5 1.62777e-07 2.34599e-14)
(2764.5 -1.95619e-10 3.19259e-14)
(2764.5 -2.92753e-10 3.56022e-14)
(2764.5 -3.78346e-10 3.24292e-14)
(2764.5 -4.31173e-10 3.0084e-14)
(2764.5 -4.3627e-10 3.17985e-14)
(2764.5 -3.91008e-10 3.38184e-14)
(2764.5 -2.77084e-10 3.64303e-14)
(2764.5 -1.16368e-10 2.96678e-14)
(2764.5 8.24e-11 2.84091e-14)
(2764.5 2.26217e-10 3.07261e-14)
(2764.5 2.59849e-10 2.81459e-14)
(2764.5 2.10423e-10 2.95616e-14)
(2764.5 5.02306e-11 3.07538e-14)
(2764.5 -3.01724e-10 3.0637e-14)
(2764.5 -6.50925e-10 2.89518e-14)
(2764.5 -8.72591e-10 3.30519e-14)
(2764.5 -9.23018e-10 3.26181e-14)
(2764.5 -7.67739e-10 3.23565e-14)
(2764.5 4.76083e-11 3.52627e-14)
(2764.5 6.32178e-10 3.64422e-14)
(2764.5 1.46225e-09 3.64505e-14)
(2764.5 2.60597e-09 3.88215e-14)
(2764.5 3.45835e-09 3.55384e-14)
(2764.5 4.1122e-09 3.58795e-14)
(2764.5 5.70215e-09 3.92334e-14)
(2764.5 8.18443e-09 3.89015e-14)
(2764.5 1.13802e-08 3.47839e-14)
(2764.5 1.59863e-08 3.07242e-14)
(2764.5 2.32246e-08 3.39565e-14)
(2764.5 3.41464e-08 3.54992e-14)
(2764.5 5.03815e-08 3.39858e-14)
(2764.5 7.45878e-08 3.76099e-14)
(2764.5 1.1133e-07 3.61306e-14)
(2764.5 1.64904e-07 3.59269e-14)
(2764.5 2.51061e-07 3.73767e-14)
(2764.5 3.65182e-07 3.81316e-14)
(2764.5 5.69756e-07 3.42887e-14)
(2764.5 9.0806e-07 3.51246e-14)
(2764.5 -4.80804e-10 4.54893e-14)
(2764.5 -4.11506e-10 4.63416e-14)
(2764.5 -2.7866e-10 4.47439e-14)
(2764.5 -1.09801e-10 4.17621e-14)
(2764.5 6.05499e-11 4.88025e-14)
(2764.5 1.45597e-10 4.43047e-14)
(2764.5 1.33266e-10 4.17611e-14)
(2764.5 6.10563e-11 4.14669e-14)
(2764.5 -1.79071e-10 4.34445e-14)
(2764.5 -5.00856e-10 3.95684e-14)
(2764.5 -7.6652e-10 4.3096e-14)
(2764.5 -8.71126e-10 4.36769e-14)
(2764.5 -8.34905e-10 4.46762e-14)
(2764.5 -4.52828e-10 4.15242e-14)
(2764.5 3.49755e-10 4.5178e-14)
(2764.5 8.76018e-10 4.87357e-14)
(2764.5 1.74284e-09 4.81036e-14)
(2764.5 2.57941e-09 5.22935e-14)
(2764.5 3.02682e-09 5.13847e-14)
(2764.5 4.10445e-09 4.84999e-14)
(2764.5 6.17883e-09 4.85355e-14)
(2764.5 8.84804e-09 4.68522e-14)
(2764.5 1.22878e-08 4.97149e-14)
(2764.5 1.76443e-08 5.18002e-14)
(2764.5 2.57997e-08 4.92825e-14)
(2764.5 3.76542e-08 4.99341e-14)
(2764.5 5.49928e-08 4.85978e-14)
(2764.5 8.09102e-08 4.56023e-14)
(2764.5 1.19779e-07 4.69963e-14)
(2764.5 1.77929e-07 4.90344e-14)
(2764.5 2.65289e-07 4.62639e-14)
(2764.5 3.96273e-07 4.9062e-14)
(2764.5 5.95952e-07 4.83039e-14)
(2764.5 8.88753e-07 4.67025e-14)
(2764.5 1.35611e-06 4.98664e-14)
(2764.5 1.98095e-06 5.25136e-14)
(2764.5 3.07017e-06 5.0943e-14)
(2764.5 4.8589e-06 5.06824e-14)
(2764.5 4.40056e-11 5.58497e-14)
(2764.5 5.19862e-11 5.83142e-14)
(2764.5 2.87252e-12 5.88026e-14)
(2764.5 -1.8119e-10 5.75406e-14)
(2764.5 -4.82043e-10 5.37931e-14)
(2764.5 -7.40508e-10 5.3658e-14)
(2764.5 -9.05407e-10 5.54911e-14)
(2764.5 -9.14426e-10 5.5455e-14)
(2764.5 -7.39851e-10 5.82531e-14)
(2764.5 -1.19777e-12 6.17549e-14)
(2764.5 5.83814e-10 6.35476e-14)
(2764.5 1.24053e-09 6.3204e-14)
(2764.5 2.07994e-09 6.15425e-14)
(2764.5 2.68264e-09 5.92116e-14)
(2764.5 3.1844e-09 6.01845e-14)
(2764.5 4.59446e-09 6.38075e-14)
(2764.5 6.6175e-09 6.64395e-14)
(2764.5 9.15171e-09 6.31822e-14)
(2764.5 1.30442e-08 5.97022e-14)
(2764.5 1.92199e-08 6.47136e-14)
(2764.5 2.81387e-08 6.06696e-14)
(2764.5 4.08429e-08 5.68164e-14)
(2764.5 5.95866e-08 6.4328e-14)
(2764.5 8.76429e-08 6.2343e-14)
(2764.5 1.29388e-07 6.30125e-14)
(2764.5 1.91464e-07 6.44387e-14)
(2764.5 2.84274e-07 6.44493e-14)
(2764.5 4.23463e-07 5.60358e-14)
(2764.5 6.32136e-07 5.38447e-14)
(2764.5 9.44468e-07 5.477e-14)
(2764.5 1.41183e-06 5.90454e-14)
(2764.5 2.10728e-06 6.60298e-14)
(2764.5 3.1554e-06 6.26488e-14)
(2764.5 4.68172e-06 6.046e-14)
(2764.5 7.11276e-06 6.15079e-14)
(2764.5 1.03623e-05 6.28893e-14)
(2764.5 1.6119e-05 6.4505e-14)
(2764.5 2.56299e-05 6.45458e-14)
(2764.5 -7.72824e-10 6.92013e-14)
(2764.5 -9.51375e-10 6.88158e-14)
(2764.5 -1.00842e-09 6.44608e-14)
(2764.5 -9.33672e-10 6.23867e-14)
(2764.5 -5.07968e-10 6.70598e-14)
(2764.5 3.26835e-10 7.22249e-14)
(2764.5 8.48907e-10 6.8995e-14)
(2764.5 1.6186e-09 8.09327e-14)
(2764.5 2.36613e-09 8.21507e-14)
(2764.5 2.78491e-09 7.6893e-14)
(2764.5 3.61563e-09 7.62438e-14)
(2764.5 5.21531e-09 7.39607e-14)
(2764.5 7.24282e-09 7.32194e-14)
(2764.5 1.00053e-08 7.37719e-14)
(2764.5 1.44583e-08 7.31152e-14)
(2764.5 2.10544e-08 7.38315e-14)
(2764.5 3.04246e-08 7.7625e-14)
(2764.5 4.41809e-08 7.48236e-14)
(2764.5 6.47967e-08 7.09154e-14)
(2764.5 9.53455e-08 7.52572e-14)
(2764.5 1.40324e-07 7.58226e-14)
(2764.5 2.06994e-07 7.68531e-14)
(2764.5 3.06405e-07 7.55214e-14)
(2764.5 4.54651e-07 7.19494e-14)
(2764.5 6.75361e-07 7.09534e-14)
(2764.5 1.00367e-06 7.52722e-14)
(2764.5 1.49175e-06 7.9189e-14)
(2764.5 2.21714e-06 7.03716e-14)
(2764.5 3.29623e-06 7.35889e-14)
(2764.5 4.90473e-06 7.42886e-14)
(2764.5 7.31519e-06 7.08943e-14)
(2764.5 1.09269e-05 7.20361e-14)
(2764.5 1.64243e-05 7.23466e-14)
(2764.5 2.4541e-05 7.70951e-14)
(2764.5 3.74308e-05 7.74598e-14)
(2764.5 5.4909e-05 7.2547e-14)
(2764.5 8.50034e-05 7.31815e-14)
(2764.5 0.000134152 7.68859e-14)
(2764.5 -3.3877e-11 8.43903e-14)
(2764.5 5.07717e-10 8.4318e-14)
(2764.5 1.18342e-09 8.93577e-14)
(2764.5 1.94171e-09 9.29481e-14)
(2764.5 2.50618e-09 9.05088e-14)
(2764.5 2.94459e-09 8.47553e-14)
(2764.5 4.19412e-09 8.58044e-14)
(2764.5 5.90737e-09 9.1083e-14)
(2764.5 8.01885e-09 8.48899e-14)
(2764.5 1.12146e-08 8.86209e-14)
(2764.5 1.62166e-08 8.87527e-14)
(2764.5 2.33276e-08 8.59469e-14)
(2764.5 3.35343e-08 8.48873e-14)
(2764.5 4.86869e-08 8.3905e-14)
(2764.5 7.11638e-08 8.31107e-14)
(2764.5 1.04188e-07 8.62965e-14)
(2764.5 1.52917e-07 8.71292e-14)
(2764.5 2.25236e-07 9.01164e-14)
(2764.5 3.32471e-07 8.67539e-14)
(2764.5 4.9109e-07 8.91798e-14)
(2764.5 7.25615e-07 8.78171e-14)
(2764.5 1.07253e-06 8.63508e-14)
(2764.5 1.58578e-06 8.56873e-14)
(2764.5 2.34563e-06 8.75216e-14)
(2764.5 3.47282e-06 8.45712e-14)
(2764.5 5.1503e-06 8.77451e-14)
(2764.5 7.6559e-06 8.98918e-14)
(2764.5 1.1411e-05 8.01393e-14)
(2764.5 1.70498e-05 8.06256e-14)
(2764.5 2.55175e-05 8.44541e-14)
(2764.5 3.82202e-05 8.52688e-14)
(2764.5 5.71635e-05 8.41592e-14)
(2764.5 8.56374e-05 8.68161e-14)
(2764.5 0.000127136 9.03127e-14)
(2764.5 0.000192536 9.25113e-14)
(2764.5 0.000280485 8.90781e-14)
(2764.5 0.000434466 8.81803e-14)
(2764.5 0.000688618 8.98557e-14)
(2764.5 2.48209e-09 1.01313e-13)
(2764.5 3.38322e-09 1.0007e-13)
(2764.5 4.84799e-09 1.02284e-13)
(2764.5 6.59407e-09 1.0473e-13)
(2764.5 8.96888e-09 1.02193e-13)
(2764.5 1.27871e-08 9.72588e-14)
(2764.5 1.83396e-08 9.848e-14)
(2764.5 2.61194e-08 1.00962e-13)
(2764.5 3.74631e-08 1.02551e-13)
(2764.5 5.43032e-08 1.00059e-13)
(2764.5 7.90185e-08 9.78551e-14)
(2764.5 1.15193e-07 9.81695e-14)
(2764.5 1.68497e-07 9.63221e-14)
(2764.5 2.47165e-07 9.88626e-14)
(2764.5 3.63002e-07 9.78294e-14)
(2764.5 5.33438e-07 1.01852e-13)
(2764.5 7.84269e-07 1.03668e-13)
(2764.5 1.15342e-06 1.01198e-13)
(2764.5 1.69703e-06 9.94392e-14)
(2764.5 2.49913e-06 1.00585e-13)
(2764.5 3.68629e-06 9.67175e-14)
(2764.5 5.44928e-06 1.0049e-13)
(2764.5 8.07527e-06 9.62892e-14)
(2764.5 1.19949e-05 9.60001e-14)
(2764.5 1.78501e-05 9.42543e-14)
(2764.5 2.65901e-05 9.97881e-14)
(2764.5 3.96124e-05 9.67885e-14)
(2764.5 5.89743e-05 9.50859e-14)
(2764.5 8.7726e-05 9.94939e-14)
(2764.5 0.000130438 1.01274e-13)
(2764.5 0.00019414 1.02266e-13)
(2764.5 0.000289356 1.00698e-13)
(2764.5 0.000433803 1.0154e-13)
(2764.5 0.000648263 9.9285e-14)
(2764.5 0.000987178 1.02051e-13)
(2764.5 0.00145266 1.06941e-13)
(2764.5 0.00224493 1.02349e-13)
(2764.5 0.00352811 9.59328e-14)
(2764.5 7.32219e-09 1.15277e-13)
(2764.5 1.02798e-08 1.13671e-13)
(2764.5 1.47137e-08 1.15944e-13)
(2764.5 2.08235e-08 1.14977e-13)
(2764.5 2.95217e-08 1.14559e-13)
(2764.5 4.23726e-08 1.14645e-13)
(2764.5 6.12323e-08 1.17342e-13)
(2764.5 8.86333e-08 1.13011e-13)
(2764.5 1.28657e-07 1.14151e-13)
(2764.5 1.87417e-07 1.11634e-13)
(2764.5 2.73541e-07 1.07917e-13)
(2764.5 3.99544e-07 1.13585e-13)
(2764.5 5.83922e-07 1.06305e-13)
(2764.5 8.53836e-07 1.12546e-13)
(2764.5 1.24922e-06 1.1391e-13)
(2764.5 1.82946e-06 1.14303e-13)
(2764.5 2.68352e-06 1.13842e-13)
(2764.5 3.94468e-06 1.10286e-13)
(2764.5 5.81234e-06 1.10238e-13)
(2764.5 8.584e-06 1.11742e-13)
(2764.5 1.27012e-05 1.11276e-13)
(2764.5 1.88157e-05 1.10668e-13)
(2764.5 2.78854e-05 1.08338e-13)
(2764.5 4.13176e-05 1.0696e-13)
(2764.5 6.11885e-05 1.09991e-13)
(2764.5 9.05856e-05 1.10969e-13)
(2764.5 0.000134155 1.12572e-13)
(2764.5 0.000198966 1.09162e-13)
(2764.5 0.000295837 1.09372e-13)
(2764.5 0.000441265 1.09848e-13)
(2764.5 0.000660059 1.12194e-13)
(2764.5 0.000989103 1.12174e-13)
(2764.5 0.00148087 1.13235e-13)
(2764.5 0.00221845 1.11783e-13)
(2764.5 0.00329304 1.16797e-13)
(2764.5 0.00496662 1.16798e-13)
(2764.49 0.00722382 1.13006e-13)
(2764.49 0.0111233 1.12067e-13)
(2764.48 0.0175288 1.10719e-13)
(2764.5 3.3814e-08 1.25669e-13)
(2764.5 4.85296e-08 1.23668e-13)
(2764.5 6.9731e-08 1.24974e-13)
(2764.5 1.00388e-07 1.29279e-13)
(2764.5 1.45111e-07 1.27893e-13)
(2764.5 2.10357e-07 1.28279e-13)
(2764.5 3.05271e-07 1.28207e-13)
(2764.5 4.43333e-07 1.23055e-13)
(2764.5 6.44337e-07 1.22539e-13)
(2764.5 9.37161e-07 1.21625e-13)
(2764.5 1.36437e-06 1.25089e-13)
(2764.5 1.98936e-06 1.21669e-13)
(2764.5 2.90677e-06 1.19407e-13)
(2764.5 4.25753e-06 1.26106e-13)
(2764.5 6.25092e-06 1.25338e-13)
(2764.5 9.19617e-06 1.25593e-13)
(2764.5 1.35475e-05 1.21629e-13)
(2764.5 1.997e-05 1.26268e-13)
(2764.5 2.94371e-05 1.24852e-13)
(2764.5 4.3379e-05 1.25087e-13)
(2764.5 6.39107e-05 1.21918e-13)
(2764.5 9.41881e-05 1.21284e-13)
(2764.5 0.000138962 1.20965e-13)
(2764.5 0.000205431 1.22878e-13)
(2764.5 0.0003045 1.24678e-13)
(2764.5 0.000452598 1.23966e-13)
(2764.5 0.000674185 1.24494e-13)
(2764.5 0.0010052 1.1922e-13)
(2764.5 0.001498 1.1922e-13)
(2764.5 0.00222888 1.24604e-13)
(2764.5 0.00331043 1.25628e-13)
(2764.5 0.004913 1.25485e-13)
(2764.49 0.00729584 1.25608e-13)
(2764.49 0.0108881 1.2487e-13)
(2764.48 0.0162385 1.26924e-13)
(2764.48 0.024648 1.2475e-13)
(2764.46 0.0363273 1.22076e-13)
(2764.45 0.0559641 1.26527e-13)
(2764.42 0.0872921 1.28413e-13)
(2764.5 1.65358e-07 1.41569e-13)
(2764.5 2.38308e-07 1.41186e-13)
(2764.5 3.43716e-07 1.38211e-13)
(2764.5 4.96289e-07 1.39072e-13)
(2764.5 7.17349e-07 1.3561e-13)
(2764.5 1.03795e-06 1.3718e-13)
(2764.5 1.50398e-06 1.4146e-13)
(2764.5 2.18366e-06 1.39496e-13)
(2764.5 3.17809e-06 1.34646e-13)
(2764.5 4.63683e-06 1.36675e-13)
(2764.5 6.78013e-06 1.36805e-13)
(2764.5 9.93042e-06 1.37732e-13)
(2764.5 1.45574e-05 1.33914e-13)
(2764.5 2.13449e-05 1.32203e-13)
(2764.5 3.12912e-05 1.40206e-13)
(2764.5 4.58642e-05 1.42115e-13)
(2764.5 6.724e-05 1.41935e-13)
(2764.5 9.86722e-05 1.38783e-13)
(2764.5 0.000145052 1.34868e-13)
(2764.5 0.00021374 1.35001e-13)
(2764.5 0.000315773 1.36779e-13)
(2764.5 0.000467571 1.36714e-13)
(2764.5 0.00069333 1.33582e-13)
(2764.5 0.00102842 1.33368e-13)
(2764.5 0.00152437 1.35067e-13)
(2764.5 0.00225657 1.37671e-13)
(2764.5 0.0033367 1.31762e-13)
(2764.49 0.00493341 1.31127e-13)
(2764.49 0.00730581 1.36227e-13)
(2764.49 0.0108543 1.3916e-13)
(2764.48 0.0161897 1.38533e-13)
(2764.48 0.0242253 1.3499e-13)
(2764.46 0.0362511 1.35316e-13)
(2764.45 0.0542317 1.35887e-13)
(2764.42 0.080358 1.37486e-13)
(2764.38 0.120431 1.37244e-13)
(2764.33 0.174394 1.39435e-13)
(2764.24 0.266107 1.40645e-13)
(2764.09 0.41453 1.38757e-13)
(2764.5 5.61094e-07 1.55513e-13)
(2764.5 8.06622e-07 1.51957e-13)
(2764.5 1.16118e-06 1.50412e-13)
(2764.5 1.6748e-06 1.53051e-13)
(2764.5 2.42124e-06 1.52628e-13)
(2764.5 3.50901e-06 1.53103e-13)
(2764.5 5.09738e-06 1.52567e-13)
(2764.5 7.41894e-06 1.53296e-13)
(2764.5 1.08115e-05 1.50805e-13)
(2764.5 1.57641e-05 1.53319e-13)
(2764.5 2.29861e-05 1.51323e-13)
(2764.5 3.3512e-05 1.51106e-13)
(2764.5 4.88639e-05 1.48579e-13)
(2764.5 7.13024e-05 1.4423e-13)
(2764.5 0.000104207 1.50177e-13)
(2764.5 0.000152638 1.52115e-13)
(2764.5 0.000224157 1.49154e-13)
(2764.5 0.000329971 1.4865e-13)
(2764.5 0.000486565 1.49472e-13)
(2764.5 0.000718012 1.4751e-13)
(2764.5 0.00105935 1.43085e-13)
(2764.5 0.00156167 1.45023e-13)
(2764.5 0.00230003 1.45592e-13)
(2764.5 0.00338608 1.43678e-13)
(2764.49 0.00498837 1.4562e-13)
(2764.49 0.00736401 1.51382e-13)
(2764.49 0.0109052 1.46832e-13)
(2764.48 0.0162029 1.42691e-13)
(2764.47 0.0241291 1.47078e-13)
(2764.46 0.035941 1.47081e-13)
(2764.44 0.053428 1.49309e-13)
(2764.42 0.0791628 1.4692e-13)
(2764.38 0.116941 1.47125e-13)
(2764.32 0.17255 1.48846e-13)
(2764.24 0.255477 1.52468e-13)
(2764.11 0.378813 1.52093e-13)
(2763.93 0.570968 1.50016e-13)
(2763.65 0.840182 1.51608e-13)
(2763.22 1.28522 1.48928e-13)
(2762.53 1.97159 1.51327e-13)
(2764.5 2.71354e-06 1.68645e-13)
(2764.5 3.91435e-06 1.68046e-13)
(2764.5 5.65842e-06 1.67457e-13)
(2764.5 8.19262e-06 1.63778e-13)
(2764.5 1.1873e-05 1.65294e-13)
(2764.5 1.72132e-05 1.66211e-13)
(2764.5 2.49565e-05 1.67388e-13)
(2764.5 3.61869e-05 1.65149e-13)
(2764.5 5.24994e-05 1.6478e-13)
(2764.5 7.62623e-05 1.67589e-13)
(2764.5 0.000111007 1.6064e-13)
(2764.5 0.000161994 1.6159e-13)
(2764.5 0.000237016 1.61458e-13)
(2764.5 0.000347503 1.60411e-13)
(2764.5 0.000510098 1.62241e-13)
(2764.5 0.000748919 1.62357e-13)
(2764.5 0.00109895 1.58409e-13)
(2764.5 0.00161129 1.55463e-13)
(2764.5 0.00236127 1.58289e-13)
(2764.5 0.00346138 1.55845e-13)
(2764.49 0.00508115 1.5935e-13)
(2764.49 0.00747709 1.61027e-13)
(2764.49 0.0110354 1.62159e-13)
(2764.48 0.0163302 1.59993e-13)
(2764.47 0.0242009 1.57488e-13)
(2764.46 0.0358571 1.58703e-13)
(2764.44 0.0530296 1.5822e-13)
(2764.42 0.0782152 1.56752e-13)
(2764.38 0.115107 1.56983e-13)
(2764.32 0.169344 1.59947e-13)
(2764.24 0.249725 1.60759e-13)
(2764.11 0.369918 1.60533e-13)
(2763.92 0.550494 1.59886e-13)
(2763.65 0.820393 1.61253e-13)
(2763.24 1.22059 1.6414e-13)
(2762.64 1.7968 1.58285e-13)
(2761.76 2.65786 1.60012e-13)
(2760.51 3.80647 1.62726e-13)
(2758.57 5.70345 1.62887e-13)
(2755.52 8.63963 1.63626e-13)
(2764.5 1.31603e-05 1.81522e-13)
(2764.5 1.89666e-05 1.7788e-13)
(2764.5 2.73411e-05 1.79048e-13)
(2764.5 3.94321e-05 1.79942e-13)
(2764.5 5.69283e-05 1.80438e-13)
(2764.5 8.233e-05 1.8263e-13)
(2764.5 0.000119348 1.7881e-13)
(2764.5 0.000173472 1.73764e-13)
(2764.5 0.000252757 1.78544e-13)
(2764.5 0.000368919 1.80245e-13)
(2764.5 0.00053887 1.73762e-13)
(2764.5 0.000786973 1.785e-13)
(2764.5 0.00114849 1.78334e-13)
(2764.5 0.00167498 1.74711e-13)
(2764.5 0.00244271 1.75015e-13)
(2764.5 0.00356579 1.69621e-13)
(2764.49 0.00521571 1.66991e-13)
(2764.49 0.0076497 1.69682e-13)
(2764.49 0.0112501 1.70522e-13)
(2764.48 0.016578 1.71994e-13)
(2764.47 0.0244464 1.79477e-13)
(2764.46 0.0360247 1.73922e-13)
(2764.44 0.0529938 1.7129e-13)
(2764.41 0.0777935 1.72167e-13)
(2764.37 0.114042 1.70966e-13)
(2764.32 0.167235 1.71071e-13)
(2764.23 0.245838 1.7051e-13)
(2764.1 0.36279 1.66411e-13)
(2763.92 0.537312 1.76858e-13)
(2763.64 0.796838 1.74821e-13)
(2763.24 1.17895 1.69353e-13)
(2762.64 1.73459 1.68581e-13)
(2761.78 2.53615 1.68474e-13)
(2760.52 3.69125 1.71606e-13)
(2758.69 5.37507 1.75891e-13)
(2756.03 7.84086 1.7536e-13)
(2752.13 11.5873 1.73741e-13)
(2746.65 16.7981 1.73979e-13)
(2738.55 24.9666 1.82559e-13)
(2727.04 36.2662 1.82498e-13)
(2764.5 6.23589e-05 1.93384e-13)
(2764.5 8.97803e-05 1.94577e-13)
(2764.5 0.000129588 1.94907e-13)
(2764.5 0.000187532 1.90713e-13)
(2764.5 0.000271978 1.90889e-13)
(2764.5 0.000394991 1.94334e-13)
(2764.5 0.000573884 1.93664e-13)
(2764.5 0.000833501 1.84957e-13)
(2764.5 0.00120975 1.88559e-13)
(2764.5 0.00175516 1.92203e-13)
(2764.5 0.0025476 1.86983e-13)
(2764.5 0.00370352 1.91632e-13)
(2764.49 0.00539727 1.87972e-13)
(2764.49 0.00788812 1.83026e-13)
(2764.49 0.0115568 1.85763e-13)
(2764.48 0.0169552 1.84633e-13)
(2764.47 0.0248767 1.80228e-13)
(2764.46 0.036459 1.83258e-13)
(2764.44 0.0533436 1.84671e-13)
(2764.41 0.0779288 1.87615e-13)
(2764.37 0.113782 1.88227e-13)
(2764.31 0.166297 1.82703e-13)
(2764.22 0.243676 1.85685e-13)
(2764.09 0.358256 1.8581e-13)
(2763.91 0.52813 1.8114e-13)
(2763.63 0.779062 1.86293e-13)
(2763.22 1.14676 1.79977e-13)
(2762.63 1.68014 1.81566e-13)
(2761.77 2.44815 1.84233e-13)
(2760.53 3.55379 1.8044e-13)
(2758.72 5.15663 1.8341e-13)
(2756.11 7.50593 1.86615e-13)
(2752.32 10.9704 1.85936e-13)
(2746.9 16.037 1.82101e-13)
(2739.31 23.2717 1.8909e-13)
(2728.97 33.1536 1.90777e-13)
(2715.16 46.567 1.9336e-13)
(2697.66 63.241 1.95415e-13)
(2674.54 87.0119 1.95094e-13)
(2644.95 117.573 1.92198e-13)
(2764.5 0.000295457 2.06471e-13)
(2764.5 0.000426748 2.0676e-13)
(2764.5 0.000616504 2.05367e-13)
(2764.5 0.000890309 2.04636e-13)
(2764.5 0.00128512 2.02693e-13)
(2764.5 0.00185504 2.01132e-13)
(2764.5 0.00268018 2.0316e-13)
(2764.49 0.00388009 2.01488e-13)
(2764.49 0.00563276 2.02729e-13)
(2764.49 0.00820062 2.02291e-13)
(2764.49 0.0119651 2.00068e-13)
(2764.48 0.0174733 2.02328e-13)
(2764.47 0.0255056 1.97726e-13)
(2764.45 0.0371779 1.9564e-13)
(2764.43 0.0541043 1.98802e-13)
(2764.41 0.078656 1.98071e-13)
(2764.36 0.114371 1.96705e-13)
(2764.3 0.166577 1.96919e-13)
(2764.21 0.243278 1.94944e-13)
(2764.08 0.356326 1.96503e-13)
(2763.89 0.522878 1.97177e-13)
(2763.61 0.767222 1.94862e-13)
(2763.2 1.12322 1.94459e-13)
(2762.61 1.63786 1.94998e-13)
(2761.75 2.37752 1.94485e-13)
(2760.51 3.44053 1.9467e-13)
(2758.72 4.97755 1.95925e-13)
(2756.14 7.21822 1.97761e-13)
(2752.42 10.4977 1.93077e-13)
(2747.12 15.2648 1.9841e-13)
(2739.71 22.0561 1.99853e-13)
(2729.6 31.423 2.06521e-13)
(2716.19 43.9186 2.01588e-13)
(2698.82 60.2575 2.01278e-13)
(2676.91 81.3788 2.07473e-13)
(2649.83 108.303 2.13314e-13)
(2616.27 143.097 2.15918e-13)
(2577.16 183.783 2.1331e-13)
(2530.68 234.989 2.1321e-13)
(2479.35 287.827 2.17907e-13)
(2764.5 0.00137798 2.19814e-13)
(2764.5 0.00197903 2.18912e-13)
(2764.5 0.00284624 2.1893e-13)
(2764.49 0.00410302 2.15445e-13)
(2764.49 0.00593186 2.14567e-13)
(2764.49 0.00859945 2.18566e-13)
(2764.48 0.01249 2.19191e-13)
(2764.48 0.0181501 2.13996e-13)
(2764.47 0.0263547 2.15648e-13)
(2764.45 0.0382087 2.1694e-13)
(2764.43 0.0553119 2.143e-13)
(2764.4 0.0800234 2.1517e-13)
(2764.36 0.115871 2.09745e-13)
(2764.29 0.168145 2.09337e-13)
(2764.2 0.244713 2.13611e-13)
(2764.06 0.357056 2.09068e-13)
(2763.87 0.52157 2.09196e-13)
(2763.58 0.761295 2.13651e-13)
(2763.17 1.10839 2.11286e-13)
(2762.58 1.60795 2.08625e-13)
(2761.71 2.32427 2.0851e-13)
(2760.47 3.35199 2.04049e-13)
(2758.69 4.83427 2.09963e-13)
(2756.12 6.98563 2.12286e-13)
(2752.44 10.1132 2.14628e-13)
(2747.24 14.6278 2.13787e-13)
(2739.97 21.0333 2.09497e-13)
(2730.07 29.8819 2.11021e-13)
(2716.93 41.7222 2.09387e-13)
(2699.92 57.1902 2.15276e-13)
(2678.4 77.1602 2.16139e-13)
(2651.77 102.637 2.16629e-13)
(2619.33 134.72 2.24021e-13)
(2580.56 173.999 2.26268e-13)
(2536.15 219.672 2.2175e-13)
(2487.65 269.77 2.25759e-13)
(2435.55 322.805 2.27008e-13)
(2379.02 378.82 2.22458e-13)
(2317.98 443.649 2.21576e-13)
(2257 510.805 2.23452e-13)
(2764.49 0.00630722 2.36332e-13)
(2764.49 0.00910097 2.34391e-13)
(2764.48 0.0131523 2.31171e-13)
(2764.47 0.0190115 2.29215e-13)
(2764.46 0.0274552 2.29857e-13)
(2764.45 0.0395892 2.27882e-13)
(2764.43 0.0570146 2.29877e-13)
(2764.39 0.0820945 2.28496e-13)
(2764.35 0.118362 2.31321e-13)
(2764.28 0.171097 2.27442e-13)
(2764.18 0.24808 2.23239e-13)
(2764.04 0.360522 2.25226e-13)
(2763.84 0.52424 2.2298e-13)
(2763.55 0.76126 2.25339e-13)
(2763.13 1.10228 2.24718e-13)
(2762.52 1.5906 2.26946e-13)
(2761.65 2.28859 2.28263e-13)
(2760.4 3.28811 2.24849e-13)
(2758.61 4.72631 2.25219e-13)
(2756.04 6.80542 2.27376e-13)
(2752.38 9.81018 2.22757e-13)
(2747.23 14.1175 2.23106e-13)
(2740.07 20.1942 2.26487e-13)
(2730.33 28.5742 2.2407e-13)
(2717.42 39.8148 2.2825e-13)
(2700.71 54.5114 2.27417e-13)
(2679.56 73.4474 2.28782e-13)
(2653.36 97.5776 2.30216e-13)
(2621.59 127.764 2.26247e-13)
(2583.8 164.551 2.32795e-13)
(2540.14 207.653 2.37694e-13)
(2491.82 255.775 2.42274e-13)
(2440.12 306.989 2.43054e-13)
(2384.71 360.609 2.36226e-13)
(2324.45 420.051 2.33487e-13)
(2263.95 483.601 2.37564e-13)
(2209.28 546.278 2.34179e-13)
(2167.12 596.155 2.32436e-13)
(2137.24 628.25 2.28288e-13)
(2115.79 646.365 2.23996e-13)
(2764.47 0.0200957 2.49224e-13)
(2764.46 0.0288558 2.51615e-13)
(2764.44 0.0413798 2.46274e-13)
(2764.42 0.0592867 2.44602e-13)
(2764.39 0.0849638 2.47042e-13)
(2764.34 0.121969 2.41258e-13)
(2764.27 0.17559 2.44467e-13)
(2764.16 0.253557 2.41381e-13)
(2764.02 0.366904 2.37104e-13)
(2763.81 0.531031 2.41234e-13)
(2763.51 0.767202 2.39286e-13)
(2763.07 1.10493 2.35346e-13)
(2762.45 1.58595 2.35632e-13)
(2761.56 2.27084 2.38184e-13)
(2760.3 3.24914 2.37656e-13)
(2758.48 4.65344 2.36425e-13)
(2755.9 6.67612 2.41875e-13)
(2752.24 9.58395 2.38377e-13)
(2747.1 13.7253 2.35455e-13)
(2740 19.5305 2.37571e-13)
(2730.38 27.5031 2.39681e-13)
(2717.64 38.1969 2.39024e-13)
(2701.17 52.2035 2.43279e-13)
(2680.35 70.225 2.41455e-13)
(2654.53 93.1381 2.4018e-13)
(2623.26 121.726 2.52709e-13)
(2586.26 156.379 2.5186e-13)
(2543.5 196.987 2.48947e-13)
(2495.65 242.777 2.49546e-13)
(2444.06 292.292 2.5532e-13)
(2389.45 343.918 2.5566e-13)
(2330.52 399.274 2.40596e-13)
(2268.69 460.327 2.46453e-13)
(2210.13 522.952 2.48991e-13)
(2161.64 578.388 2.42895e-13)
(2126.29 617.358 2.33607e-13)
(2102.54 639.549 2.37399e-13)
(2088.53 653.704 2.34836e-13)
(2079.51 667.302 2.26206e-13)
(2066.61 675.101 2.18993e-13)
(2056.57 674.356 2.16465e-13)
(2764.38 0.0887649 2.66848e-13)
(2764.32 0.126859 2.66388e-13)
(2764.25 0.181839 2.57367e-13)
(2764.14 0.261417 2.58533e-13)
(2763.99 0.376507 2.59552e-13)
(2763.77 0.542232 2.54838e-13)
(2763.45 0.779335 2.54258e-13)
(2763 1.11648 2.51375e-13)
(2762.36 1.59418 2.54579e-13)
(2761.45 2.27141 2.57124e-13)
(2760.15 3.23558 2.51333e-13)
(2758.31 4.61572 2.49746e-13)
(2755.69 6.59664 2.52682e-13)
(2751.99 9.43067 2.52548e-13)
(2746.84 13.443 2.50501e-13)
(2739.75 19.0314 2.53654e-13)
(2730.19 26.6642 2.5755e-13)
(2717.57 36.8754 2.55815e-13)
(2701.27 50.2571 2.5532e-13)
(2680.7 67.4752 2.57052e-13)
(2655.22 89.3035 2.58436e-13)
(2624.36 116.479 2.66035e-13)
(2587.94 149.326 2.60224e-13)
(2546 187.696 2.51181e-13)
(2498.87 231.095 2.65586e-13)
(2447.53 278.544 2.72988e-13)
(2393.14 328.637 2.65095e-13)
(2335.66 380.871 2.62879e-13)
(2274.11 438.22 2.60061e-13)
(2212.91 499.51 2.59417e-13)
(2159.05 557.651 2.53604e-13)
(2117.79 603.026 2.44766e-13)
(2089.27 631.405 2.53977e-13)
(2071.65 648.152 2.38247e-13)
(2061.8 661.757 2.5133e-13)
(2050.54 672.57 2.32955e-13)
(2038.59 674.118 2.25259e-13)
(2032.29 673.089 2.25792e-13)
(2027.75 673.297 2.24865e-13)
(2025.83 672.869 2.14459e-13)
(2025.8 672.632 2.12928e-13)
(2764.11 0.272056 2.80153e-13)
(2763.95 0.389842 2.80595e-13)
(2763.71 0.558447 2.70599e-13)
(2763.38 0.798283 2.7055e-13)
(2762.91 1.13749 2.73875e-13)
(2762.25 1.61579 2.70171e-13)
(2761.3 2.29093 2.684e-13)
(2759.96 3.24845 2.70526e-13)
(2758.07 4.61421 2.68848e-13)
(2755.39 6.5671 2.71954e-13)
(2751.64 9.34825 2.7243e-13)
(2746.43 13.2642 2.64629e-13)
(2739.31 18.6855 2.65307e-13)
(2729.75 26.0461 2.67114e-13)
(2717.17 35.8491 2.67985e-13)
(2700.98 48.6744 2.72946e-13)
(2680.57 65.1757 2.78491e-13)
(2655.36 86.0574 2.73614e-13)
(2624.86 111.973 2.70419e-13)
(2588.88 143.248 2.72185e-13)
(2547.58 179.688 2.77489e-13)
(2501.22 220.819 2.80762e-13)
(2450.38 266.024 2.76727e-13)
(2396.15 314.304 2.75129e-13)
(2339.23 364.703 2.79526e-13)
(2279.13 418.174 2.7887e-13)
(2216.86 476.706 2.75688e-13)
(2158.94 535.438 2.72101e-13)
(2111.71 585.687 2.6725e-13)
(2077.9 620.374 2.64971e-13)
(2056.17 641.199 2.53939e-13)
(2043.98 655.564 2.73828e-13)
(2034.35 667.826 2.47947e-13)
(2021.66 672.587 2.32031e-13)
(2013 671.639 2.32519e-13)
(2008.06 671.426 2.31094e-13)
(2005.07 671.337 2.28039e-13)
(2004.77 671.29 2.24048e-13)
(2006.51 670.86 2.27593e-13)
(2007.32 668.18 2.22458e-13)
(2006.79 663.595 2.16252e-13)
(2005 658.044 2.15906e-13)
(2763.3 0.825144 2.90723e-13)
(2762.8 1.16918 2.88997e-13)
(2762.1 1.65201 2.87189e-13)
(2761.12 2.33067 2.87477e-13)
(2759.73 3.28932 2.88621e-13)
(2757.77 4.65097 2.8662e-13)
(2755.01 6.58931 2.84752e-13)
(2751.17 9.33649 2.8725e-13)
(2745.87 13.1844 2.86355e-13)
(2738.66 18.4818 2.87226e-13)
(2729.03 25.6331 2.89094e-13)
(2716.42 35.107 2.84528e-13)
(2700.25 47.4557 2.79471e-13)
(2679.93 63.3177 2.84494e-13)
(2654.89 83.3652 2.8692e-13)
(2624.66 108.177 2.89679e-13)
(2589.06 138.05 2.92775e-13)
(2548.22 172.814 2.89031e-13)
(2502.51 211.951 2.87966e-13)
(2452.34 254.919 2.88058e-13)
(2398.43 301.125 2.93542e-13)
(2341.76 349.792 2.98607e-13)
(2282.65 400.697 2.92379e-13)
(2220.98 455.472 2.84593e-13)
(2160.55 512.971 2.89369e-13)
(2108.22 565.912 2.8264e-13)
(2068.57 606.462 2.76084e-13)
(2042.18 632.275 2.63194e-13)
(2026.82 648.629 2.63659e-13)
(2017.31 661.618 2.58397e-13)
(2005.52 669.562 2.53897e-13)
(1994.58 669.738 2.53839e-13)
(1988.76 668.866 2.50009e-13)
(1984.74 669.016 2.42056e-13)
(1983.85 668.943 2.42112e-13)
(1984.91 669.078 2.38647e-13)
(1986.38 667.755 2.34995e-13)
(1986.3 664.242 2.34092e-13)
(1985.3 659.623 2.30096e-13)
(1984.44 653.963 2.27513e-13)
(1983.84 648.127 2.28037e-13)
(1982.82 641.527 2.20728e-13)
(1980.14 634.437 2.20471e-13)
(2759.43 3.36091 3.02441e-13)
(2757.38 4.72941 3.06102e-13)
(2754.53 6.66763 3.07181e-13)
(2750.57 9.39969 3.04362e-13)
(2745.13 13.2052 3.01852e-13)
(2737.78 18.4155 3.00648e-13)
(2728.02 25.4111 3.03608e-13)
(2715.3 34.6306 3.04808e-13)
(2699.07 46.5909 3.01565e-13)
(2678.74 61.8997 3.05054e-13)
(2653.77 81.2044 3.0551e-13)
(2623.72 105.046 3.01825e-13)
(2588.39 133.678 3.06872e-13)
(2547.93 166.949 3.06833e-13)
(2502.71 204.349 3.06092e-13)
(2453.16 245.283 3.10761e-13)
(2399.78 289.318 3.04553e-13)
(2343.37 336.033 3.05611e-13)
(2284.69 385.035 3.05994e-13)
(2224.12 436.583 3.0167e-13)
(2162.94 491.382 3.04312e-13)
(2106.84 544.985 3.01324e-13)
(2061.64 589.762 2.93511e-13)
(2029.94 620.972 2.864e-13)
(2010.7 640.552 2.87128e-13)
(1999.86 654.434 2.90363e-13)
(1989.57 664.487 2.76849e-13)
(1977.42 667.059 2.64778e-13)
(1969.74 665.913 2.621e-13)
(1964.95 665.747 2.64162e-13)
(1963.23 665.745 2.58611e-13)
(1963.7 666.178 2.54183e-13)
(1965.23 665.965 2.47306e-13)
(1965.74 663.591 2.4238e-13)
(1965.06 659.708 2.46562e-13)
(1964.3 654.881 2.4256e-13)
(1963.78 649.437 2.41662e-13)
(1963.12 643.696 2.39253e-13)
(1961.56 637.48 2.38248e-13)
(1959.42 630.485 2.29729e-13)
(1956.8 623.144 2.35493e-13)
(1953.88 614.789 2.36696e-13)
(1949.45 605.879 2.37138e-13)
(2749.8 9.54596 3.22017e-13)
(2744.19 13.3355 3.27048e-13)
(2736.65 18.4929 3.25861e-13)
(2726.68 25.3792 3.23694e-13)
(2713.78 34.4077 3.23005e-13)
(2697.39 46.0631 3.22867e-13)
(2676.95 60.9131 3.21928e-13)
(2651.96 79.5665 3.25419e-13)
(2621.98 102.54 3.1969e-13)
(2586.84 130.067 3.22377e-13)
(2546.66 161.998 3.34019e-13)