/*--------------------------------*- C++ -*----------------------------------*\
| =========                 |                                                 |
| \\      /  F ield         | OpenFOAM: The Open Source CFD Toolbox           |
|  \\    /   O peration     | Version:  v1706                                 |
|   \\  /    A nd           | Web:      www.OpenFOAM.com                      |
|    \\/     M anipulation  |                                                 |
\*---------------------------------------------------------------------------*/
FoamFile
{
    version     2.0;
    format      ascii;
    class       volScalarField;
    location    "3e-06";
    object      wallHeatFlux;
}
// * * * * * * * * * * * * * * * * * * * * * * * * * * * * * * * * * * * * * //

dimensions      [1 0 -3 0 0 0 0];


internalField   uniform 0;

boundaryField
{
    cone
    {
        type            calculated;
        value           nonuniform List<scalar> 
153
(
-4370.2
-4369.89
-4369.59
-4369.29
-4369.02
-4368.77
-4368.53
-4368.33
-4368.16
-4368.01
-4367.89
-4367.79
-4367.7
-4367.64
-4367.6
-4367.57
-4367.55
-4367.55
-4367.55
-4367.56
-4367.57
-4367.57
-4367.58
-4367.57
-4367.55
-4367.52
-4367.47
-4367.39
-4367.29
-4367.16
-4366.98
-4366.76
-4366.48
-4366.13
-4365.7
-4365.15
-4364.48
-4363.65
-4362.63
-4361.38
-4359.85
-4357.97
-4355.66
-4352.81
-4349.33
-4345.07
-4339.86
-4333.49
-4326.25
-4319.26
-4313.61
-4309.08
-4305.39
-4302.36
-4299.86
-4297.78
-4296.06
-4294.61
-4293.38
-4292.32
-4291.4
-4290.6
-4289.88
-4289.22
-4288.63
-4288.08
-4287.56
-4287.07
-4286.61
-4286.17
-4285.76
-4285.35
-4284.97
-4284.59
-4284.23
-4283.88
-4283.54
-4283.21
-4282.89
-4282.57
-4282.26
-4281.95
-4281.65
-4281.35
-4281.05
-4280.76
-4280.46
-4280.17
-4279.88
-4279.59
-4279.3
-4279.01
-4278.72
-4278.43
-4278.15
-4277.86
-4277.57
-4277.29
-4277
-4276.72
-4276.43
-4276.15
-4275.86
-4275.58
-4275.29
-4275.01
-4274.73
-4274.44
-4274.16
-4273.88
-4273.59
-4273.31
-4273.03
-4272.75
-4272.47
-4272.19
-4271.91
-4271.63
-4271.35
-4271.07
-4270.79
-4270.51
-4270.23
-4269.96
-4269.68
-4269.4
-4269.13
-4268.85
-4268.58
-4268.3
-4268.03
-4267.76
-4267.48
-4267.21
-4266.94
-4266.67
-4266.4
-4266.14
-4265.88
-4265.62
-4265.37
-4265.14
-4264.92
-4264.72
-4264.56
-4264.43
-4264.35
-4264.32
-4264.35
-4264.44
-4264.55
-4264.54
-4264.28
)
;
    }
    inlet
    {
        type            calculated;
        value           uniform 0;
    }
    rWedge
    {
        type            wedge;
    }
    lWedge
    {
        type            wedge;
    }
    outlet
    {
        type            calculated;
        value           nonuniform 0();
    }
    procBoundary2to0
    {
        type            processor;
        value           uniform 0;
    }
    procBoundary2to1
    {
        type            processor;
        value           uniform 0;
    }
    procBoundary2to3
    {
        type            processor;
        value           uniform 0;
    }
}


// ************************************************************************* //
