# St ()      
# Time       	patch        	min          	max          	average      
1.2e-05      	cone	1.287056e-03	1.982129e-01	5.507613e-02
