# Cp ()      
# Time       	patch        	min          	max          	average      
1.2e-05      	cone	1.397414e-01	1.845677e+00	7.269719e-01
