/*--------------------------------*- C++ -*----------------------------------*\
| =========                 |                                                 |
| \\      /  F ield         | OpenFOAM: The Open Source CFD Toolbox           |
|  \\    /   O peration     | Version:  v1706                                 |
|   \\  /    A nd           | Web:      www.OpenFOAM.com                      |
|    \\/     M anipulation  |                                                 |
\*---------------------------------------------------------------------------*/
FoamFile
{
    version     2.0;
    format      ascii;
    class       volScalarField;
    location    "5e-06";
    object      alpha;
}
// * * * * * * * * * * * * * * * * * * * * * * * * * * * * * * * * * * * * * //

dimensions      [1 -1 -1 0 0 0 0];


internalField   nonuniform List<scalar> 
30104
(
1.40478e-05
1.40478e-05
1.40478e-05
1.40478e-05
1.40478e-05
1.40478e-05
1.40478e-05
1.40478e-05
1.40478e-05
1.40478e-05
1.40478e-05
1.40478e-05
1.40478e-05
1.40478e-05
1.40478e-05
1.40478e-05
1.40478e-05
1.40478e-05
1.40478e-05
1.40478e-05
1.40478e-05
1.40478e-05
1.40478e-05
1.40478e-05
1.40478e-05
1.40478e-05
1.40478e-05
1.40478e-05
1.40478e-05
1.40478e-05
1.40478e-05
1.40478e-05
1.40478e-05
1.40478e-05
1.40478e-05
1.40478e-05
1.40478e-05
1.40478e-05
1.40478e-05
1.40478e-05
1.40478e-05
1.40478e-05
1.40478e-05
1.40478e-05
1.40478e-05
1.40478e-05
1.40478e-05
1.40478e-05
1.40478e-05
1.40478e-05
1.40478e-05
1.40478e-05
1.40478e-05
1.40478e-05
1.40478e-05
1.40478e-05
1.40478e-05
1.40478e-05
1.40478e-05
1.40478e-05
1.40478e-05
1.40478e-05
1.40478e-05
1.40478e-05
1.40478e-05
1.40478e-05
1.40478e-05
1.40478e-05
1.40478e-05
1.40478e-05
1.40478e-05
1.40478e-05
1.40478e-05
1.40478e-05
1.40478e-05
1.40478e-05
1.40478e-05
1.40478e-05
1.40478e-05
1.40478e-05
1.40478e-05
1.40478e-05
1.40478e-05
1.40478e-05
1.40478e-05
1.40478e-05
1.40478e-05
1.40478e-05
1.40478e-05
1.40478e-05
1.40478e-05
1.40478e-05
1.40478e-05
1.40478e-05
1.40478e-05
1.40478e-05
1.40478e-05
1.40478e-05
1.40478e-05
1.40478e-05
1.40478e-05
1.40478e-05
1.40478e-05
1.40478e-05
1.40478e-05
1.40478e-05
1.40478e-05
1.40478e-05
1.40478e-05
1.40478e-05
1.40478e-05
1.40478e-05
1.40478e-05
1.40478e-05
1.40478e-05
1.40478e-05
1.40478e-05
1.40478e-05
1.40478e-05
1.40478e-05
1.40478e-05
1.40478e-05
1.40478e-05
1.40478e-05
1.40478e-05
1.40478e-05
1.40478e-05
1.40478e-05
1.40478e-05
1.40478e-05
1.40478e-05
1.40478e-05
1.40478e-05
1.40478e-05
1.40478e-05
1.40478e-05
1.40478e-05
1.40478e-05
1.40478e-05
1.40478e-05
1.40478e-05
1.40478e-05
1.40478e-05
1.40478e-05
1.40478e-05
1.40478e-05
1.40478e-05
1.40478e-05
1.40478e-05
1.40478e-05
1.40478e-05
1.40478e-05
1.40478e-05
1.40478e-05
1.40478e-05
1.40478e-05
1.40478e-05
1.40478e-05
1.40478e-05
1.40478e-05
1.40478e-05
1.40478e-05
1.40478e-05
1.40478e-05
1.40478e-05
1.40478e-05
1.40478e-05
1.40478e-05
1.40478e-05
1.40478e-05
1.40478e-05
1.40478e-05
1.40478e-05
1.40478e-05
1.40478e-05
1.40478e-05
1.40478e-05
1.40478e-05
1.40478e-05
1.40478e-05
1.40478e-05
1.40478e-05
1.40478e-05
1.40478e-05
1.40478e-05
1.40478e-05
1.40478e-05
1.40478e-05
1.40478e-05
1.40478e-05
1.40478e-05
1.40478e-05
1.40478e-05
1.40478e-05
1.40478e-05
1.40478e-05
1.40478e-05
1.40478e-05
1.40478e-05
1.40478e-05
1.40478e-05
1.40478e-05
1.40478e-05
1.40478e-05
1.40478e-05
1.40478e-05
1.40478e-05
1.40478e-05
1.40478e-05
1.40478e-05
1.40478e-05
1.40478e-05
1.40478e-05
1.40478e-05
1.40478e-05
1.40478e-05
1.40478e-05
1.40478e-05
1.40478e-05
1.40478e-05
1.40478e-05
1.40478e-05
1.40478e-05
1.40478e-05
1.40478e-05
1.40478e-05
1.40478e-05
1.40478e-05
1.40478e-05
1.40478e-05
1.40478e-05
1.40478e-05
1.40478e-05
1.40478e-05
1.40478e-05
1.40478e-05
1.40478e-05
1.40478e-05
1.40478e-05
1.40478e-05
1.40478e-05
1.40478e-05
1.40478e-05
1.40478e-05
1.40478e-05
1.40478e-05
1.40478e-05
1.40478e-05
1.40478e-05
1.40478e-05
1.40478e-05
1.40478e-05
1.40478e-05
1.40478e-05
1.40478e-05
1.40478e-05
1.40478e-05
1.40478e-05
1.40478e-05
1.40478e-05
1.40478e-05
1.40478e-05
1.40478e-05
1.40478e-05
1.40478e-05
1.40478e-05
1.40478e-05
1.40478e-05
1.40478e-05
1.40478e-05
1.40478e-05
1.40478e-05
1.40478e-05
1.40478e-05
1.40478e-05
1.40478e-05
1.40478e-05
1.40478e-05
1.40478e-05
1.40478e-05
1.40478e-05
1.40478e-05
1.40478e-05
1.40478e-05
1.40478e-05
1.40478e-05
1.40478e-05
1.40478e-05
1.40478e-05
1.40478e-05
1.40478e-05
1.40478e-05
1.40478e-05
1.40478e-05
1.40478e-05
1.40478e-05
1.40478e-05
1.40478e-05
1.40478e-05
1.40478e-05
1.40478e-05
1.40478e-05
1.40478e-05
1.40478e-05
1.40478e-05
1.40478e-05
1.40478e-05
1.40478e-05
1.40478e-05
1.40478e-05
1.40478e-05
1.40478e-05
1.40478e-05
1.40478e-05
1.40478e-05
1.40478e-05
1.40478e-05
1.40478e-05
1.40478e-05
1.40478e-05
1.40478e-05
1.40478e-05
1.40478e-05
1.40478e-05
1.40478e-05
1.40478e-05
1.40478e-05
1.40478e-05
1.40478e-05
1.40478e-05
1.40478e-05
1.40478e-05
1.40478e-05
1.40478e-05
1.40478e-05
1.40478e-05
1.40478e-05
1.40478e-05
1.40478e-05
1.40478e-05
1.40478e-05
1.40478e-05
1.40478e-05
1.40478e-05
1.40478e-05
1.40478e-05
1.40478e-05
1.40478e-05
1.40478e-05
1.40478e-05
1.40478e-05
1.40478e-05
1.40478e-05
1.40478e-05
1.40478e-05
1.40478e-05
1.40478e-05
1.40478e-05
1.40478e-05
1.40478e-05
1.40478e-05
1.40478e-05
1.40478e-05
1.40478e-05
1.40478e-05
1.40478e-05
1.40478e-05
1.40478e-05
1.40478e-05
1.40478e-05
1.40478e-05
1.40478e-05
1.40478e-05
1.40478e-05
1.40478e-05
1.40478e-05
1.40478e-05
1.40478e-05
1.40478e-05
1.40478e-05
1.40478e-05
1.40478e-05
1.40478e-05
1.40478e-05
1.40478e-05
1.40478e-05
1.40478e-05
1.40478e-05
1.40478e-05
1.40478e-05
1.40478e-05
1.40478e-05
1.40478e-05
1.40478e-05
1.40478e-05
1.40478e-05
1.40478e-05
1.40478e-05
1.40478e-05
1.40478e-05
1.40478e-05
1.40478e-05
1.40478e-05
1.40478e-05
1.40478e-05
1.40478e-05
1.40478e-05
1.40478e-05
1.40478e-05
1.40478e-05
1.40478e-05
1.40478e-05
1.40478e-05
1.40478e-05
1.40478e-05
1.40478e-05
1.40478e-05
1.40478e-05
1.40478e-05
1.40478e-05
1.40478e-05
1.40478e-05
1.40478e-05
1.40478e-05
1.40478e-05
1.40478e-05
1.40478e-05
1.40478e-05
1.40478e-05
1.40478e-05
1.40478e-05
1.40478e-05
1.40478e-05
1.40478e-05
1.40478e-05
1.40478e-05
1.40478e-05
1.40478e-05
1.40478e-05
1.40478e-05
1.40478e-05
1.40478e-05
1.40478e-05
1.40478e-05
1.40478e-05
1.40478e-05
1.40478e-05
1.40478e-05
1.40478e-05
1.40478e-05
1.40478e-05
1.40478e-05
1.40478e-05
1.40478e-05
1.40478e-05
1.40478e-05
1.40478e-05
1.40478e-05
1.40478e-05
1.40478e-05
1.40478e-05
1.40478e-05
1.40478e-05
1.40478e-05
1.40478e-05
1.40478e-05
1.40478e-05
1.40478e-05
1.40478e-05
1.40478e-05
1.40478e-05
1.40478e-05
1.40478e-05
1.40478e-05
1.40478e-05
1.40478e-05
1.40478e-05
1.40478e-05
1.40478e-05
1.40478e-05
1.40478e-05
1.40478e-05
1.40478e-05
1.40478e-05
1.40478e-05
1.40478e-05
1.40478e-05
1.40478e-05
1.40478e-05
1.40478e-05
1.40478e-05
1.40478e-05
1.40478e-05
1.40478e-05
1.40478e-05
1.40478e-05
1.40478e-05
1.40478e-05
1.40478e-05
1.40478e-05
1.40478e-05
1.40478e-05
1.40478e-05
1.40478e-05
1.40478e-05
1.40478e-05
1.40478e-05
1.40478e-05
1.40478e-05
1.40478e-05
1.40478e-05
1.40478e-05
1.40478e-05
1.40478e-05
1.40478e-05
1.40478e-05
1.40478e-05
1.40478e-05
1.40478e-05
1.40478e-05
1.40478e-05
1.40478e-05
1.40478e-05
1.40478e-05
1.40478e-05
1.40478e-05
1.40478e-05
1.40478e-05
1.40478e-05
1.40478e-05
1.40478e-05
1.40478e-05
1.40478e-05
1.40478e-05
1.40478e-05
1.40478e-05
1.40478e-05
1.40478e-05
1.40478e-05
1.40478e-05
1.40478e-05
1.40478e-05
1.40478e-05
1.40478e-05
1.40478e-05
1.40478e-05
1.40478e-05
1.40478e-05
1.40478e-05
1.40478e-05
1.40478e-05
1.40478e-05
1.40478e-05
1.40478e-05
1.40478e-05
1.40478e-05
1.40478e-05
1.40478e-05
1.40478e-05
1.40478e-05
1.40478e-05
1.40478e-05
1.40478e-05
1.40478e-05
1.40478e-05
1.40478e-05
1.40478e-05
1.40478e-05
1.40478e-05
1.40478e-05
1.40478e-05
1.40478e-05
1.40478e-05
1.40478e-05
1.40478e-05
1.40478e-05
1.40478e-05
1.40478e-05
1.40478e-05
1.40478e-05
1.40478e-05
1.40478e-05
1.40478e-05
1.40478e-05
1.40478e-05
1.40478e-05
1.40478e-05
1.40478e-05
1.40478e-05
1.40478e-05
1.40478e-05
1.40478e-05
1.40478e-05
1.40478e-05
1.40478e-05
1.40478e-05
1.40478e-05
1.40478e-05
1.40478e-05
1.40478e-05
1.40478e-05
1.40478e-05
1.40478e-05
1.40478e-05
1.40478e-05
1.40478e-05
1.40478e-05
1.40478e-05
1.40478e-05
1.40478e-05
1.40478e-05
1.40478e-05
1.40478e-05
1.40478e-05
1.40478e-05
1.40478e-05
1.40478e-05
1.40478e-05
1.40478e-05
1.40478e-05
1.40478e-05
1.40478e-05
1.40478e-05
1.40478e-05
1.40478e-05
1.40478e-05
1.40478e-05
1.40478e-05
1.40478e-05
1.40478e-05
1.40478e-05
1.40478e-05
1.40478e-05
1.40478e-05
1.40478e-05
1.40478e-05
1.40478e-05
1.40478e-05
1.40478e-05
1.40478e-05
1.40478e-05
1.40478e-05
1.40478e-05
1.40478e-05
1.40478e-05
1.40478e-05
1.40478e-05
1.40478e-05
1.40478e-05
1.40478e-05
1.40478e-05
1.40478e-05
1.40478e-05
1.40478e-05
1.40478e-05
1.40478e-05
1.40478e-05
1.40478e-05
1.40478e-05
1.40478e-05
1.40478e-05
1.40478e-05
1.40478e-05
1.40478e-05
1.40478e-05
1.40478e-05
1.40478e-05
1.40478e-05
1.40478e-05
1.40478e-05
1.40478e-05
1.40478e-05
1.40478e-05
1.40478e-05
1.40478e-05
1.40478e-05
1.40478e-05
1.40478e-05
1.40478e-05
1.40478e-05
1.40478e-05
1.40478e-05
1.40478e-05
1.40478e-05
1.40478e-05
1.40478e-05
1.40478e-05
1.40478e-05
1.40478e-05
1.40478e-05
1.40478e-05
1.40478e-05
1.40478e-05
1.40478e-05
1.40478e-05
1.40478e-05
1.40478e-05
1.40478e-05
1.40478e-05
1.40478e-05
1.40478e-05
1.40478e-05
1.40478e-05
1.40478e-05
1.40478e-05
1.40478e-05
1.40478e-05
1.40478e-05
1.40478e-05
1.40478e-05
1.40478e-05
1.40478e-05
1.40478e-05
1.40478e-05
1.40478e-05
1.40478e-05
1.40478e-05
1.40478e-05
1.40478e-05
1.40478e-05
1.40478e-05
1.40478e-05
1.40478e-05
1.40478e-05
1.40478e-05
1.40478e-05
1.40478e-05
1.40478e-05
1.40478e-05
1.40478e-05
1.40478e-05
1.40478e-05
1.40478e-05
1.40478e-05
1.40478e-05
1.40478e-05
1.40478e-05
1.40478e-05
1.40478e-05
1.40478e-05
1.40478e-05
1.40478e-05
1.40478e-05
1.40478e-05
1.40478e-05
1.40478e-05
1.40478e-05
1.40478e-05
1.40478e-05
1.40478e-05
1.40478e-05
1.40478e-05
1.40478e-05
1.40478e-05
1.40478e-05
1.40478e-05
1.40478e-05
1.40478e-05
1.40478e-05
1.40478e-05
1.40478e-05
1.40478e-05
1.40478e-05
1.40478e-05
1.40478e-05
1.40478e-05
1.40478e-05
1.40478e-05
1.40478e-05
1.40478e-05
1.40478e-05
1.40478e-05
1.40478e-05
1.40478e-05
1.40478e-05
1.40478e-05
1.40478e-05
1.40478e-05
1.40478e-05
1.40478e-05
1.40478e-05
1.40478e-05
1.40478e-05
1.40478e-05
1.40478e-05
1.40478e-05
1.40478e-05
1.40478e-05
1.40478e-05
1.40478e-05
1.40478e-05
1.40478e-05
1.40478e-05
1.40478e-05
1.40478e-05
1.40478e-05
1.40478e-05
1.40478e-05
1.40478e-05
1.40479e-05
1.40479e-05
1.40479e-05
1.40479e-05
1.40479e-05
1.40479e-05
1.40479e-05
1.40479e-05
1.40479e-05
1.40479e-05
1.40479e-05
1.40479e-05
1.40479e-05
1.40479e-05
1.40479e-05
1.40479e-05
1.40479e-05
1.4048e-05
1.4048e-05
1.4048e-05
1.4048e-05
1.4048e-05
1.4048e-05
1.4048e-05
1.4048e-05
1.40481e-05
1.40481e-05
1.40481e-05
1.40481e-05
1.40481e-05
1.40482e-05
1.40482e-05
1.40482e-05
1.40482e-05
1.40483e-05
1.40483e-05
1.40483e-05
1.40484e-05
1.40483e-05
1.40478e-05
1.40478e-05
1.40478e-05
1.40478e-05
1.40478e-05
1.40478e-05
1.40478e-05
1.40478e-05
1.40478e-05
1.40478e-05
1.40478e-05
1.40478e-05
1.40478e-05
1.40478e-05
1.40478e-05
1.40478e-05
1.40478e-05
1.40478e-05
1.40478e-05
1.40478e-05
1.40478e-05
1.40478e-05
1.40478e-05
1.40478e-05
1.40478e-05
1.40478e-05
1.40478e-05
1.40478e-05
1.40478e-05
1.40478e-05
1.40478e-05
1.40478e-05
1.40478e-05
1.40478e-05
1.40478e-05
1.40478e-05
1.40478e-05
1.40478e-05
1.40478e-05
1.40478e-05
1.40478e-05
1.40478e-05
1.40478e-05
1.40478e-05
1.40478e-05
1.40478e-05
1.40478e-05
1.40478e-05
1.40478e-05
1.40478e-05
1.40478e-05
1.40478e-05
1.40478e-05
1.40478e-05
1.40478e-05
1.40478e-05
1.40478e-05
1.40478e-05
1.40478e-05
1.40478e-05
1.40478e-05
1.40478e-05
1.40478e-05
1.40478e-05
1.40478e-05
1.40478e-05
1.40478e-05
1.40478e-05
1.40478e-05
1.40478e-05
1.40478e-05
1.40478e-05
1.40478e-05
1.40478e-05
1.40478e-05
1.40478e-05
1.40478e-05
1.40478e-05
1.40478e-05
1.40478e-05
1.40478e-05
1.40478e-05
1.40478e-05
1.40478e-05
1.40478e-05
1.40478e-05
1.40478e-05
1.40478e-05
1.40478e-05
1.40478e-05
1.40478e-05
1.40478e-05
1.40478e-05
1.40478e-05
1.40478e-05
1.40478e-05
1.40478e-05
1.40478e-05
1.40478e-05
1.40478e-05
1.40478e-05
1.40478e-05
1.40478e-05
1.40478e-05
1.40478e-05
1.40478e-05
1.40478e-05
1.40478e-05
1.40478e-05
1.40478e-05
1.40478e-05
1.40478e-05
1.40478e-05
1.40478e-05
1.40478e-05
1.40478e-05
1.40478e-05
1.40478e-05
1.40478e-05
1.40478e-05
1.40478e-05
1.40478e-05
1.40478e-05
1.40478e-05
1.40478e-05
1.40478e-05
1.40478e-05
1.40478e-05
1.40478e-05
1.40478e-05
1.40478e-05
1.40478e-05
1.40478e-05
1.40478e-05
1.40478e-05
1.40479e-05
1.40479e-05
1.40479e-05
1.40479e-05
1.40479e-05
1.40479e-05
1.40479e-05
1.40479e-05
1.40479e-05
1.40479e-05
1.40479e-05
1.40479e-05
1.40479e-05
1.40479e-05
1.40479e-05
1.40479e-05
1.4048e-05
1.4048e-05
1.4048e-05
1.4048e-05
1.4048e-05
1.4048e-05
1.4048e-05
1.4048e-05
1.40481e-05
1.40481e-05
1.40481e-05
1.40481e-05
1.40481e-05
1.40482e-05
1.40482e-05
1.40482e-05
1.40482e-05
1.40483e-05
1.40483e-05
1.40483e-05
1.40484e-05
1.40484e-05
1.40485e-05
1.40485e-05
1.40485e-05
1.40486e-05
1.40487e-05
1.40487e-05
1.40488e-05
1.40488e-05
1.40489e-05
1.4049e-05
1.40491e-05
1.40491e-05
1.40492e-05
1.40493e-05
1.40494e-05
1.40495e-05
1.40496e-05
1.40497e-05
1.40498e-05
1.405e-05
1.40501e-05
1.40502e-05
1.40504e-05
1.40506e-05
1.40507e-05
1.40509e-05
1.40511e-05
1.40513e-05
1.40515e-05
1.40518e-05
1.4052e-05
1.40523e-05
1.40526e-05
1.4053e-05
1.40529e-05
1.40478e-05
1.40478e-05
1.40478e-05
1.40478e-05
1.40478e-05
1.40478e-05
1.40478e-05
1.40478e-05
1.40478e-05
1.40478e-05
1.40478e-05
1.40478e-05
1.40478e-05
1.40478e-05
1.40478e-05
1.40478e-05
1.40478e-05
1.40478e-05
1.40478e-05
1.40478e-05
1.40478e-05
1.40478e-05
1.40478e-05
1.40478e-05
1.40478e-05
1.40478e-05
1.40478e-05
1.40478e-05
1.40478e-05
1.40478e-05
1.40478e-05
1.40478e-05
1.40478e-05
1.40478e-05
1.40478e-05
1.40478e-05
1.40478e-05
1.40478e-05
1.40478e-05
1.40478e-05
1.40478e-05
1.40478e-05
1.40478e-05
1.40478e-05
1.40478e-05
1.40478e-05
1.40478e-05
1.40478e-05
1.40478e-05
1.40478e-05
1.40478e-05
1.40478e-05
1.40478e-05
1.40478e-05
1.40478e-05
1.40478e-05
1.40478e-05
1.40478e-05
1.40478e-05
1.40478e-05
1.40478e-05
1.40478e-05
1.40478e-05
1.40478e-05
1.40478e-05
1.40478e-05
1.40478e-05
1.40478e-05
1.40478e-05
1.40478e-05
1.40478e-05
1.40478e-05
1.40478e-05
1.40478e-05
1.40478e-05
1.40478e-05
1.40478e-05
1.40478e-05
1.40478e-05
1.40478e-05
1.40478e-05
1.40478e-05
1.40478e-05
1.40478e-05
1.40478e-05
1.40478e-05
1.40478e-05
1.40478e-05
1.40478e-05
1.40478e-05
1.40478e-05
1.40478e-05
1.40478e-05
1.40478e-05
1.40478e-05
1.40478e-05
1.40478e-05
1.40478e-05
1.40478e-05
1.40478e-05
1.40478e-05
1.40478e-05
1.40478e-05
1.40478e-05
1.40478e-05
1.40479e-05
1.40479e-05
1.40479e-05
1.40479e-05
1.40479e-05
1.40479e-05
1.40479e-05
1.40479e-05
1.40479e-05
1.40479e-05
1.40479e-05
1.40479e-05
1.40479e-05
1.40479e-05
1.40479e-05
1.4048e-05
1.4048e-05
1.4048e-05
1.4048e-05
1.4048e-05
1.4048e-05
1.4048e-05
1.40481e-05
1.40481e-05
1.40481e-05
1.40481e-05
1.40481e-05
1.40482e-05
1.40482e-05
1.40482e-05
1.40482e-05
1.40483e-05
1.40483e-05
1.40483e-05
1.40484e-05
1.40484e-05
1.40484e-05
1.40485e-05
1.40485e-05
1.40486e-05
1.40486e-05
1.40487e-05
1.40488e-05
1.40488e-05
1.40489e-05
1.4049e-05
1.4049e-05
1.40491e-05
1.40492e-05
1.40493e-05
1.40494e-05
1.40496e-05
1.40497e-05
1.40498e-05
1.40499e-05
1.40501e-05
1.40502e-05
1.40504e-05
1.40506e-05
1.40507e-05
1.40509e-05
1.40511e-05
1.40514e-05
1.40516e-05
1.40518e-05
1.40521e-05
1.40524e-05
1.40527e-05
1.4053e-05
1.40534e-05
1.40537e-05
1.40541e-05
1.40546e-05
1.4055e-05
1.40555e-05
1.40561e-05
1.40566e-05
1.40572e-05
1.40579e-05
1.40585e-05
1.40593e-05
1.406e-05
1.40608e-05
1.40617e-05
1.40626e-05
1.40635e-05
1.40645e-05
1.40656e-05
1.40667e-05
1.40679e-05
1.40692e-05
1.40705e-05
1.4072e-05
1.40735e-05
1.40752e-05
1.40769e-05
1.40788e-05
1.40809e-05
1.4083e-05
1.40854e-05
1.4088e-05
1.40907e-05
1.40946e-05
1.40942e-05
1.40478e-05
1.40478e-05
1.40478e-05
1.40478e-05
1.40478e-05
1.40478e-05
1.40478e-05
1.40478e-05
1.40478e-05
1.40478e-05
1.40478e-05
1.40478e-05
1.40478e-05
1.40478e-05
1.40478e-05
1.40478e-05
1.40478e-05
1.40478e-05
1.40478e-05
1.40478e-05
1.40478e-05
1.40478e-05
1.40478e-05
1.40478e-05
1.40478e-05
1.40478e-05
1.40478e-05
1.40478e-05
1.40478e-05
1.40478e-05
1.40478e-05
1.40478e-05
1.40478e-05
1.40478e-05
1.40478e-05
1.40478e-05
1.40478e-05
1.40478e-05
1.40478e-05
1.40478e-05
1.40478e-05
1.40478e-05
1.40478e-05
1.40478e-05
1.40478e-05
1.40478e-05
1.40478e-05
1.40478e-05
1.40478e-05
1.40478e-05
1.40478e-05
1.40478e-05
1.40478e-05
1.40478e-05
1.40478e-05
1.40478e-05
1.40478e-05
1.40478e-05
1.40478e-05
1.40478e-05
1.40478e-05
1.40478e-05
1.40478e-05
1.40478e-05
1.40478e-05
1.40478e-05
1.40478e-05
1.40478e-05
1.40478e-05
1.40478e-05
1.40478e-05
1.40478e-05
1.40478e-05
1.40479e-05
1.40479e-05
1.40479e-05
1.40479e-05
1.40479e-05
1.40479e-05
1.40479e-05
1.40479e-05
1.40479e-05
1.40479e-05
1.40479e-05
1.40479e-05
1.40479e-05
1.40479e-05
1.4048e-05
1.4048e-05
1.4048e-05
1.4048e-05
1.4048e-05
1.4048e-05
1.4048e-05
1.40481e-05
1.40481e-05
1.40481e-05
1.40481e-05
1.40481e-05
1.40482e-05
1.40482e-05
1.40482e-05
1.40482e-05
1.40483e-05
1.40483e-05
1.40483e-05
1.40484e-05
1.40484e-05
1.40485e-05
1.40485e-05
1.40485e-05
1.40486e-05
1.40487e-05
1.40487e-05
1.40488e-05
1.40488e-05
1.40489e-05
1.4049e-05
1.40491e-05
1.40492e-05
1.40493e-05
1.40494e-05
1.40495e-05
1.40496e-05
1.40497e-05
1.40499e-05
1.405e-05
1.40502e-05
1.40504e-05
1.40505e-05
1.40507e-05
1.40509e-05
1.40512e-05
1.40514e-05
1.40516e-05
1.40519e-05
1.40522e-05
1.40525e-05
1.40528e-05
1.40531e-05
1.40535e-05
1.40539e-05
1.40543e-05
1.40548e-05
1.40552e-05
1.40558e-05
1.40563e-05
1.40569e-05
1.40575e-05
1.40582e-05
1.4059e-05
1.40598e-05
1.40606e-05
1.40615e-05
1.40625e-05
1.40635e-05
1.40646e-05
1.40658e-05
1.40671e-05
1.40684e-05
1.40698e-05
1.40713e-05
1.40729e-05
1.40746e-05
1.40764e-05
1.40783e-05
1.40804e-05
1.40825e-05
1.40849e-05
1.40874e-05
1.40901e-05
1.4093e-05
1.40961e-05
1.40994e-05
1.41031e-05
1.4107e-05
1.41113e-05
1.41159e-05
1.41209e-05
1.41263e-05
1.41321e-05
1.41384e-05
1.41451e-05
1.41524e-05
1.41602e-05
1.41686e-05
1.41775e-05
1.41869e-05
1.41969e-05
1.42075e-05
1.42187e-05
1.42304e-05
1.42427e-05
1.42555e-05
1.4269e-05
1.4283e-05
1.42977e-05
1.4313e-05
1.43292e-05
1.43462e-05
1.43642e-05
1.43833e-05
1.44038e-05
1.44254e-05
1.44535e-05
1.44559e-05
1.40478e-05
1.40478e-05
1.40478e-05
1.40478e-05
1.40478e-05
1.40478e-05
1.40478e-05
1.40478e-05
1.40478e-05
1.40478e-05
1.40478e-05
1.40478e-05
1.40478e-05
1.40478e-05
1.40478e-05
1.40478e-05
1.40478e-05
1.40478e-05
1.40478e-05
1.40478e-05
1.40478e-05
1.40478e-05
1.40478e-05
1.40478e-05
1.40478e-05
1.40478e-05
1.40478e-05
1.40478e-05
1.40478e-05
1.40478e-05
1.40478e-05
1.40478e-05
1.40478e-05
1.40478e-05
1.40478e-05
1.40478e-05
1.40478e-05
1.40478e-05
1.40478e-05
1.40478e-05
1.40478e-05
1.40478e-05
1.40478e-05
1.40478e-05
1.40478e-05
1.40479e-05
1.40479e-05
1.40479e-05
1.40479e-05
1.40479e-05
1.40479e-05
1.40479e-05
1.40479e-05
1.40479e-05
1.40479e-05
1.40479e-05
1.40479e-05
1.40479e-05
1.40479e-05
1.4048e-05
1.4048e-05
1.4048e-05
1.4048e-05
1.4048e-05
1.4048e-05
1.4048e-05
1.40481e-05
1.40481e-05
1.40481e-05
1.40481e-05
1.40481e-05
1.40482e-05
1.40482e-05
1.40482e-05
1.40482e-05
1.40483e-05
1.40483e-05
1.40483e-05
1.40484e-05
1.40484e-05
1.40485e-05
1.40485e-05
1.40486e-05
1.40486e-05
1.40487e-05
1.40487e-05
1.40488e-05
1.40489e-05
1.4049e-05
1.4049e-05
1.40491e-05
1.40492e-05
1.40493e-05
1.40494e-05
1.40495e-05
1.40497e-05
1.40498e-05
1.40499e-05
1.40501e-05
1.40503e-05
1.40504e-05
1.40506e-05
1.40508e-05
1.40511e-05
1.40513e-05
1.40516e-05
1.40518e-05
1.40521e-05
1.40524e-05
1.40528e-05
1.40531e-05
1.40535e-05
1.40539e-05
1.40544e-05
1.40548e-05
1.40553e-05
1.40559e-05
1.40564e-05
1.4057e-05
1.40577e-05
1.40584e-05
1.40592e-05
1.406e-05
1.40608e-05
1.40618e-05
1.40628e-05
1.40639e-05
1.40651e-05
1.40663e-05
1.40677e-05
1.40691e-05
1.40707e-05
1.40724e-05
1.40741e-05
1.4076e-05
1.40781e-05
1.40802e-05
1.40825e-05
1.4085e-05
1.40876e-05
1.40904e-05
1.40933e-05
1.40965e-05
1.40999e-05
1.41036e-05
1.41075e-05
1.41117e-05
1.41163e-05
1.41212e-05
1.41266e-05
1.41324e-05
1.41386e-05
1.41455e-05
1.41528e-05
1.41608e-05
1.41695e-05
1.41788e-05
1.41889e-05
1.41998e-05
1.42114e-05
1.42239e-05
1.42372e-05
1.42514e-05
1.42664e-05
1.42824e-05
1.42992e-05
1.43168e-05
1.43354e-05
1.4355e-05
1.43755e-05
1.43971e-05
1.44198e-05
1.44438e-05
1.44693e-05
1.44965e-05
1.45255e-05
1.45567e-05
1.45904e-05
1.46269e-05
1.46666e-05
1.47097e-05
1.47568e-05
1.48082e-05
1.48642e-05
1.49253e-05
1.49917e-05
1.50638e-05
1.51418e-05
1.52258e-05
1.53159e-05
1.54121e-05
1.55141e-05
1.56218e-05
1.57345e-05
1.58522e-05
1.59737e-05
1.60992e-05
1.62272e-05
1.63586e-05
1.64913e-05
1.66274e-05
1.67641e-05
1.69055e-05
1.70466e-05
1.721e-05
1.72542e-05
1.40478e-05
1.40478e-05
1.40478e-05
1.40478e-05
1.40478e-05
1.40478e-05
1.40478e-05
1.40478e-05
1.40478e-05
1.40478e-05
1.40478e-05
1.40478e-05
1.40478e-05
1.40478e-05
1.40478e-05
1.40478e-05
1.40478e-05
1.40478e-05
1.40478e-05
1.40478e-05
1.40479e-05
1.40479e-05
1.40479e-05
1.40479e-05
1.40479e-05
1.40479e-05
1.40479e-05
1.40479e-05
1.40479e-05
1.40479e-05
1.40479e-05
1.40479e-05
1.40479e-05
1.40479e-05
1.4048e-05
1.4048e-05
1.4048e-05
1.4048e-05
1.4048e-05
1.4048e-05
1.4048e-05
1.40481e-05
1.40481e-05
1.40481e-05
1.40481e-05
1.40481e-05
1.40482e-05
1.40482e-05
1.40482e-05
1.40483e-05
1.40483e-05
1.40483e-05
1.40484e-05
1.40484e-05
1.40484e-05
1.40485e-05
1.40485e-05
1.40486e-05
1.40487e-05
1.40487e-05
1.40488e-05
1.40489e-05
1.40489e-05
1.4049e-05
1.40491e-05
1.40492e-05
1.40493e-05
1.40494e-05
1.40495e-05
1.40496e-05
1.40498e-05
1.40499e-05
1.40501e-05
1.40502e-05
1.40504e-05
1.40506e-05
1.40508e-05
1.4051e-05
1.40513e-05
1.40515e-05
1.40518e-05
1.40521e-05
1.40524e-05
1.40528e-05
1.40531e-05
1.40535e-05
1.4054e-05
1.40544e-05
1.40549e-05
1.40554e-05
1.4056e-05
1.40566e-05
1.40572e-05
1.40579e-05
1.40587e-05
1.40595e-05
1.40603e-05
1.40612e-05
1.40622e-05
1.40633e-05
1.40644e-05
1.40656e-05
1.40669e-05
1.40683e-05
1.40699e-05
1.40715e-05
1.40733e-05
1.40752e-05
1.40772e-05
1.40794e-05
1.40818e-05
1.40844e-05
1.40871e-05
1.409e-05
1.40931e-05
1.40964e-05
1.41e-05
1.41038e-05
1.41078e-05
1.41122e-05
1.41168e-05
1.41218e-05
1.41272e-05
1.4133e-05
1.41392e-05
1.4146e-05
1.41532e-05
1.41612e-05
1.41697e-05
1.4179e-05
1.41891e-05
1.42001e-05
1.42119e-05
1.42248e-05
1.42386e-05
1.42536e-05
1.42696e-05
1.42868e-05
1.43052e-05
1.43248e-05
1.43456e-05
1.43678e-05
1.43912e-05
1.44159e-05
1.4442e-05
1.44695e-05
1.44986e-05
1.45293e-05
1.45619e-05
1.45966e-05
1.46337e-05
1.46734e-05
1.47161e-05
1.47623e-05
1.48124e-05
1.48668e-05
1.49261e-05
1.49907e-05
1.50611e-05
1.51379e-05
1.52214e-05
1.5312e-05
1.541e-05
1.55155e-05
1.56287e-05
1.57494e-05
1.58774e-05
1.60122e-05
1.61534e-05
1.63003e-05
1.64523e-05
1.66086e-05
1.67687e-05
1.69321e-05
1.70988e-05
1.72686e-05
1.74422e-05
1.76203e-05
1.78041e-05
1.7995e-05
1.81948e-05
1.84057e-05
1.86303e-05
1.88713e-05
1.91318e-05
1.94151e-05
1.97248e-05
2.00644e-05
2.04373e-05
2.0847e-05
2.12957e-05
2.17862e-05
2.23178e-05
2.28919e-05
2.35031e-05
2.4152e-05
2.48265e-05
2.5529e-05
2.62391e-05
2.69646e-05
2.76761e-05
2.83925e-05
2.90734e-05
2.97526e-05
3.03847e-05
3.09987e-05
3.16241e-05
1.40478e-05
1.40478e-05
1.40478e-05
1.40478e-05
1.40478e-05
1.40478e-05
1.40478e-05
1.40478e-05
1.40478e-05
1.40478e-05
1.40478e-05
1.40478e-05
1.40478e-05
1.40478e-05
1.4048e-05
1.4048e-05
1.40481e-05
1.40481e-05
1.40481e-05
1.40481e-05
1.40481e-05
1.40482e-05
1.40482e-05
1.40482e-05
1.40483e-05
1.40483e-05
1.40483e-05
1.40484e-05
1.40484e-05
1.40485e-05
1.40485e-05
1.40486e-05
1.40486e-05
1.40487e-05
1.40487e-05
1.40488e-05
1.40489e-05
1.4049e-05
1.4049e-05
1.40491e-05
1.40492e-05
1.40493e-05
1.40494e-05
1.40496e-05
1.40497e-05
1.40498e-05
1.405e-05
1.40501e-05
1.40503e-05
1.40505e-05
1.40507e-05
1.40509e-05
1.40511e-05
1.40514e-05
1.40517e-05
1.40519e-05
1.40523e-05
1.40526e-05
1.40529e-05
1.40533e-05
1.40537e-05
1.40542e-05
1.40547e-05
1.40552e-05
1.40558e-05
1.40564e-05
1.4057e-05
1.40577e-05
1.40584e-05
1.40592e-05
1.40601e-05
1.4061e-05
1.4062e-05
1.40631e-05
1.40642e-05
1.40654e-05
1.40668e-05
1.40682e-05
1.40697e-05
1.40713e-05
1.40731e-05
1.4075e-05
1.40771e-05
1.40793e-05
1.40817e-05
1.40842e-05
1.4087e-05
1.409e-05
1.40933e-05
1.40967e-05
1.41005e-05
1.41045e-05
1.41087e-05
1.41133e-05
1.41183e-05
1.41236e-05
1.41292e-05
1.41353e-05
1.41418e-05
1.41488e-05
1.41563e-05
1.41644e-05
1.41732e-05
1.41827e-05
1.41929e-05
1.4204e-05
1.42161e-05
1.42292e-05
1.42434e-05
1.42588e-05
1.42754e-05
1.42935e-05
1.43129e-05
1.43339e-05
1.43564e-05
1.43806e-05
1.44064e-05
1.4434e-05
1.44633e-05
1.44944e-05
1.45275e-05
1.45624e-05
1.45995e-05
1.46387e-05
1.46804e-05
1.47247e-05
1.47721e-05
1.48227e-05
1.48771e-05
1.49358e-05
1.49992e-05
1.5068e-05
1.51427e-05
1.52239e-05
1.53123e-05
1.54083e-05
1.55124e-05
1.5625e-05
1.57465e-05
1.58769e-05
1.60162e-05
1.61644e-05
1.63209e-05
1.64854e-05
1.66572e-05
1.68357e-05
1.70201e-05
1.72098e-05
1.74044e-05
1.76036e-05
1.78077e-05
1.8017e-05
1.82326e-05
1.84558e-05
1.86885e-05
1.89328e-05
1.91914e-05
1.94673e-05
1.97638e-05
2.00844e-05
2.04328e-05
2.08126e-05
2.12275e-05
2.16804e-05
2.21739e-05
2.27091e-05
2.32862e-05
2.39035e-05
2.45578e-05
2.52439e-05
2.59552e-05
2.66836e-05
2.74203e-05
2.81562e-05
2.88824e-05
2.95909e-05
3.02748e-05
3.09294e-05
3.15516e-05
3.2139e-05
3.26902e-05
3.3205e-05
3.36841e-05
3.4129e-05
3.45419e-05
3.49258e-05
3.52835e-05
3.56186e-05
3.59338e-05
3.62323e-05
3.65166e-05
3.67888e-05
3.70506e-05
3.73027e-05
3.75465e-05
3.77813e-05
3.80084e-05
3.82265e-05
3.84376e-05
3.86402e-05
3.88373e-05
3.90303e-05
3.92461e-05
3.9458e-05
3.96625e-05
3.98708e-05
4.00196e-05
1.40478e-05
1.40478e-05
1.40478e-05
1.40478e-05
1.40478e-05
1.40478e-05
1.40478e-05
1.40478e-05
1.40478e-05
1.40478e-05
1.40478e-05
1.40478e-05
1.40478e-05
1.40478e-05
1.40491e-05
1.40491e-05
1.40492e-05
1.40494e-05
1.40495e-05
1.40496e-05
1.40497e-05
1.40499e-05
1.405e-05
1.40502e-05
1.40504e-05
1.40506e-05
1.40508e-05
1.4051e-05
1.40512e-05
1.40515e-05
1.40517e-05
1.4052e-05
1.40524e-05
1.40527e-05
1.40531e-05
1.40535e-05
1.40539e-05
1.40543e-05
1.40548e-05
1.40554e-05
1.40559e-05
1.40566e-05
1.40572e-05
1.40579e-05
1.40587e-05
1.40596e-05
1.40605e-05
1.40614e-05
1.40625e-05
1.40636e-05
1.40648e-05
1.40661e-05
1.40675e-05
1.4069e-05
1.40706e-05
1.40723e-05
1.40742e-05
1.40762e-05
1.40783e-05
1.40807e-05
1.40832e-05
1.40859e-05
1.40888e-05
1.4092e-05
1.40954e-05
1.40991e-05
1.4103e-05
1.41073e-05
1.41119e-05
1.41169e-05
1.41222e-05
1.4128e-05
1.41342e-05
1.41408e-05
1.41479e-05
1.41556e-05
1.41638e-05
1.41726e-05
1.41821e-05
1.41924e-05
1.42034e-05
1.42153e-05
1.42282e-05
1.42421e-05
1.42572e-05
1.42736e-05
1.42914e-05
1.43107e-05
1.43316e-05
1.43542e-05
1.43787e-05
1.44051e-05
1.44335e-05
1.44641e-05
1.44969e-05
1.4532e-05
1.45694e-05
1.46092e-05
1.46517e-05
1.46967e-05
1.47446e-05
1.47954e-05
1.48496e-05
1.49072e-05
1.49688e-05
1.50348e-05
1.51057e-05
1.51821e-05
1.52646e-05
1.5354e-05
1.54508e-05
1.55558e-05
1.56695e-05
1.57926e-05
1.59256e-05
1.60687e-05
1.62222e-05
1.6386e-05
1.656e-05
1.67439e-05
1.6937e-05
1.71388e-05
1.73486e-05
1.75655e-05
1.77892e-05
1.80191e-05
1.82552e-05
1.84978e-05
1.87477e-05
1.90061e-05
1.92748e-05
1.95561e-05
1.98525e-05
2.01672e-05
2.05035e-05
2.08649e-05
2.1255e-05
2.16772e-05
2.21346e-05
2.26299e-05
2.31647e-05
2.37394e-05
2.43531e-05
2.50032e-05
2.56855e-05
2.6394e-05
2.71215e-05
2.78596e-05
2.85994e-05
2.93319e-05
3.00488e-05
3.07425e-05
3.14067e-05
3.20371e-05
3.26316e-05
3.31894e-05
3.37104e-05
3.41952e-05
3.46456e-05
3.50637e-05
3.54523e-05
3.58144e-05
3.61533e-05
3.64717e-05
3.67724e-05
3.70573e-05
3.73282e-05
3.75861e-05
3.78318e-05
3.80656e-05
3.82877e-05
3.84985e-05
3.86982e-05
3.88879e-05
3.90687e-05
3.92424e-05
3.94131e-05
3.96035e-05
3.97911e-05
3.99732e-05
4.01487e-05
4.03188e-05
4.04846e-05
4.06478e-05
4.08113e-05
4.09757e-05
4.11415e-05
4.13094e-05
4.14797e-05
4.16522e-05
4.1827e-05
4.20035e-05
4.21818e-05
4.23611e-05
4.25415e-05
4.27222e-05
4.29038e-05
4.3085e-05
4.32674e-05
4.34488e-05
4.36322e-05
4.38117e-05
4.39671e-05
4.41084e-05
4.42427e-05
4.43861e-05
4.45045e-05
1.40478e-05
1.40478e-05
1.40478e-05
1.40478e-05
1.40478e-05
1.40479e-05
1.40479e-05
1.40479e-05
1.40479e-05
1.40479e-05
1.40479e-05
1.40479e-05
1.40479e-05
1.40545e-05
1.4055e-05
1.40556e-05
1.40561e-05
1.40568e-05
1.40575e-05
1.40582e-05
1.4059e-05
1.40598e-05
1.40608e-05
1.40618e-05
1.40628e-05
1.4064e-05
1.40652e-05
1.40666e-05
1.4068e-05
1.40696e-05
1.40713e-05
1.40731e-05
1.4075e-05
1.40771e-05
1.40794e-05
1.40818e-05
1.40844e-05
1.40872e-05
1.40903e-05
1.40935e-05
1.40971e-05
1.41009e-05
1.4105e-05
1.41095e-05
1.41143e-05
1.41195e-05
1.41251e-05
1.41312e-05
1.41377e-05
1.41448e-05
1.41524e-05
1.41605e-05
1.41693e-05
1.41788e-05
1.41889e-05
1.41999e-05
1.42117e-05
1.42243e-05
1.4238e-05
1.42527e-05
1.42687e-05
1.42859e-05
1.43045e-05
1.43247e-05
1.43465e-05
1.43702e-05
1.43959e-05
1.44237e-05
1.44538e-05
1.44863e-05
1.45214e-05
1.45592e-05
1.45998e-05
1.46433e-05
1.46899e-05
1.47396e-05
1.47926e-05
1.48491e-05
1.49092e-05
1.49732e-05
1.50413e-05
1.5114e-05
1.51917e-05
1.52749e-05
1.53642e-05
1.54602e-05
1.55638e-05
1.56756e-05
1.57964e-05
1.59269e-05
1.60677e-05
1.62196e-05
1.63827e-05
1.65575e-05
1.6744e-05
1.69421e-05
1.71515e-05
1.73716e-05
1.76018e-05
1.78415e-05
1.809e-05
1.83467e-05
1.86112e-05
1.88835e-05
1.9164e-05
1.94535e-05
1.97534e-05
2.00655e-05
2.03923e-05
2.07365e-05
2.11013e-05
2.14901e-05
2.19062e-05
2.23527e-05
2.28327e-05
2.33484e-05
2.3901e-05
2.4491e-05
2.5117e-05
2.57763e-05
2.64647e-05
2.71763e-05
2.79038e-05
2.86391e-05
2.93737e-05
3.00989e-05
3.08064e-05
3.14893e-05
3.21416e-05
3.27591e-05
3.33391e-05
3.38815e-05
3.43871e-05
3.48574e-05
3.52941e-05
3.56997e-05
3.60768e-05
3.64282e-05
3.67566e-05
3.70645e-05
3.73539e-05
3.76265e-05
3.78833e-05
3.81251e-05
3.83524e-05
3.85656e-05
3.87653e-05
3.89523e-05
3.91278e-05
3.92934e-05
3.94512e-05
3.96035e-05