/*--------------------------------*- C++ -*----------------------------------*\
| =========                 |                                                 |
| \\      /  F ield         | OpenFOAM: The Open Source CFD Toolbox           |
|  \\    /   O peration     | Version:  v1706                                 |
|   \\  /    A nd           | Web:      www.OpenFOAM.com                      |
|    \\/     M anipulation  |                                                 |
\*---------------------------------------------------------------------------*/
FoamFile
{
    version     2.0;
    format      ascii;
    class       volScalarField;
    location    "5e-06";
    object      kappatr;
}
// * * * * * * * * * * * * * * * * * * * * * * * * * * * * * * * * * * * * * //

dimensions      [1 1 -3 -1 0 0 0];


internalField   nonuniform List<scalar> 
30104
(
0.014593
0.014593
0.014593
0.014593
0.014593
0.014593
0.014593
0.014593
0.014593
0.014593
0.014593
0.014593
0.014593
0.014593
0.014593
0.014593
0.014593
0.014593
0.014593
0.014593
0.014593
0.014593
0.014593
0.014593
0.014593
0.014593
0.014593
0.014593
0.014593
0.014593
0.014593
0.014593
0.014593
0.014593
0.014593
0.014593
0.014593
0.014593
0.014593
0.014593
0.014593
0.014593
0.014593
0.014593
0.014593
0.014593
0.014593
0.014593
0.014593
0.014593
0.014593
0.014593
0.014593
0.014593
0.014593
0.014593
0.014593
0.014593
0.014593
0.014593
0.014593
0.014593
0.014593
0.014593
0.014593
0.014593
0.014593
0.014593
0.014593
0.014593
0.014593
0.014593
0.014593
0.014593
0.014593
0.014593
0.014593
0.014593
0.014593
0.014593
0.014593
0.014593
0.014593
0.014593
0.014593
0.014593
0.014593
0.014593
0.014593
0.014593
0.014593
0.014593
0.014593
0.014593
0.014593
0.014593
0.014593
0.014593
0.014593
0.014593
0.014593
0.014593
0.014593
0.014593
0.014593
0.014593
0.014593
0.014593
0.014593
0.014593
0.014593
0.014593
0.014593
0.014593
0.014593
0.014593
0.014593
0.014593
0.014593
0.014593
0.014593
0.014593
0.014593
0.014593
0.014593
0.014593
0.014593
0.014593
0.014593
0.014593
0.014593
0.014593
0.014593
0.014593
0.014593
0.014593
0.014593
0.014593
0.014593
0.014593
0.014593
0.014593
0.014593
0.014593
0.014593
0.014593
0.014593
0.014593
0.014593
0.014593
0.014593
0.014593
0.014593
0.014593
0.014593
0.014593
0.014593
0.014593
0.014593
0.014593
0.014593
0.014593
0.014593
0.014593
0.014593
0.014593
0.014593
0.014593
0.014593
0.014593
0.014593
0.014593
0.014593
0.014593
0.014593
0.014593
0.014593
0.014593
0.014593
0.014593
0.014593
0.014593
0.014593
0.014593
0.014593
0.014593
0.014593
0.014593
0.014593
0.014593
0.014593
0.014593
0.014593
0.014593
0.014593
0.014593
0.014593
0.014593
0.014593
0.014593
0.014593
0.014593
0.014593
0.014593
0.014593
0.014593
0.014593
0.014593
0.014593
0.014593
0.014593
0.014593
0.014593
0.014593
0.014593
0.014593
0.014593
0.014593
0.014593
0.014593
0.014593
0.014593
0.014593
0.014593
0.014593
0.014593
0.014593
0.014593
0.014593
0.014593
0.014593
0.014593
0.014593
0.014593
0.014593
0.014593
0.014593
0.014593
0.014593
0.014593
0.014593
0.014593
0.014593
0.014593
0.014593
0.014593
0.014593
0.014593
0.014593
0.014593
0.014593
0.014593
0.014593
0.014593
0.014593
0.014593
0.014593
0.014593
0.014593
0.014593
0.014593
0.014593
0.014593
0.014593
0.014593
0.014593
0.014593
0.014593
0.014593
0.014593
0.014593
0.014593
0.014593
0.014593
0.014593
0.014593
0.014593
0.014593
0.014593
0.014593
0.014593
0.014593
0.014593
0.014593
0.014593
0.014593
0.014593
0.014593
0.014593
0.014593
0.014593
0.014593
0.014593
0.014593
0.014593
0.014593
0.014593
0.014593
0.014593
0.014593
0.014593
0.014593
0.014593
0.014593
0.014593
0.014593
0.014593
0.014593
0.014593
0.014593
0.014593
0.014593
0.014593
0.014593
0.014593
0.014593
0.014593
0.014593
0.014593
0.014593
0.014593
0.014593
0.014593
0.014593
0.014593
0.014593
0.014593
0.014593
0.014593
0.014593
0.014593
0.014593
0.014593
0.014593
0.014593
0.014593
0.014593
0.014593
0.014593
0.014593
0.014593
0.014593
0.014593
0.014593
0.014593
0.014593
0.014593
0.014593
0.014593
0.014593
0.014593
0.014593
0.014593
0.014593
0.014593
0.014593
0.014593
0.014593
0.014593
0.014593
0.014593
0.014593
0.014593
0.014593
0.014593
0.014593
0.014593
0.014593
0.014593
0.014593
0.014593
0.014593
0.014593
0.014593
0.014593
0.014593
0.014593
0.014593
0.014593
0.014593
0.014593
0.014593
0.014593
0.014593
0.014593
0.014593
0.014593
0.014593
0.014593
0.014593
0.014593
0.014593
0.014593
0.014593
0.014593
0.014593
0.014593
0.014593
0.014593
0.014593
0.014593
0.014593
0.014593
0.014593
0.014593
0.014593
0.014593
0.014593
0.014593
0.014593
0.014593
0.014593
0.014593
0.014593
0.014593
0.014593
0.014593
0.014593
0.014593
0.014593
0.014593
0.014593
0.014593
0.014593
0.014593
0.014593
0.014593
0.014593
0.014593
0.014593
0.014593
0.014593
0.014593
0.014593
0.014593
0.014593
0.014593
0.014593
0.014593
0.014593
0.014593
0.014593
0.014593
0.014593
0.014593
0.014593
0.014593
0.014593
0.014593
0.014593
0.014593
0.014593
0.014593
0.014593
0.014593
0.014593
0.014593
0.014593
0.014593
0.014593
0.014593
0.014593
0.014593
0.014593
0.014593
0.014593
0.014593
0.014593
0.014593
0.014593
0.014593
0.014593
0.014593
0.014593
0.014593
0.014593
0.014593
0.014593
0.014593
0.014593
0.014593
0.014593
0.014593
0.014593
0.014593
0.014593
0.014593
0.014593
0.014593
0.014593
0.014593
0.014593
0.014593
0.014593
0.014593
0.014593
0.014593
0.014593
0.014593
0.014593
0.014593
0.014593
0.014593
0.014593
0.014593
0.014593
0.014593
0.014593
0.014593
0.014593
0.014593
0.014593
0.014593
0.014593
0.014593
0.014593
0.014593
0.014593
0.014593
0.014593
0.014593
0.014593
0.014593
0.014593
0.014593
0.014593
0.014593
0.014593
0.014593
0.014593
0.014593
0.014593
0.014593
0.014593
0.014593
0.014593
0.014593
0.014593
0.014593
0.014593
0.014593
0.014593
0.014593
0.014593
0.014593
0.014593
0.014593
0.014593
0.014593
0.014593
0.014593
0.014593
0.014593
0.014593
0.014593
0.014593
0.014593
0.014593
0.014593
0.014593
0.014593
0.014593
0.014593
0.014593
0.014593
0.014593
0.014593
0.014593
0.014593
0.014593
0.014593
0.014593
0.014593
0.014593
0.014593
0.014593
0.014593
0.014593
0.014593
0.014593
0.014593
0.014593
0.014593
0.014593
0.014593
0.014593
0.014593
0.014593
0.014593
0.014593
0.014593
0.014593
0.014593
0.014593
0.014593
0.014593
0.014593
0.014593
0.014593
0.014593
0.014593
0.014593
0.014593
0.014593
0.014593
0.014593
0.014593
0.014593
0.014593
0.014593
0.014593
0.014593
0.014593
0.014593
0.014593
0.014593
0.014593
0.014593
0.014593
0.014593
0.014593
0.014593
0.0145931
0.0145931
0.0145931
0.0145931
0.0145931
0.0145931
0.0145931
0.014593
0.014593
0.014593
0.014593
0.014593
0.014593
0.014593
0.014593
0.014593
0.014593
0.014593
0.014593
0.014593
0.014593
0.014593
0.014593
0.014593
0.014593
0.014593
0.014593
0.014593
0.014593
0.014593
0.014593
0.014593
0.014593
0.014593
0.014593
0.014593
0.014593
0.014593
0.014593
0.014593
0.014593
0.014593
0.014593
0.014593
0.014593
0.014593
0.014593
0.014593
0.014593
0.014593
0.014593
0.014593
0.014593
0.014593
0.014593
0.014593
0.014593
0.014593
0.014593
0.014593
0.014593
0.014593
0.014593
0.014593
0.014593
0.014593
0.014593
0.014593
0.014593
0.014593
0.014593
0.014593
0.014593
0.014593
0.014593
0.014593
0.014593
0.014593
0.014593
0.014593
0.014593
0.014593
0.014593
0.014593
0.014593
0.014593
0.014593
0.014593
0.014593
0.014593
0.014593
0.014593
0.014593
0.014593
0.014593
0.014593
0.014593
0.014593
0.014593
0.014593
0.014593
0.014593
0.014593
0.014593
0.014593
0.014593
0.014593
0.014593
0.014593
0.014593
0.014593
0.014593
0.014593
0.014593
0.014593
0.014593
0.014593
0.014593
0.014593
0.014593
0.014593
0.014593
0.014593
0.014593
0.014593
0.014593
0.014593
0.014593
0.014593
0.014593
0.014593
0.014593
0.014593
0.014593
0.014593
0.014593
0.014593
0.014593
0.014593
0.014593
0.014593
0.014593
0.014593
0.014593
0.014593
0.014593
0.014593
0.014593
0.014593
0.014593
0.014593
0.014593
0.014593
0.014593
0.014593
0.014593
0.014593
0.014593
0.014593
0.014593
0.014593
0.014593
0.014593
0.014593
0.014593
0.014593
0.014593
0.014593
0.014593
0.014593
0.014593
0.0145931
0.0145931
0.0145931
0.0145931
0.0145931
0.0145931
0.0145931
0.0145931
0.0145931
0.0145931
0.0145931
0.0145931
0.0145931
0.0145931
0.0145931
0.0145931
0.0145931
0.0145931
0.0145931
0.0145931
0.0145932
0.0145932
0.0145932
0.0145932
0.0145932
0.0145932
0.0145932
0.0145932
0.0145932
0.0145933
0.0145933
0.0145933
0.0145933
0.0145933
0.0145933
0.0145934
0.0145934
0.0145934
0.0145934
0.0145935
0.0145935
0.0145935
0.0145936
0.0145936
0.0145936
0.014593
0.014593
0.014593
0.014593
0.014593
0.014593
0.014593
0.014593
0.014593
0.014593
0.014593
0.014593
0.014593
0.014593
0.014593
0.014593
0.014593
0.014593
0.014593
0.014593
0.014593
0.014593
0.014593
0.014593
0.014593
0.014593
0.014593
0.014593
0.014593
0.014593
0.014593
0.014593
0.014593
0.014593
0.014593
0.014593
0.014593
0.014593
0.014593
0.014593
0.014593
0.014593
0.014593
0.014593
0.014593
0.014593
0.014593
0.014593
0.014593
0.014593
0.014593
0.014593
0.014593
0.014593
0.014593
0.014593
0.014593
0.014593
0.014593
0.014593
0.014593
0.014593
0.014593
0.014593
0.014593
0.014593
0.014593
0.014593
0.014593
0.014593
0.014593
0.014593
0.014593
0.014593
0.014593
0.014593
0.014593
0.014593
0.014593
0.014593
0.014593
0.014593
0.014593
0.014593
0.014593
0.014593
0.014593
0.014593
0.014593
0.014593
0.014593
0.014593
0.014593
0.014593
0.014593
0.014593
0.014593
0.014593
0.014593
0.014593
0.014593
0.014593
0.014593
0.014593
0.014593
0.014593
0.014593
0.014593
0.014593
0.014593
0.014593
0.014593
0.014593
0.014593
0.014593
0.014593
0.014593
0.014593
0.014593
0.014593
0.014593
0.014593
0.014593
0.014593
0.014593
0.014593
0.014593
0.014593
0.014593
0.0145931
0.0145931
0.0145931
0.0145931
0.0145931
0.0145931
0.0145931
0.0145931
0.0145931
0.0145931
0.0145931
0.0145931
0.0145931
0.0145931
0.0145931
0.0145931
0.0145931
0.0145931
0.0145931
0.0145932
0.0145932
0.0145932
0.0145932
0.0145932
0.0145932
0.0145932
0.0145932
0.0145932
0.0145933
0.0145933
0.0145933
0.0145933
0.0145933
0.0145933
0.0145934
0.0145934
0.0145934
0.0145934
0.0145935
0.0145935
0.0145935
0.0145936
0.0145936
0.0145937
0.0145937
0.0145937
0.0145938
0.0145938
0.0145939
0.014594
0.014594
0.0145941
0.0145942
0.0145942
0.0145943
0.0145944
0.0145945
0.0145946
0.0145947
0.0145948
0.0145949
0.014595
0.0145951
0.0145953
0.0145954
0.0145956
0.0145957
0.0145959
0.0145961
0.0145962
0.0145964
0.0145967
0.0145969
0.0145972
0.0145974
0.0145977
0.014598
0.0145984
0.0145983
0.014593
0.014593
0.014593
0.014593
0.014593
0.014593
0.014593
0.014593
0.014593
0.014593
0.014593
0.014593
0.014593
0.014593
0.014593
0.014593
0.014593
0.014593
0.014593
0.014593
0.014593
0.014593
0.014593
0.014593
0.014593
0.014593
0.014593
0.014593
0.014593
0.014593
0.014593
0.014593
0.014593
0.014593
0.014593
0.014593
0.014593
0.014593
0.014593
0.014593
0.014593
0.014593
0.014593
0.014593
0.014593
0.014593
0.014593
0.014593
0.014593
0.014593
0.014593
0.014593
0.014593
0.014593
0.014593
0.014593
0.014593
0.014593
0.014593
0.014593
0.014593
0.014593
0.014593
0.014593
0.014593
0.014593
0.014593
0.014593
0.014593
0.014593
0.014593
0.014593
0.014593
0.014593
0.014593
0.014593
0.014593
0.014593
0.014593
0.014593
0.014593
0.014593
0.014593
0.014593
0.014593
0.014593
0.014593
0.014593
0.014593
0.014593
0.014593
0.014593
0.014593
0.014593
0.014593
0.014593
0.014593
0.014593
0.014593
0.0145931
0.0145931
0.0145931
0.0145931
0.0145931
0.0145931
0.0145931
0.0145931
0.0145931
0.0145931
0.0145931
0.0145931
0.0145931
0.0145931
0.0145931
0.0145931
0.0145931
0.0145931
0.0145932
0.0145932
0.0145932
0.0145932
0.0145932
0.0145932
0.0145932
0.0145932
0.0145932
0.0145933
0.0145933
0.0145933
0.0145933
0.0145933
0.0145934
0.0145934
0.0145934
0.0145934
0.0145935
0.0145935
0.0145935
0.0145936
0.0145936
0.0145936
0.0145937
0.0145937
0.0145938
0.0145938
0.0145939
0.0145939
0.014594
0.0145941
0.0145942
0.0145942
0.0145943
0.0145944
0.0145945
0.0145946
0.0145947
0.0145948
0.014595
0.0145951
0.0145952
0.0145954
0.0145955
0.0145957
0.0145959
0.0145961
0.0145963
0.0145965
0.0145967
0.014597
0.0145972
0.0145975
0.0145978
0.0145981
0.0145984
0.0145988
0.0145992
0.0145996
0.0146001
0.0146005
0.014601
0.0146016
0.0146022
0.0146028
0.0146035
0.0146042
0.0146049
0.0146057
0.0146065
0.0146074
0.0146084
0.0146094
0.0146104
0.0146115
0.0146127
0.0146139
0.0146152
0.0146166
0.0146181
0.0146197
0.0146214
0.0146233
0.0146252
0.0146274
0.0146296
0.0146321
0.0146348
0.0146376
0.0146417
0.0146412
0.014593
0.014593
0.014593
0.014593
0.014593
0.014593
0.014593
0.014593
0.014593
0.014593
0.014593
0.014593
0.014593
0.014593
0.014593
0.014593
0.014593
0.014593
0.014593
0.014593
0.014593
0.014593
0.014593
0.014593
0.014593
0.014593
0.014593
0.014593
0.014593
0.014593
0.014593
0.014593
0.014593
0.014593
0.014593
0.014593
0.014593
0.014593
0.014593
0.014593
0.014593
0.014593
0.014593
0.014593
0.014593
0.014593
0.014593
0.014593
0.014593
0.014593
0.014593
0.014593
0.014593
0.014593
0.014593
0.014593
0.014593
0.014593
0.014593
0.014593
0.014593
0.014593
0.014593
0.014593
0.014593
0.014593
0.014593
0.0145931
0.0145931
0.0145931
0.0145931
0.0145931
0.0145931
0.0145931
0.0145931
0.0145931
0.0145931
0.0145931
0.0145931
0.0145931
0.0145931
0.0145931
0.0145931
0.0145931
0.0145931
0.0145932
0.0145932
0.0145932
0.0145932
0.0145932
0.0145932
0.0145932
0.0145932
0.0145933
0.0145933
0.0145933
0.0145933
0.0145933
0.0145934
0.0145934
0.0145934
0.0145934
0.0145935
0.0145935
0.0145935
0.0145936
0.0145936
0.0145937
0.0145937
0.0145937
0.0145938
0.0145938
0.0145939
0.014594
0.014594
0.0145941
0.0145942
0.0145943
0.0145943
0.0145944
0.0145945
0.0145947
0.0145948
0.0145949
0.014595
0.0145952
0.0145953
0.0145955
0.0145957
0.0145959
0.0145961
0.0145963
0.0145965
0.0145967
0.014597
0.0145973
0.0145976
0.0145979
0.0145982
0.0145986
0.0145989
0.0145994
0.0145998
0.0146002
0.0146007
0.0146013
0.0146019
0.0146025
0.0146031
0.0146038
0.0146046
0.0146054
0.0146063
0.0146073
0.0146083
0.0146093
0.0146105
0.0146117
0.014613
0.0146144
0.0146159
0.0146174
0.0146191
0.0146209
0.0146227
0.0146247
0.0146268
0.0146291
0.0146315
0.0146341
0.0146369
0.0146399
0.0146432
0.0146467
0.0146504
0.0146545
0.014659
0.0146637
0.0146689
0.0146745
0.0146806
0.0146871
0.0146941
0.0147017
0.0147098
0.0147185
0.0147277
0.0147375
0.014748
0.014759
0.0147705
0.0147827
0.0147955
0.0148088
0.0148228
0.0148373
0.0148526
0.0148685
0.0148853
0.014903
0.0149217
0.0149415
0.0149628
0.0149853
0.0150144
0.0150169
0.014593
0.014593
0.014593
0.014593
0.014593
0.014593
0.014593
0.014593
0.014593
0.014593
0.014593
0.014593
0.014593
0.014593
0.014593
0.014593
0.014593
0.014593
0.014593
0.014593
0.014593
0.014593
0.014593
0.014593
0.014593
0.014593
0.014593
0.014593
0.014593
0.014593
0.014593
0.014593
0.014593
0.014593
0.014593
0.014593
0.014593
0.014593
0.014593
0.014593
0.0145931
0.0145931
0.0145931
0.0145931
0.0145931
0.0145931
0.0145931
0.0145931
0.0145931
0.0145931
0.0145931
0.0145931
0.0145931
0.0145931
0.0145931
0.0145931
0.0145931
0.0145932
0.0145932
0.0145932
0.0145932
0.0145932
0.0145932
0.0145932
0.0145932
0.0145933
0.0145933
0.0145933
0.0145933
0.0145933
0.0145934
0.0145934
0.0145934
0.0145934
0.0145935
0.0145935
0.0145935
0.0145936
0.0145936
0.0145937
0.0145937
0.0145938
0.0145938
0.0145939
0.0145939
0.014594
0.0145941
0.0145941
0.0145942
0.0145943
0.0145944
0.0145945
0.0145946
0.0145947
0.0145948
0.014595
0.0145951
0.0145952
0.0145954
0.0145956
0.0145958
0.014596
0.0145962
0.0145964
0.0145967
0.0145969
0.0145972
0.0145975
0.0145978
0.0145982
0.0145986
0.014599
0.0145994
0.0145998
0.0146003
0.0146008
0.0146014
0.014602
0.0146026
0.0146033
0.014604
0.0146048
0.0146057
0.0146066
0.0146075
0.0146086
0.0146097
0.014611
0.0146123
0.0146137
0.0146152
0.0146168
0.0146185
0.0146204
0.0146224
0.0146245
0.0146267
0.0146291
0.0146316
0.0146343
0.0146372
0.0146403
0.0146436
0.0146472
0.0146509
0.014655
0.0146594
0.0146642
0.0146693
0.0146748
0.0146809
0.0146874
0.0146945
0.0147021
0.0147104
0.0147194
0.0147291
0.0147396
0.0147509
0.014763
0.014776
0.0147898
0.0148045
0.0148202
0.0148367
0.0148541
0.0148725
0.0148918
0.0149121
0.0149334
0.0149558
0.0149795
0.0150044
0.0150309
0.0150591
0.0150893
0.0151217
0.0151567
0.0151946
0.0152358
0.0152806
0.0153295
0.0153829
0.0154411
0.0155046
0.0155736
0.0156485
0.0157295
0.0158168
0.0159104
0.0160103
0.0161162
0.0162281
0.0163452
0.0164674
0.0165937
0.016724
0.0168571
0.0169935
0.0171314
0.0172728
0.0174148
0.0175617
0.0177082
0.0178779
0.0179238
0.014593
0.014593
0.014593
0.014593
0.014593
0.014593
0.014593
0.014593
0.014593
0.014593
0.014593
0.014593
0.014593
0.014593
0.0145931
0.0145931
0.0145931
0.0145931
0.0145931
0.0145931
0.0145931
0.0145931
0.0145931
0.0145931
0.0145931
0.0145931
0.0145931
0.0145931
0.0145931
0.0145931
0.0145931
0.0145931
0.0145932
0.0145932
0.0145932
0.0145932
0.0145932
0.0145932
0.0145932
0.0145932
0.0145933
0.0145933
0.0145933
0.0145933
0.0145933
0.0145934
0.0145934
0.0145934
0.0145935
0.0145935
0.0145935
0.0145936
0.0145936
0.0145936
0.0145937
0.0145937
0.0145938
0.0145938
0.0145939
0.014594
0.014594
0.0145941
0.0145942
0.0145943
0.0145944
0.0145945
0.0145946
0.0145947
0.0145948
0.0145949
0.0145951
0.0145952
0.0145954
0.0145955
0.0145957
0.0145959
0.0145961
0.0145964
0.0145966
0.0145969
0.0145972
0.0145975
0.0145978
0.0145982
0.0145986
0.014599
0.0145994
0.0145999
0.0146004
0.0146009
0.0146015
0.0146022
0.0146028
0.0146035
0.0146043
0.0146051
0.014606
0.014607
0.014608
0.0146091
0.0146102
0.0146115
0.0146129
0.0146144
0.0146159
0.0146176
0.0146195
0.0146215
0.0146236
0.0146259
0.0146284
0.014631
0.0146338
0.0146368
0.0146401
0.0146435
0.0146472
0.0146512
0.0146554
0.0146599
0.0146647
0.0146699
0.0146755
0.0146815
0.014688
0.014695
0.0147026
0.0147108
0.0147197
0.0147294
0.0147398
0.0147512
0.0147635
0.0147769
0.0147913
0.0148068
0.0148234
0.0148413
0.0148604
0.0148808
0.0149024
0.0149254
0.0149497
0.0149754
0.0150025
0.0150311
0.0150613
0.0150932
0.0151271
0.0151631
0.0152016
0.0152429
0.0152873
0.0153353
0.0153873
0.0154438
0.0155054
0.0155725
0.0156457
0.0157254
0.0158122
0.0159063
0.0160081
0.0161177
0.0162353
0.0163607
0.0164936
0.0166337
0.0167804
0.016933
0.0170908
0.0172532
0.0174195
0.0175893
0.0177624
0.0179389
0.0181192
0.0183042
0.0184951
0.0186934
0.018901
0.0191201
0.0193534
0.0196037
0.0198743
0.0201687
0.0204903
0.0208431
0.0212305
0.0216561
0.0221222
0.0226318
0.023184
0.0237803
0.0244152
0.0250894
0.0257901
0.0265198
0.0272575
0.0280112
0.0287502
0.0294945
0.0302018
0.0309074
0.0315639
0.0322018
0.0328515
0.014593
0.014593
0.014593
0.014593
0.014593
0.014593
0.014593
0.014593
0.014593
0.014593
0.014593
0.014593
0.014593
0.014593
0.0145932
0.0145933
0.0145933
0.0145933
0.0145933
0.0145934
0.0145934
0.0145934
0.0145934
0.0145935
0.0145935
0.0145935
0.0145936
0.0145936
0.0145937
0.0145937
0.0145937
0.0145938
0.0145939
0.0145939
0.014594
0.0145941
0.0145941
0.0145942
0.0145943
0.0145944
0.0145945
0.0145946
0.0145947
0.0145949
0.014595
0.0145951
0.0145953
0.0145955
0.0145956
0.0145958
0.014596
0.0145963
0.0145965
0.0145967
0.014597
0.0145973
0.0145976
0.014598
0.0145984
0.0145988
0.0145992
0.0145997
0.0146002
0.0146007
0.0146013
0.0146019
0.0146026
0.0146033
0.0146041
0.0146049
0.0146058
0.0146068
0.0146078
0.0146089
0.0146101
0.0146113
0.0146127
0.0146142
0.0146158
0.0146175
0.0146193
0.0146213
0.0146234
0.0146257
0.0146282
0.0146309
0.0146338
0.0146369
0.0146402
0.0146438
0.0146477
0.0146519
0.0146563
0.0146611
0.0146662
0.0146717
0.0146776
0.0146839
0.0146906
0.0146979
0.0147057
0.0147142
0.0147233
0.0147331
0.0147438
0.0147553
0.0147678
0.0147814
0.0147962
0.0148122
0.0148295
0.0148482
0.0148684
0.0148902
0.0149136
0.0149387
0.0149656
0.0149942
0.0150247
0.015057
0.0150913
0.0151276
0.0151661
0.0152069
0.0152502
0.0152962
0.0153454
0.015398
0.0154545
0.0155154
0.0155813
0.0156528
0.0157304
0.0158148
0.0159066
0.0160063
0.0161144
0.0162314
0.0163576
0.0164931
0.0166378
0.0167917
0.0169544
0.0171253
0.0173037
0.0174891
0.0176806
0.0178777
0.0180798
0.0182868
0.0184988
0.0187163
0.0189402
0.0191721
0.0194138
0.0196676
0.0199363
0.0202229
0.0205309
0.0208639
0.0212258
0.0216204
0.0220514
0.0225219
0.0230345
0.0235905
0.02419
0.0248313
0.0255109
0.0262237
0.0269625
0.0277192
0.0284845
0.029249
0.0300034
0.0307394
0.0314498
0.0321298
0.0327762
0.0333864
0.033959
0.0344938
0.0349914
0.0354536
0.0358825
0.0362813
0.0366529
0.037001
0.0373284
0.0376386
0.0379339
0.0382166
0.0384886
0.0387505
0.0390037
0.0392476
0.0394836
0.0397102
0.0399294
0.0401398
0.0403447
0.0405451
0.0407693
0.0409894
0.0412019
0.0414182
0.0415729
0.014593
0.014593
0.014593
0.014593
0.014593
0.014593
0.014593
0.014593
0.014593
0.014593
0.014593
0.014593
0.014593
0.014593
0.0145943
0.0145944
0.0145945
0.0145946
0.0145948
0.0145949
0.014595
0.0145952
0.0145953
0.0145955
0.0145957
0.0145959
0.0145961
0.0145963
0.0145966
0.0145968
0.0145971
0.0145974
0.0145978
0.0145981
0.0145985
0.0145989
0.0145993
0.0145998
0.0146003
0.0146009
0.0146015
0.0146021
0.0146028
0.0146036
0.0146044
0.0146052
0.0146062
0.0146072
0.0146083
0.0146094
0.0146107
0.014612
0.0146135
0.014615
0.0146167
0.0146185
0.0146204
0.0146225
0.0146247
0.0146272
0.0146298
0.0146326
0.0146356
0.0146389
0.0146424
0.0146463
0.0146504
0.0146548
0.0146596
0.0146648
0.0146704
0.0146763
0.0146827
0.0146896
0.014697
0.014705
0.0147135
0.0147227
0.0147326
0.0147432
0.0147546
0.014767
0.0147804
0.0147949
0.0148106
0.0148276
0.0148461
0.0148661
0.0148878
0.0149113
0.0149367
0.0149642
0.0149937
0.0150255
0.0150595
0.015096
0.0151348
0.0151763
0.0152203
0.0152671
0.0153168
0.0153697
0.0154259
0.0154858
0.0155498
0.0156183
0.015692
0.0157713
0.0158571
0.0159499
0.0160504
0.0161595
0.0162777
0.0164056
0.0165437
0.0166924
0.0168518
0.017022
0.0172028
0.0173937
0.0175944
0.017804
0.0180219
0.0182473
0.0184796
0.0187184
0.0189637
0.0192158
0.0194753
0.0197438
0.0200229
0.0203151
0.020623
0.02095
0.0212993
0.0216747
0.0220799
0.0225185
0.0229937
0.0235082
0.0240637
0.0246607
0.0252983
0.0259737
0.0266824
0.0274184
0.0281741
0.0289409
0.0297094
0.0304704
0.031215
0.0319356
0.0326257
0.0332805
0.0338981
0.0344776
0.0350187
0.0355224
0.0359902
0.0364246
0.0368282
0.0372045
0.0375565
0.0378873
0.0381996
0.0384955
0.0387769
0.0390449
0.0393001
0.039543
0.0397738
0.0399926
0.0402002
0.0403972
0.040585
0.0407654
0.0409428
0.0411405
0.0413355
0.0415246
0.0417069
0.0418836
0.0420558
0.0422254
0.0423952
0.042566
0.0427383
0.0429127
0.0430895
0.0432688
0.0434503
0.0436338
0.0438189
0.0440052
0.0441926
0.0443803
0.044569
0.0447572
0.0449467
0.0451351
0.0453256
0.0455121
0.0456736
0.0458203
0.0459599
0.0461088
0.0462317
0.014593
0.014593
0.0145931
0.0145931
0.0145931
0.0145931
0.0145931
0.0145931
0.0145931
0.0145931
0.0145931
0.0145931
0.0145931
0.0146
0.0146005
0.0146011
0.0146017
0.0146023
0.0146031
0.0146038
0.0146046
0.0146055
0.0146065
0.0146075
0.0146086
0.0146098
0.0146111
0.0146125
0.014614
0.0146157
0.0146174
0.0146193
0.0146213
0.0146235
0.0146258
0.0146283
0.014631
0.014634
0.0146371
0.0146405
0.0146442
0.0146482
0.0146525
0.0146571
0.0146621
0.0146675
0.0146733
0.0146796
0.0146864
0.0146937
0.0147016
0.0147101
0.0147193
0.0147291
0.0147396
0.014751
0.0147632
0.0147764
0.0147906
0.0148059
0.0148224
0.0148403
0.0148597
0.0148806
0.0149033
0.014928
0.0149546
0.0149835
0.0150148
0.0150486
0.015085
0.0151243
0.0151664
0.0152116
0.01526
0.0153117
0.0153667
0.0154254
0.0154878
0.0155543
0.0156251
0.0157006
0.0157813
0.0158677
0.0159605
0.0160603
0.0161678
0.016284
0.0164094
0.016545
0.0166914
0.0168491
0.0170186
0.0172002
0.0173939
0.0175997
0.0178171
0.0180458
0.018285
0.018534
0.0187921
0.0190587
0.0193335
0.0196164
0.0199078
0.0202085
0.02052
0.0208443
0.0211837
0.0215413
0.0219203
0.0223242
0.0227564
0.0232203
0.0237189
0.0242546
0.0248287
0.0254415
0.0260918
0.0267768
0.0274919
0.028231
0.0289868
0.0297507
0.0305137
0.031267
0.0320021
0.0327114
0.0333891
0.0340305
0.0346331
0.0351965
0.0357217
0.0362102
0.036664
0.0370853
0.037477
0.037842
0.0381832
0.038503
0.0388037
0.0390868
0.0393536
0.0396048
0.0398409
0.0400624
0.0402699
0.0404641
0.0406464
0.0408184
0.0409824
0.0411405
0.0413011
0.0414781
0.0416516
0.0418214
0.0419867
0.0421486
0.0423081
0.0424679
0.0426292
0.0427919
0.0429564
0.0431228
0.043291
0.0434606
0.0436313
0.0438027
0.0439748
0.0441471
0.0443194
0.044492
0.0446646
0.0448373
0.0450104
0.0451819
0.0453276
0.0454625
0.0455932
0.0457278
0.0458684
0.0460147
0.0461669
0.0463247
0.0464877
0.0466557
0.0468281
0.0470044
0.0471843
0.0473672
0.0475526
0.04774
0.047929
0.0481191
0.0483099
0.048501
0.0486915
0.0488816
0.0490697
0.0492565
0.0494405
0.0496278
0.0498235
0.0500302
0.0502513
0.0504309
0.0145932
0.0145932
0.0145932
0.0145933
0.0145933
0.0145933
0.0145934
0.0145934
0.0145934
0.0145935
0.0145935
0.0145936
0.0145936
0.0146356
0.0146389
0.0146424
0.0146463
0.0146504
0.0146548
0.0146597
0.0146649
0.0146705
0.0146765
0.0146831
0.0146902
0.0146978
0.0147061
0.014715
0.0147246
0.014735
0.0147462
0.0147583
0.0147712
0.0147852
0.0148003
0.0148165
0.0148339
0.0148527
0.0148731
0.014895
0.0149187
0.0149444
0.0149722
0.0150023
0.0150349
0.0150701
0.0151083
0.0151496
0.0151941
0.0152421
0.0152937
0.0153491
0.0154084
0.0154719
0.0155397
0.0156121
0.0156891
0.0157713
0.0158588
0.0159523
0.016052
0.0161588
0.0162732
0.0163961
0.0165282
0.0166703
0.0168234
0.0169881
0.0171651
0.0173549
0.017558
0.0177745
0.0180043
0.0182472
0.0185027
0.0187702
0.0190491
0.0193386
0.0196382
0.0199476
0.0202666
0.0205956
0.0209355
0.0212877
0.021654
0.0220368
0.0224389
0.0228634
0.0233136
0.0237924
0.0243026
0.0248464
0.0254253
0.0260394
0.0266876
0.0273677
0.0280754
0.0288052
0.0295505
0.0303034
0.0310555
0.0317984
0.032524
0.0332252
0.0338959
0.0345315
0.0351294
0.0356881
0.0362081
0.0366916
0.0371409
0.0375583
0.0379461
0.0383069
0.0386429
0.0389563
0.0392489
0.039522
0.0397766
0.0400135
0.0402333
0.0404369
0.0406251
0.0407995
0.0409618
0.0411145
0.0412601
0.0414012
0.0415421
0.0417005
0.0418577
0.0420132
0.042166
0.042316
0.0424647
0.0426143
0.0427651
0.0429169
0.0430701
0.0432244
0.0433796
0.0435356
0.043692
0.0438488
0.0440058
0.0441631
0.0443207
0.0444785
0.0446367
0.0447953
0.0449491
0.0450807
0.0452058
0.0453292
0.0454577
0.045592
0.0457319
0.0458773
0.0460278
0.0461829
0.0463421
0.0465052
0.0466714
0.0468405
0.0470119
0.0471853
0.04736
0.0475356
0.0477117
0.0478876
0.0480628
0.0482367
0.0484087
0.048579
0.0487516
0.0489331
0.0491244
0.0493211
0.0495221
0.0497273
0.0499366
0.0501498
0.0503665
0.0505866
0.0508096
0.0510354
0.0512638
0.0514944
0.0517273
0.0519622
0.0521992
0.0524383
0.0526795
0.0529235
0.0531699
0.0534201
0.0536736
0.0539329
0.0541964
0.0544684
0.0547433
0.0550219
0.0553338
0.0554916
0.014594
0.0145941
0.0145943
0.0145944
0.0145945
0.0145947
0.0145949
0.014595
0.0145952
0.0145954
0.0145956
0.0145958
0.0148119
0.0148292
0.0148478
0.0148678
0.0148894
0.0149127
0.0149378
0.0149649
0.0149941
0.0150258
0.0150599
0.0150969
0.0151369
0.0151801
0.0152268
0.0152773
0.0153317
0.0153904
0.0154535
0.0155212
0.0155938
0.0156715
0.0157544
0.015843
0.0159374
0.0160381
0.0161454
0.0162599
0.016382
0.0165126
0.0166523
0.016802
0.0169624
0.0171345
0.017319
0.0175167
0.0177281
0.0179537
0.0181937
0.0184481
0.0187168
0.0189993
0.0192951
0.0196035
0.0199239
0.0202557
0.0205985
0.0209523
0.0213175
0.0216947
0.0220853
0.022491
0.022914
0.0233567
0.0238219
0.0243124
0.0248305
0.0253783
0.0259572
0.0265675
0.0272084
0.0278777
0.0285721
0.0292868
0.0300157
0.0307519
0.031488
0.0322161
0.0329289
0.0336194
0.0342818
0.0349115
0.0355053
0.0360617
0.0365802
0.0370617
0.0375087
0.0379238
0.0383091
0.0386668
0.0389987
0.0393066
0.039592
0.0398561
0.0400999
0.0403244
0.0405305
0.0407193
0.0408922
0.0410511
0.0411981
0.0413359
0.0414676
0.0415957
0.0417228
0.041861
0.0420052
0.0421487
0.0422913
0.0424318
0.0425708
0.0427104
0.0428509
0.0429919
0.0431336
0.043276
0.0434188
0.043562
0.0437055
0.0438492
0.0439933
0.0441377
0.0442824
0.0444273
0.0445725
0.0447164
0.0448407
0.0449587
0.0450744
0.0451939
0.0453188
0.045449
0.0455841
0.0457237
0.0458676
0.0460151
0.0461661
0.04632
0.0464764
0.0466349
0.0467951
0.0469564
0.0471185
0.0472806
0.0474422
0.0476027
0.047762
0.0479202
0.0480822
0.0482529
0.0484321
0.0486159
0.048804
0.0489962
0.0491922
0.0493919
0.049595
0.0498011
0.0500099
0.0502213
0.0504349
0.0506507
0.0508685
0.0510883
0.0513102
0.0515343
0.0517611
0.0519909
0.0522244
0.0524625
0.0527062
0.052956
0.0532113
0.0534705
0.0537329
0.0539981
0.0542662
0.054537
0.0548102
0.0550859
0.0553638
0.055644
0.0559263
0.0562107
0.0564974
0.0567863
0.0570775
0.057371
0.0576671
0.0579654
0.0582666
0.0585698
0.058876
0.0591835
0.059494
0.059804
0.0601178
0.060427
0.0607364
0.0610987
0.0610917
0.0145976
0.0145982
0.0145988
0.0145994
0.0146001
0.0146008
0.0146016
0.0146024
0.0146032
0.014604
0.0156643
0.0157478
0.0158372
0.0159327
0.0160347
0.0161434
0.0162593
0.0163828
0.0165143
0.0166544
0.0168037
0.016963
0.0171331
0.0173147
0.0175088
0.0177161
0.0179374
0.0181732
0.0184239
0.0186899
0.0189712
0.0192675
0.0195785
0.0199037
0.0202424
0.0205939
0.0209579
0.0213339
0.021722
0.0221224
0.0225358
0.0229634
0.0234069
0.023868
0.0243489
0.0248519
0.025379
0.0259319
0.0265117
0.0271189
0.0277528
0.0284114
0.0290918
0.0297898
0.0305001
0.0312165
0.0319324
0.0326408
0.033335
0.0340089
0.0346568
0.0352744
0.0358585
0.0364072
0.0369197
0.0373966
0.0378389
0.0382488
0.0386287
0.0389807
0.0393062
0.0396068
0.0398838
0.0401381
0.0403711
0.0405836
0.0407771
0.0409529
0.0411127
0.0412585
0.041393
0.0415188
0.041639
0.0417564
0.0418733
0.041994
0.0421262
0.0422587
0.0423911
0.0425225
0.0426523
0.0427818
0.0429118
0.0430421
0.0431728
0.0433038
0.0434351
0.0435667
0.0436987
0.0438311
0.043964
0.0440972
0.0442306
0.0443639
0.0444971
0.0446203
0.0447333
0.0448433
0.0449539
0.0450693
0.0451898
0.0453149
0.0454442
0.0455774
0.0457142
0.0458542
0.0459969
0.046142
0.046289
0.0464373
0.0465866
0.0467361
0.0468854
0.0470338
0.0471815
0.0473281
0.0474769
0.0476329
0.0477972
0.0479667
0.0481402
0.0483177
0.048499
0.0486838
0.0488719
0.0490629
0.0492567
0.049453
0.0496515
0.0498522
0.050055
0.0502599
0.0504671
0.0506769