/*--------------------------------*- C++ -*----------------------------------*\
| =========                 |                                                 |
| \\      /  F ield         | OpenFOAM: The Open Source CFD Toolbox           |
|  \\    /   O peration     | Version:  v1706                                 |
|   \\  /    A nd           | Web:      www.OpenFOAM.com                      |
|    \\/     M anipulation  |                                                 |
\*---------------------------------------------------------------------------*/
FoamFile
{
    version     2.0;
    format      ascii;
    class       volScalarField;
    location    "5e-06";
    object      kappave;
}
// * * * * * * * * * * * * * * * * * * * * * * * * * * * * * * * * * * * * * //

dimensions      [1 1 -3 -1 0 0 0];


internalField   nonuniform List<scalar> 
30104
(
1.46038e-10
1.46038e-10
1.46038e-10
1.46038e-10
1.46038e-10
1.46038e-10
1.46038e-10
1.46038e-10
1.46038e-10
1.46038e-10
1.46038e-10
1.46038e-10
1.46038e-10
1.46038e-10
1.46038e-10
1.46038e-10
1.46038e-10
1.46038e-10
1.46038e-10
1.46038e-10
1.46038e-10
1.46038e-10
1.46038e-10
1.46038e-10
1.46038e-10
1.46038e-10
1.46038e-10
1.46038e-10
1.46038e-10
1.46038e-10
1.46038e-10
1.46038e-10
1.46038e-10
1.46038e-10
1.46038e-10
1.46038e-10
1.46038e-10
1.46038e-10
1.46038e-10
1.46038e-10
1.46038e-10
1.46038e-10
1.46038e-10
1.46038e-10
1.46038e-10
1.46038e-10
1.46038e-10
1.46038e-10
1.46038e-10
1.46038e-10
1.46038e-10
1.46038e-10
1.46038e-10
1.46038e-10
1.46038e-10
1.46038e-10
1.46038e-10
1.46038e-10
1.46038e-10
1.46038e-10
1.46038e-10
1.46038e-10
1.46038e-10
1.46038e-10
1.46038e-10
1.46038e-10
1.46038e-10
1.46038e-10
1.46038e-10
1.46038e-10
1.46038e-10
1.46038e-10
1.46038e-10
1.46038e-10
1.46038e-10
1.46038e-10
1.46038e-10
1.46038e-10
1.46038e-10
1.46038e-10
1.46038e-10
1.46038e-10
1.46038e-10
1.46038e-10
1.46038e-10
1.46038e-10
1.46038e-10
1.46038e-10
1.46038e-10
1.46038e-10
1.46038e-10
1.46038e-10
1.46038e-10
1.46038e-10
1.46038e-10
1.46038e-10
1.46038e-10
1.46038e-10
1.46038e-10
1.46038e-10
1.46038e-10
1.46038e-10
1.46038e-10
1.46038e-10
1.46038e-10
1.46038e-10
1.46038e-10
1.46038e-10
1.46038e-10
1.46038e-10
1.46038e-10
1.46038e-10
1.46038e-10
1.46038e-10
1.46038e-10
1.46038e-10
1.46038e-10
1.46038e-10
1.46038e-10
1.46038e-10
1.46038e-10
1.46038e-10
1.46038e-10
1.46038e-10
1.46038e-10
1.46038e-10
1.46038e-10
1.46038e-10
1.46038e-10
1.46038e-10
1.46038e-10
1.46038e-10
1.46038e-10
1.46038e-10
1.46038e-10
1.46038e-10
1.46038e-10
1.46038e-10
1.46038e-10
1.46038e-10
1.46038e-10
1.46038e-10
1.46038e-10
1.46038e-10
1.46038e-10
1.46038e-10
1.46038e-10
1.46038e-10
1.46038e-10
1.46038e-10
1.46038e-10
1.46038e-10
1.46038e-10
1.46038e-10
1.46038e-10
1.46038e-10
1.46038e-10
1.46038e-10
1.46038e-10
1.46038e-10
1.46038e-10
1.46038e-10
1.46038e-10
1.46038e-10
1.46038e-10
1.46038e-10
1.46038e-10
1.46038e-10
1.46038e-10
1.46038e-10
1.46038e-10
1.46038e-10
1.46038e-10
1.46038e-10
1.46038e-10
1.46038e-10
1.46038e-10
1.46038e-10
1.46038e-10
1.46038e-10
1.46038e-10
1.46038e-10
1.46038e-10
1.46038e-10
1.46038e-10
1.46038e-10
1.46038e-10
1.46038e-10
1.46038e-10
1.46038e-10
1.46038e-10
1.46038e-10
1.46038e-10
1.46038e-10
1.46038e-10
1.46038e-10
1.46038e-10
1.46038e-10
1.46038e-10
1.46038e-10
1.46038e-10
1.46038e-10
1.46038e-10
1.46038e-10
1.46038e-10
1.46038e-10
1.46038e-10
1.46038e-10
1.46038e-10
1.46038e-10
1.46038e-10
1.46038e-10
1.46038e-10
1.46038e-10
1.46038e-10
1.46038e-10
1.46038e-10
1.46038e-10
1.46038e-10
1.46038e-10
1.46038e-10
1.46038e-10
1.46038e-10
1.46038e-10
1.46038e-10
1.46038e-10
1.46038e-10
1.46038e-10
1.46038e-10
1.46038e-10
1.46038e-10
1.46038e-10
1.46038e-10
1.46038e-10
1.46038e-10
1.46038e-10
1.46038e-10
1.46038e-10
1.46038e-10
1.46038e-10
1.46038e-10
1.46038e-10
1.46038e-10
1.46038e-10
1.46038e-10
1.46038e-10
1.46038e-10
1.46038e-10
1.46038e-10
1.46038e-10
1.46038e-10
1.46038e-10
1.46038e-10
1.46038e-10
1.46038e-10
1.46038e-10
1.46038e-10
1.46038e-10
1.46038e-10
1.46038e-10
1.46038e-10
1.46038e-10
1.46038e-10
1.46038e-10
1.46038e-10
1.46038e-10
1.46038e-10
1.46038e-10
1.46038e-10
1.46038e-10
1.46038e-10
1.46038e-10
1.46038e-10
1.46038e-10
1.46038e-10
1.46038e-10
1.46038e-10
1.46038e-10
1.46038e-10
1.46038e-10
1.46038e-10
1.46038e-10
1.46038e-10
1.46038e-10
1.46038e-10
1.46038e-10
1.46038e-10
1.46038e-10
1.46038e-10
1.46038e-10
1.46038e-10
1.46038e-10
1.46038e-10
1.46038e-10
1.46038e-10
1.46038e-10
1.46038e-10
1.46038e-10
1.46038e-10
1.46038e-10
1.46038e-10
1.46038e-10
1.46038e-10
1.46038e-10
1.46038e-10
1.46038e-10
1.46038e-10
1.46038e-10
1.46038e-10
1.46038e-10
1.46038e-10
1.46038e-10
1.46038e-10
1.46038e-10
1.46038e-10
1.46038e-10
1.46038e-10
1.46038e-10
1.46038e-10
1.46038e-10
1.46038e-10
1.46038e-10
1.46038e-10
1.46038e-10
1.46038e-10
1.46038e-10
1.46038e-10
1.46038e-10
1.46038e-10
1.46038e-10
1.46038e-10
1.46038e-10
1.46038e-10
1.46038e-10
1.46038e-10
1.46038e-10
1.46038e-10
1.46038e-10
1.46038e-10
1.46038e-10
1.46038e-10
1.46038e-10
1.46038e-10
1.46038e-10
1.46038e-10
1.46038e-10
1.46038e-10
1.46038e-10
1.46038e-10
1.46038e-10
1.46038e-10
1.46038e-10
1.46038e-10
1.46038e-10
1.46038e-10
1.46038e-10
1.46038e-10
1.46038e-10
1.46038e-10
1.46038e-10
1.46038e-10
1.46038e-10
1.46038e-10
1.46038e-10
1.46038e-10
1.46038e-10
1.46038e-10
1.46038e-10
1.46038e-10
1.46038e-10
1.46038e-10
1.46038e-10
1.46038e-10
1.46038e-10
1.46038e-10
1.46038e-10
1.46038e-10
1.46038e-10
1.46038e-10
1.46038e-10
1.46038e-10
1.46038e-10
1.46038e-10
1.46038e-10
1.46038e-10
1.46038e-10
1.46038e-10
1.46038e-10
1.46038e-10
1.46038e-10
1.46038e-10
1.46038e-10
1.46038e-10
1.46038e-10
1.46038e-10
1.46038e-10
1.46038e-10
1.46038e-10
1.46038e-10
1.46038e-10
1.46038e-10
1.46038e-10
1.46038e-10
1.46038e-10
1.46038e-10
1.46038e-10
1.46038e-10
1.46038e-10
1.46038e-10
1.46038e-10
1.46038e-10
1.46038e-10
1.46038e-10
1.46038e-10
1.46038e-10
1.46038e-10
1.46038e-10
1.46038e-10
1.46038e-10
1.46038e-10
1.46038e-10
1.46038e-10
1.46038e-10
1.46038e-10
1.46038e-10
1.46038e-10
1.46038e-10
1.46038e-10
1.46038e-10
1.46038e-10
1.46038e-10
1.46038e-10
1.46038e-10
1.46038e-10
1.46038e-10
1.46038e-10
1.46038e-10
1.46038e-10
1.46038e-10
1.46038e-10
1.46038e-10
1.46038e-10
1.46038e-10
1.46038e-10
1.46038e-10
1.46038e-10
1.46038e-10
1.46038e-10
1.46038e-10
1.46038e-10
1.46038e-10
1.46038e-10
1.46038e-10
1.46038e-10
1.46038e-10
1.46038e-10
1.46038e-10
1.46038e-10
1.46038e-10
1.46038e-10
1.46038e-10
1.46038e-10
1.46038e-10
1.46038e-10
1.46038e-10
1.46038e-10
1.46038e-10
1.46038e-10
1.46038e-10
1.46038e-10
1.46038e-10
1.46038e-10
1.46038e-10
1.46038e-10
1.46038e-10
1.46038e-10
1.46038e-10
1.46038e-10
1.46038e-10
1.46038e-10
1.46038e-10
1.46038e-10
1.46038e-10
1.46038e-10
1.46038e-10
1.46038e-10
1.46038e-10
1.46038e-10
1.46038e-10
1.46038e-10
1.46038e-10
1.46038e-10
1.46038e-10
1.46038e-10
1.46038e-10
1.46038e-10
1.46038e-10
1.46038e-10
1.46038e-10
1.46038e-10
1.46038e-10
1.46038e-10
1.46038e-10
1.46038e-10
1.46038e-10
1.46038e-10
1.46038e-10
1.46038e-10
1.46038e-10
1.46038e-10
1.46038e-10
1.46038e-10
1.46038e-10
1.46038e-10
1.46038e-10
1.46038e-10
1.46038e-10
1.46038e-10
1.46038e-10
1.46038e-10
1.46038e-10
1.46038e-10
1.46038e-10
1.46038e-10
1.46038e-10
1.46038e-10
1.46038e-10
1.46038e-10
1.46038e-10
1.46038e-10
1.46038e-10
1.46038e-10
1.46038e-10
1.46038e-10
1.46038e-10
1.46038e-10
1.46038e-10
1.46038e-10
1.46038e-10
1.46038e-10
1.46038e-10
1.46038e-10
1.46038e-10
1.46038e-10
1.46038e-10
1.46038e-10
1.46038e-10
1.46038e-10
1.46038e-10
1.46038e-10
1.46038e-10
1.46038e-10
1.46038e-10
1.46038e-10
1.46038e-10
1.46038e-10
1.46038e-10
1.46038e-10
1.46038e-10
1.46038e-10
1.46038e-10
1.46038e-10
1.46038e-10
1.46038e-10
1.46038e-10
1.46038e-10
1.46038e-10
1.46038e-10
1.46038e-10
1.46038e-10
1.46038e-10
1.46038e-10
1.46038e-10
1.46038e-10
1.46038e-10
1.46038e-10
1.46038e-10
1.46038e-10
1.46038e-10
1.46038e-10
1.46038e-10
1.46038e-10
1.46038e-10
1.46038e-10
1.46038e-10
1.46038e-10
1.46038e-10
1.46038e-10
1.46038e-10
1.46038e-10
1.46038e-10
1.46038e-10
1.46038e-10
1.46038e-10
1.46038e-10
1.46038e-10
1.46038e-10
1.46038e-10
1.46038e-10
1.46038e-10
1.46038e-10
1.46038e-10
1.46038e-10
1.46038e-10
1.46038e-10
1.46038e-10
1.46038e-10
1.46038e-10
1.46038e-10
1.46038e-10
1.46038e-10
1.46038e-10
1.46038e-10
1.46038e-10
1.46038e-10
1.46038e-10
1.46038e-10
1.46038e-10
1.46038e-10
1.46038e-10
1.46038e-10
1.46038e-10
1.46038e-10
1.46038e-10
1.46038e-10
1.46038e-10
1.46038e-10
1.46038e-10
1.46038e-10
1.46038e-10
1.46038e-10
1.46038e-10
1.46038e-10
1.46038e-10
1.46038e-10
1.46038e-10
1.46038e-10
1.46038e-10
1.46038e-10
1.46038e-10
1.46038e-10
1.46038e-10
1.46038e-10
1.46038e-10
1.46038e-10
1.46038e-10
1.46038e-10
1.46038e-10
1.46038e-10
1.46038e-10
1.46038e-10
1.46038e-10
1.46038e-10
1.46038e-10
1.46038e-10
1.46038e-10
1.46038e-10
1.46038e-10
1.46038e-10
1.46038e-10
1.46038e-10
1.46038e-10
1.46038e-10
1.46038e-10
1.46038e-10
1.46038e-10
1.46038e-10
1.46038e-10
1.46038e-10
1.46038e-10
1.46038e-10
1.46038e-10
1.46038e-10
1.46038e-10
1.46038e-10
1.46038e-10
1.46038e-10
1.46038e-10
1.46038e-10
1.46038e-10
1.46038e-10
1.46038e-10
1.46038e-10
1.46038e-10
1.46038e-10
1.46038e-10
1.46038e-10
1.46038e-10
1.46038e-10
1.46038e-10
1.46038e-10
1.46038e-10
1.46038e-10
1.46038e-10
1.46038e-10
1.46038e-10
1.46038e-10
1.46038e-10
1.46038e-10
1.46038e-10
1.46038e-10
1.46038e-10
1.46038e-10
1.46038e-10
1.46038e-10
1.46038e-10
1.46038e-10
1.46038e-10
1.46038e-10
1.46038e-10
1.46038e-10
1.46038e-10
1.46038e-10
1.46038e-10
1.46038e-10
1.46038e-10
1.46038e-10
1.46038e-10
1.46038e-10
1.46038e-10
1.46038e-10
1.46038e-10
1.46038e-10
1.46038e-10
1.46038e-10
1.46038e-10
1.46038e-10
1.46038e-10
1.46038e-10
1.46038e-10
1.46038e-10
1.46038e-10
1.46038e-10
1.46038e-10
1.46038e-10
1.46038e-10
1.46038e-10
1.46038e-10
1.46038e-10
1.46038e-10
1.46038e-10
1.46038e-10
1.46038e-10
1.46038e-10
1.46038e-10
1.46038e-10
1.46038e-10
1.46038e-10
1.46038e-10
1.46038e-10
1.46038e-10
1.46038e-10
1.46038e-10
1.46038e-10
1.46038e-10
1.46038e-10
1.46038e-10
1.46038e-10
1.46038e-10
1.46038e-10
1.46038e-10
1.46038e-10
1.46038e-10
1.46038e-10
1.46038e-10
1.46038e-10
1.46038e-10
1.46038e-10
1.46038e-10
1.46038e-10
1.46038e-10
1.46038e-10
1.46038e-10
1.46038e-10
1.46038e-10
1.46038e-10
1.46038e-10
1.46038e-10
1.46038e-10
1.46038e-10
1.46038e-10
1.46038e-10
1.46038e-10
1.46038e-10
1.46038e-10
1.46038e-10
1.46038e-10
1.46038e-10
1.46038e-10
1.46038e-10
1.46038e-10
1.46038e-10
1.46038e-10
1.46038e-10
1.46038e-10
1.46038e-10
1.46038e-10
1.46038e-10
1.46038e-10
1.46038e-10
1.46038e-10
1.46039e-10
1.46039e-10
1.46039e-10
1.46039e-10
1.46039e-10
1.46039e-10
1.46039e-10
1.46039e-10
1.46039e-10
1.46039e-10
1.46039e-10
1.46039e-10
1.46039e-10
1.4604e-10
1.4604e-10
1.4604e-10
1.4604e-10
1.4604e-10
1.4604e-10
1.4604e-10
1.46041e-10
1.46041e-10
1.46041e-10
1.46041e-10
1.46041e-10
1.46042e-10
1.46042e-10
1.46042e-10
1.46043e-10
1.46043e-10
1.46043e-10
1.46044e-10
1.46044e-10
1.46045e-10
1.46045e-10
1.46046e-10
1.46046e-10
1.46038e-10
1.46038e-10
1.46038e-10
1.46038e-10
1.46038e-10
1.46038e-10
1.46038e-10
1.46038e-10
1.46038e-10
1.46038e-10
1.46038e-10
1.46038e-10
1.46038e-10
1.46038e-10
1.46038e-10
1.46038e-10
1.46038e-10
1.46038e-10
1.46038e-10
1.46038e-10
1.46038e-10
1.46038e-10
1.46038e-10
1.46038e-10
1.46038e-10
1.46038e-10
1.46038e-10
1.46038e-10
1.46038e-10
1.46038e-10
1.46038e-10
1.46038e-10
1.46038e-10
1.46038e-10
1.46038e-10
1.46038e-10
1.46038e-10
1.46038e-10
1.46038e-10
1.46038e-10
1.46038e-10
1.46038e-10
1.46038e-10
1.46038e-10
1.46038e-10
1.46038e-10
1.46038e-10
1.46038e-10
1.46038e-10
1.46038e-10
1.46038e-10
1.46038e-10
1.46038e-10
1.46038e-10
1.46038e-10
1.46038e-10
1.46038e-10
1.46038e-10
1.46038e-10
1.46038e-10
1.46038e-10
1.46038e-10
1.46038e-10
1.46038e-10
1.46038e-10
1.46038e-10
1.46038e-10
1.46038e-10
1.46038e-10
1.46038e-10
1.46038e-10
1.46038e-10
1.46038e-10
1.46038e-10
1.46038e-10
1.46038e-10
1.46038e-10
1.46038e-10
1.46038e-10
1.46038e-10
1.46038e-10
1.46038e-10
1.46038e-10
1.46038e-10
1.46038e-10
1.46038e-10
1.46038e-10
1.46038e-10
1.46038e-10
1.46038e-10
1.46038e-10
1.46038e-10
1.46038e-10
1.46038e-10
1.46038e-10
1.46038e-10
1.46038e-10
1.46038e-10
1.46038e-10
1.46038e-10
1.46038e-10
1.46038e-10
1.46038e-10
1.46038e-10
1.46038e-10
1.46038e-10
1.46038e-10
1.46038e-10
1.46038e-10
1.46038e-10
1.46038e-10
1.46038e-10
1.46038e-10
1.46038e-10
1.46038e-10
1.46038e-10
1.46038e-10
1.46038e-10
1.46038e-10
1.46038e-10
1.46038e-10
1.46038e-10
1.46038e-10
1.46038e-10
1.46038e-10
1.46038e-10
1.46038e-10
1.46038e-10
1.46038e-10
1.46038e-10
1.46038e-10
1.46038e-10
1.46038e-10
1.46038e-10
1.46038e-10
1.46038e-10
1.46038e-10
1.46039e-10
1.46039e-10
1.46039e-10
1.46039e-10
1.46039e-10
1.46039e-10
1.46039e-10
1.46039e-10
1.46039e-10
1.46039e-10
1.46039e-10
1.46039e-10
1.46039e-10
1.4604e-10
1.4604e-10
1.4604e-10
1.4604e-10
1.4604e-10
1.4604e-10
1.4604e-10
1.46041e-10
1.46041e-10
1.46041e-10
1.46041e-10
1.46041e-10
1.46042e-10
1.46042e-10
1.46042e-10
1.46043e-10
1.46043e-10
1.46043e-10
1.46044e-10
1.46044e-10
1.46045e-10
1.46045e-10
1.46046e-10
1.46046e-10
1.46047e-10
1.46047e-10
1.46048e-10
1.46049e-10
1.4605e-10
1.46051e-10
1.46052e-10
1.46053e-10
1.46054e-10
1.46055e-10
1.46056e-10
1.46057e-10
1.46059e-10
1.4606e-10
1.46061e-10
1.46063e-10
1.46065e-10
1.46067e-10
1.46069e-10
1.46071e-10
1.46073e-10
1.46075e-10
1.46078e-10
1.46081e-10
1.46084e-10
1.46087e-10
1.46091e-10
1.46095e-10
1.46099e-10
1.46103e-10
1.46108e-10
1.46113e-10
1.4612e-10
1.46119e-10
1.46038e-10
1.46038e-10
1.46038e-10
1.46038e-10
1.46038e-10
1.46038e-10
1.46038e-10
1.46038e-10
1.46038e-10
1.46038e-10
1.46038e-10
1.46038e-10
1.46038e-10
1.46038e-10
1.46038e-10
1.46038e-10
1.46038e-10
1.46038e-10
1.46038e-10
1.46038e-10
1.46038e-10
1.46038e-10
1.46038e-10
1.46038e-10
1.46038e-10
1.46038e-10
1.46038e-10
1.46038e-10
1.46038e-10
1.46038e-10
1.46038e-10
1.46038e-10
1.46038e-10
1.46038e-10
1.46038e-10
1.46038e-10
1.46038e-10
1.46038e-10
1.46038e-10
1.46038e-10
1.46038e-10
1.46038e-10
1.46038e-10
1.46038e-10
1.46038e-10
1.46038e-10
1.46038e-10
1.46038e-10
1.46038e-10
1.46038e-10
1.46038e-10
1.46038e-10
1.46038e-10
1.46038e-10
1.46038e-10
1.46038e-10
1.46038e-10
1.46038e-10
1.46038e-10
1.46038e-10
1.46038e-10
1.46038e-10
1.46038e-10
1.46038e-10
1.46038e-10
1.46038e-10
1.46038e-10
1.46038e-10
1.46038e-10
1.46038e-10
1.46038e-10
1.46038e-10
1.46038e-10
1.46038e-10
1.46038e-10
1.46038e-10
1.46038e-10
1.46038e-10
1.46038e-10
1.46038e-10
1.46038e-10
1.46038e-10
1.46038e-10
1.46038e-10
1.46038e-10
1.46038e-10
1.46038e-10
1.46038e-10
1.46038e-10
1.46038e-10
1.46038e-10
1.46038e-10
1.46038e-10
1.46038e-10
1.46038e-10
1.46038e-10
1.46038e-10
1.46038e-10
1.46038e-10
1.46038e-10
1.46038e-10
1.46038e-10
1.46038e-10
1.46038e-10
1.46038e-10
1.46038e-10
1.46038e-10
1.46039e-10
1.46039e-10
1.46039e-10
1.46039e-10
1.46039e-10
1.46039e-10
1.46039e-10
1.46039e-10
1.46039e-10
1.46039e-10
1.46039e-10
1.46039e-10
1.46039e-10
1.4604e-10
1.4604e-10
1.4604e-10
1.4604e-10
1.4604e-10
1.4604e-10
1.46041e-10
1.46041e-10
1.46041e-10
1.46041e-10
1.46041e-10
1.46042e-10
1.46042e-10
1.46042e-10
1.46043e-10
1.46043e-10
1.46043e-10
1.46044e-10
1.46044e-10
1.46044e-10
1.46045e-10
1.46045e-10
1.46046e-10
1.46047e-10
1.46047e-10
1.46048e-10
1.46049e-10
1.46049e-10
1.4605e-10
1.46051e-10
1.46052e-10
1.46053e-10
1.46054e-10
1.46056e-10
1.46057e-10
1.46058e-10
1.4606e-10
1.46061e-10
1.46063e-10
1.46065e-10
1.46067e-10
1.46069e-10
1.46071e-10
1.46074e-10
1.46076e-10
1.46079e-10
1.46082e-10
1.46085e-10
1.46089e-10
1.46092e-10
1.46096e-10
1.461e-10
1.46105e-10
1.4611e-10
1.46115e-10
1.46121e-10
1.46127e-10
1.46134e-10
1.46141e-10
1.46149e-10
1.46157e-10
1.46166e-10
1.46176e-10
1.46186e-10
1.46197e-10
1.46209e-10
1.46222e-10
1.46236e-10
1.46251e-10
1.46266e-10
1.46283e-10
1.46301e-10
1.46321e-10
1.46341e-10
1.46363e-10
1.46387e-10
1.46413e-10
1.4644e-10
1.4647e-10
1.46502e-10
1.46536e-10
1.46574e-10
1.46614e-10
1.46658e-10
1.46706e-10
1.46758e-10
1.46814e-10
1.46889e-10
1.46899e-10
1.46038e-10
1.46038e-10
1.46038e-10
1.46038e-10
1.46038e-10
1.46038e-10
1.46038e-10
1.46038e-10
1.46038e-10
1.46038e-10
1.46038e-10
1.46038e-10
1.46038e-10
1.46038e-10
1.46038e-10
1.46038e-10
1.46038e-10
1.46038e-10
1.46038e-10
1.46038e-10
1.46038e-10
1.46038e-10
1.46038e-10
1.46038e-10
1.46038e-10
1.46038e-10
1.46038e-10
1.46038e-10
1.46038e-10
1.46038e-10
1.46038e-10
1.46038e-10
1.46038e-10
1.46038e-10
1.46038e-10
1.46038e-10
1.46038e-10
1.46038e-10
1.46038e-10
1.46038e-10
1.46038e-10
1.46038e-10
1.46038e-10
1.46038e-10
1.46038e-10
1.46038e-10
1.46038e-10
1.46038e-10
1.46038e-10
1.46038e-10
1.46038e-10
1.46038e-10
1.46038e-10
1.46038e-10
1.46038e-10
1.46038e-10
1.46038e-10
1.46038e-10
1.46038e-10
1.46038e-10
1.46038e-10
1.46038e-10
1.46038e-10
1.46038e-10
1.46038e-10
1.46038e-10
1.46038e-10
1.46038e-10
1.46038e-10
1.46038e-10
1.46038e-10
1.46038e-10
1.46038e-10
1.46038e-10
1.46038e-10
1.46038e-10
1.46039e-10
1.46039e-10
1.46039e-10
1.46039e-10
1.46039e-10
1.46039e-10
1.46039e-10
1.46039e-10
1.46039e-10
1.46039e-10
1.46039e-10
1.4604e-10
1.4604e-10
1.4604e-10
1.4604e-10
1.4604e-10
1.4604e-10
1.4604e-10
1.46041e-10
1.46041e-10
1.46041e-10
1.46041e-10
1.46042e-10
1.46042e-10
1.46042e-10
1.46042e-10
1.46043e-10
1.46043e-10
1.46043e-10
1.46044e-10
1.46044e-10
1.46045e-10
1.46045e-10
1.46046e-10
1.46046e-10
1.46047e-10
1.46048e-10
1.46048e-10
1.46049e-10
1.4605e-10
1.46051e-10
1.46052e-10
1.46053e-10
1.46054e-10
1.46055e-10
1.46056e-10
1.46058e-10
1.46059e-10
1.46061e-10
1.46063e-10
1.46064e-10
1.46066e-10
1.46069e-10
1.46071e-10
1.46073e-10
1.46076e-10
1.46079e-10
1.46082e-10
1.46085e-10
1.46089e-10
1.46092e-10
1.46096e-10
1.46101e-10
1.46105e-10
1.4611e-10
1.46116e-10
1.46121e-10
1.46127e-10
1.46134e-10
1.46141e-10
1.46149e-10
1.46157e-10
1.46167e-10
1.46176e-10
1.46187e-10
1.46199e-10
1.46211e-10
1.46224e-10
1.46239e-10
1.46254e-10
1.46271e-10
1.46289e-10
1.46309e-10
1.46329e-10
1.46352e-10
1.46376e-10
1.46401e-10
1.46429e-10
1.46458e-10
1.4649e-10
1.46524e-10
1.46561e-10
1.46601e-10
1.46644e-10
1.4669e-10
1.46741e-10
1.46796e-10
1.46855e-10
1.4692e-10
1.4699e-10
1.47067e-10
1.47151e-10
1.47242e-10
1.47342e-10
1.4745e-10
1.47569e-10
1.47697e-10
1.47837e-10
1.47989e-10
1.48154e-10
1.48332e-10
1.48523e-10
1.4873e-10
1.48952e-10
1.4919e-10
1.49444e-10
1.49716e-10
1.50007e-10
1.50316e-10
1.50647e-10
1.50999e-10
1.51376e-10
1.51779e-10
1.52211e-10
1.52676e-10
1.53176e-10
1.53719e-10
1.54302e-10
1.55014e-10
1.55271e-10
1.46038e-10
1.46038e-10
1.46038e-10
1.46038e-10
1.46038e-10
1.46038e-10
1.46038e-10
1.46038e-10
1.46038e-10
1.46038e-10
1.46038e-10
1.46038e-10
1.46038e-10
1.46038e-10
1.46038e-10
1.46038e-10
1.46038e-10
1.46038e-10
1.46038e-10
1.46038e-10
1.46038e-10
1.46038e-10
1.46038e-10
1.46038e-10
1.46038e-10
1.46038e-10
1.46038e-10
1.46038e-10
1.46038e-10
1.46038e-10
1.46038e-10
1.46038e-10
1.46038e-10
1.46038e-10
1.46038e-10
1.46038e-10
1.46038e-10
1.46038e-10
1.46038e-10
1.46038e-10
1.46038e-10
1.46038e-10
1.46038e-10
1.46038e-10
1.46038e-10
1.46038e-10
1.46038e-10
1.46038e-10
1.46039e-10
1.46039e-10
1.46039e-10
1.46039e-10
1.46039e-10
1.46039e-10
1.46039e-10
1.46039e-10
1.46039e-10
1.46039e-10
1.46039e-10
1.46039e-10
1.4604e-10
1.4604e-10
1.4604e-10
1.4604e-10
1.4604e-10
1.4604e-10
1.46041e-10
1.46041e-10
1.46041e-10
1.46041e-10
1.46041e-10
1.46042e-10
1.46042e-10
1.46042e-10
1.46043e-10
1.46043e-10
1.46043e-10
1.46044e-10
1.46044e-10
1.46045e-10
1.46045e-10
1.46046e-10
1.46046e-10
1.46047e-10
1.46048e-10
1.46048e-10
1.46049e-10
1.4605e-10
1.46051e-10
1.46052e-10
1.46053e-10
1.46054e-10
1.46055e-10
1.46056e-10
1.46058e-10
1.46059e-10
1.46061e-10
1.46062e-10
1.46064e-10
1.46066e-10
1.46068e-10
1.46071e-10
1.46073e-10
1.46076e-10
1.46079e-10
1.46082e-10
1.46085e-10
1.46089e-10
1.46093e-10
1.46097e-10
1.46101e-10
1.46106e-10
1.46111e-10
1.46117e-10
1.46123e-10
1.46129e-10
1.46136e-10
1.46144e-10
1.46151e-10
1.4616e-10
1.46169e-10
1.46179e-10
1.4619e-10
1.46202e-10
1.46214e-10
1.46228e-10
1.46243e-10
1.46259e-10
1.46276e-10
1.46295e-10
1.46315e-10
1.46337e-10
1.46361e-10
1.46386e-10
1.46413e-10
1.46443e-10
1.46474e-10
1.46508e-10
1.46545e-10
1.46584e-10
1.46626e-10
1.46671e-10
1.4672e-10
1.46773e-10
1.4683e-10
1.46892e-10
1.46959e-10
1.47032e-10
1.47111e-10
1.47197e-10
1.47292e-10
1.47395e-10
1.47507e-10
1.4763e-10
1.47764e-10
1.4791e-10
1.4807e-10
1.48244e-10
1.48434e-10
1.48639e-10
1.48862e-10
1.49104e-10
1.49364e-10
1.49645e-10
1.49946e-10
1.5027e-10
1.50617e-10
1.50989e-10
1.51387e-10
1.51812e-10
1.52267e-10
1.52756e-10
1.5328e-10
1.53844e-10
1.54454e-10
1.55114e-10
1.55832e-10
1.56614e-10
1.5747e-10
1.5841e-10
1.59443e-10
1.60581e-10
1.61837e-10
1.63225e-10
1.64757e-10
1.66449e-10
1.68317e-10
1.70374e-10
1.72637e-10
1.75119e-10
1.77834e-10
1.80794e-10
1.84012e-10
1.87493e-10
1.91251e-10
1.95283e-10
1.99607e-10
2.04213e-10
2.09128e-10
2.14332e-10
2.19879e-10
2.25728e-10
2.3198e-10
2.38544e-10
2.45986e-10
2.50492e-10
1.46038e-10
1.46038e-10
1.46038e-10
1.46038e-10
1.46038e-10
1.46038e-10
1.46038e-10
1.46038e-10
1.46038e-10
1.46038e-10
1.46038e-10
1.46038e-10
1.46038e-10
1.46038e-10
1.46038e-10
1.46038e-10
1.46038e-10
1.46038e-10
1.46038e-10
1.46038e-10
1.46038e-10
1.46038e-10
1.46038e-10
1.46039e-10
1.46039e-10
1.46039e-10
1.46039e-10
1.46039e-10
1.46039e-10
1.46039e-10
1.46039e-10
1.46039e-10
1.46039e-10
1.46039e-10
1.46039e-10
1.4604e-10
1.4604e-10
1.4604e-10
1.4604e-10
1.4604e-10
1.4604e-10
1.46041e-10
1.46041e-10
1.46041e-10
1.46041e-10
1.46041e-10
1.46042e-10
1.46042e-10
1.46042e-10
1.46043e-10
1.46043e-10
1.46043e-10
1.46044e-10
1.46044e-10
1.46045e-10
1.46045e-10
1.46046e-10
1.46046e-10
1.46047e-10
1.46048e-10
1.46049e-10
1.46049e-10
1.4605e-10
1.46051e-10
1.46052e-10
1.46053e-10
1.46054e-10
1.46056e-10
1.46057e-10
1.46058e-10
1.4606e-10
1.46061e-10
1.46063e-10
1.46065e-10
1.46067e-10
1.46069e-10
1.46072e-10
1.46074e-10
1.46077e-10
1.4608e-10
1.46083e-10
1.46087e-10
1.46091e-10
1.46095e-10
1.46099e-10
1.46104e-10
1.46109e-10
1.46114e-10
1.4612e-10
1.46127e-10
1.46134e-10
1.46141e-10
1.46149e-10
1.46157e-10
1.46166e-10
1.46176e-10
1.46187e-10
1.46198e-10
1.46211e-10
1.46224e-10
1.46238e-10
1.46254e-10
1.46271e-10
1.46289e-10
1.46309e-10
1.4633e-10
1.46353e-10
1.46379e-10
1.46406e-10
1.46435e-10
1.46467e-10
1.46501e-10
1.46538e-10
1.46578e-10
1.46621e-10
1.46667e-10
1.46717e-10
1.4677e-10
1.46828e-10
1.4689e-10
1.46957e-10
1.4703e-10
1.47108e-10
1.47193e-10
1.47286e-10
1.47386e-10
1.47496e-10
1.47615e-10
1.47745e-10
1.47888e-10
1.48043e-10
1.48213e-10
1.48398e-10
1.48601e-10
1.48821e-10
1.49061e-10
1.49322e-10
1.49605e-10
1.49912e-10
1.50243e-10
1.50599e-10
1.50983e-10
1.51396e-10
1.51839e-10
1.52314e-10
1.52823e-10
1.5337e-10
1.53957e-10
1.5459e-10
1.55272e-10
1.56009e-10
1.5681e-10
1.57682e-10
1.58635e-10
1.59679e-10
1.60826e-10
1.62089e-10
1.63482e-10
1.65021e-10
1.66721e-10
1.686e-10
1.70674e-10
1.72962e-10
1.7548e-10
1.78245e-10
1.81272e-10
1.84575e-10
1.88165e-10
1.92053e-10
1.96248e-10
2.00757e-10
2.05585e-10
2.10742e-10
2.16236e-10
2.2208e-10
2.28294e-10
2.34906e-10
2.41952e-10
2.49482e-10
2.57557e-10
2.66252e-10
2.75663e-10
2.85903e-10
2.97112e-10
3.0945e-10
3.23111e-10
3.38312e-10
3.55311e-10
3.74382e-10
3.95853e-10
4.20044e-10
4.47345e-10
4.78078e-10
5.12679e-10
5.51392e-10
5.94694e-10
6.42618e-10
6.9573e-10
7.5368e-10
8.17213e-10
8.85415e-10
9.59465e-10
1.03764e-09
1.12177e-09
1.20993e-09
1.30131e-09
1.41424e-09
1.46038e-10
1.46038e-10
1.46038e-10
1.46038e-10
1.46038e-10
1.46038e-10
1.46038e-10
1.46038e-10
1.46038e-10
1.46038e-10
1.46038e-10
1.46038e-10
1.46038e-10
1.46038e-10
1.4604e-10
1.4604e-10
1.46041e-10
1.46041e-10
1.46041e-10
1.46041e-10
1.46041e-10
1.46042e-10
1.46042e-10
1.46042e-10
1.46043e-10
1.46043e-10
1.46043e-10
1.46044e-10
1.46044e-10
1.46045e-10
1.46045e-10
1.46046e-10
1.46047e-10
1.46047e-10
1.46048e-10
1.46049e-10
1.46049e-10
1.4605e-10
1.46051e-10
1.46052e-10
1.46053e-10
1.46054e-10
1.46056e-10
1.46057e-10
1.46059e-10
1.4606e-10
1.46062e-10
1.46064e-10
1.46066e-10
1.46068e-10
1.4607e-10
1.46072e-10
1.46075e-10
1.46078e-10
1.46081e-10
1.46084e-10
1.46087e-10
1.46091e-10
1.46095e-10
1.461e-10
1.46105e-10
1.4611e-10
1.46115e-10
1.46121e-10
1.46128e-10
1.46135e-10
1.46143e-10
1.46151e-10
1.4616e-10
1.46169e-10
1.46179e-10
1.4619e-10
1.46202e-10
1.46215e-10
1.46229e-10
1.46244e-10
1.4626e-10
1.46277e-10
1.46296e-10
1.46316e-10
1.46338e-10
1.46361e-10
1.46387e-10
1.46415e-10
1.46445e-10
1.46478e-10
1.46513e-10
1.46552e-10
1.46593e-10
1.46638e-10
1.46687e-10
1.46739e-10
1.46796e-10
1.46857e-10
1.46922e-10
1.46993e-10
1.4707e-10
1.47152e-10
1.47242e-10
1.47338e-10
1.47443e-10
1.47556e-10
1.47679e-10
1.47813e-10
1.47959e-10
1.48118e-10
1.48292e-10
1.48481e-10
1.48688e-10
1.48914e-10
1.49161e-10
1.49431e-10
1.49724e-10
1.50043e-10
1.50389e-10
1.50765e-10
1.51172e-10
1.51611e-10
1.52084e-10
1.52594e-10
1.53142e-10
1.53731e-10
1.54364e-10
1.55045e-10
1.55778e-10
1.56569e-10
1.57424e-10
1.58351e-10
1.59359e-10
1.60457e-10
1.61659e-10
1.62978e-10
1.64426e-10
1.66022e-10
1.6778e-10
1.69719e-10
1.71857e-10
1.74212e-10
1.76804e-10
1.79651e-10
1.82769e-10
1.86176e-10
1.89884e-10
1.93909e-10
1.9826e-10
2.02948e-10
2.07985e-10
2.1338e-10
2.19147e-10
2.25304e-10
2.31874e-10
2.38889e-10
2.46392e-10
2.54438e-10
2.63099e-10
2.72461e-10
2.82633e-10
2.93744e-10
3.05948e-10
3.19427e-10
3.34394e-10
3.51088e-10
3.6978e-10
3.90768e-10
4.14373e-10
4.40931e-10
4.70781e-10
5.04257e-10
5.41673e-10
5.83303e-10
6.29374e-10
6.80051e-10
7.35425e-10
7.95519e-10
8.60282e-10
9.29613e-10
1.00336e-09
1.08141e-09
1.16362e-09
1.24986e-09
1.33997e-09
1.43381e-09
1.53127e-09
1.63228e-09
1.73685e-09
1.84508e-09
1.95708e-09
2.07312e-09
2.19347e-09
2.31853e-09
2.44866e-09
2.58438e-09
2.72608e-09
2.87433e-09
3.02946e-09
3.19212e-09
3.36249e-09
3.5414e-09
3.72877e-09
3.92581e-09
4.13204e-09
4.3498e-09
4.58401e-09
4.83081e-09
5.08841e-09
5.35103e-09
5.67895e-09
1.46038e-10
1.46038e-10
1.46038e-10
1.46038e-10
1.46038e-10
1.46038e-10
1.46038e-10
1.46038e-10
1.46038e-10
1.46038e-10
1.46038e-10
1.46038e-10
1.46038e-10
1.46038e-10
1.46051e-10
1.46052e-10
1.46053e-10
1.46055e-10
1.46056e-10
1.46057e-10
1.46059e-10
1.4606e-10
1.46062e-10
1.46064e-10
1.46066e-10
1.46068e-10
1.4607e-10
1.46072e-10
1.46075e-10
1.46078e-10
1.46081e-10
1.46084e-10
1.46088e-10
1.46092e-10
1.46096e-10
1.461e-10
1.46105e-10
1.4611e-10
1.46116e-10
1.46122e-10
1.46128e-10
1.46135e-10
1.46143e-10
1.46151e-10
1.4616e-10
1.4617e-10
1.4618e-10
1.46191e-10
1.46203e-10
1.46217e-10
1.46231e-10
1.46246e-10
1.46262e-10
1.4628e-10
1.46299e-10
1.46319e-10
1.46342e-10
1.46366e-10
1.46392e-10
1.4642e-10
1.4645e-10
1.46483e-10
1.46519e-10
1.46557e-10
1.46599e-10
1.46645e-10
1.46694e-10
1.46748e-10
1.46805e-10
1.46868e-10
1.46936e-10
1.47009e-10
1.47088e-10
1.47173e-10
1.47266e-10
1.47365e-10
1.47473e-10
1.4759e-10
1.47716e-10
1.47852e-10
1.48e-10
1.48161e-10
1.48336e-10
1.48526e-10
1.48734e-10
1.4896e-10
1.49207e-10
1.49477e-10
1.49771e-10
1.50092e-10
1.50442e-10
1.50824e-10
1.51238e-10
1.51688e-10
1.52175e-10
1.52703e-10
1.53272e-10
1.53887e-10
1.54549e-10
1.55262e-10
1.5603e-10
1.56857e-10
1.57749e-10
1.58711e-10
1.59753e-10
1.60883e-10
1.62112e-10
1.63451e-10
1.64916e-10
1.66521e-10
1.68283e-10
1.70219e-10
1.7235e-10
1.74693e-10
1.7727e-10
1.801e-10
1.83204e-10
1.86599e-10
1.90303e-10
1.94334e-10
1.98706e-10
2.03432e-10
2.08526e-10
2.14001e-10
2.19871e-10
2.26155e-10
2.32876e-10
2.40064e-10
2.47759e-10
2.56014e-10
2.64897e-10
2.74491e-10
2.84902e-10
2.96253e-10
3.08691e-10
3.22389e-10
3.37544e-10
3.54381e-10
3.7315e-10
3.94122e-10
4.17587e-10
4.43844e-10
4.7319e-10
5.05914e-10
5.42281e-10
5.8252e-10
6.26817e-10
6.75302e-10
7.28042e-10
7.85043e-10
8.46253e-10
9.1157e-10
9.80856e-10
1.05396e-09
1.13077e-09
1.21121e-09
1.29518e-09
1.38258e-09
1.47339e-09
1.5676e-09
1.66528e-09
1.76658e-09
1.87169e-09
1.98089e-09
2.09448e-09
2.2128e-09
2.33624e-09
2.46518e-09
2.6e-09
2.74108e-09
2.88882e-09
3.04359e-09
3.20577e-09
3.37578e-09
3.55406e-09
3.74108e-09
3.93777e-09
4.14943e-09
4.37142e-09
4.60303e-09
4.84446e-09
5.09599e-09
5.35792e-09
5.63061e-09
5.91465e-09
6.21047e-09
6.51846e-09
6.83916e-09
7.17307e-09
7.52081e-09
7.8829e-09
8.26012e-09
8.65297e-09
9.0624e-09
9.48888e-09
9.9336e-09
1.03969e-08
1.08803e-08
1.13838e-08
1.19097e-08
1.24576e-08
1.30301e-08
1.3627e-08
1.42444e-08
1.48828e-08
1.55271e-08
1.63305e-08
1.46038e-10
1.46038e-10
1.46038e-10
1.46038e-10
1.46038e-10
1.46038e-10
1.46038e-10
1.46039e-10
1.46039e-10
1.46039e-10
1.46039e-10
1.46039e-10
1.46039e-10
1.46111e-10
1.46117e-10
1.46123e-10
1.46129e-10
1.46136e-10
1.46144e-10
1.46152e-10
1.46161e-10
1.46171e-10
1.46181e-10
1.46193e-10
1.46205e-10
1.46218e-10
1.46232e-10
1.46248e-10
1.46264e-10
1.46282e-10
1.46301e-10
1.46322e-10
1.46345e-10
1.46369e-10
1.46396e-10
1.46424e-10
1.46455e-10
1.46488e-10
1.46524e-10
1.46563e-10
1.46605e-10
1.4665e-10
1.467e-10
1.46754e-10
1.46812e-10
1.46875e-10
1.46943e-10
1.47018e-10
1.47098e-10
1.47185e-10
1.47279e-10
1.47381e-10
1.47491e-10
1.4761e-10
1.47739e-10
1.47878e-10
1.48029e-10
1.48192e-10
1.48369e-10
1.48561e-10
1.48769e-10
1.48996e-10
1.49242e-10
1.49511e-10
1.49804e-10
1.50123e-10
1.50471e-10
1.5085e-10
1.51264e-10
1.51715e-10
1.52205e-10
1.52737e-10
1.53315e-10
1.53941e-10
1.54618e-10
1.55349e-10
1.56138e-10
1.56989e-10
1.57906e-10
1.58895e-10
1.59963e-10
1.61116e-10
1.62364e-10
1.63717e-10
1.65187e-10
1.66789e-10
1.68538e-10
1.70451e-10
1.72546e-10
1.74843e-10
1.77363e-10
1.80127e-10
1.83156e-10
1.86471e-10
1.90093e-10
1.94041e-10
1.98334e-10
2.02988e-10
2.08021e-10
2.13449e-10
2.19287e-10
2.25555e-10
2.32275e-10
2.39473e-10
2.47186e-10
2.55457e-10
2.64346e-10
2.73924e-10
2.84283e-10
2.95533e-10
3.07805e-10
3.21251e-10
3.36046e-10
3.52389e-10
3.70497e-10
3.90609e-10
4.12978e-10
4.37865e-10
4.65533e-10
4.96234e-10
5.30203e-10
5.67643e-10
6.08719e-10
6.53548e-10
7.02195e-10
7.5467e-10
8.10934e-10
8.709e-10
9.34452e-10
1.00146e-09
1.07178e-09
1.14535e-09
1.22212e-09
1.30205e-09
1.38512e-09
1.47134e-09
1.56079e-09
1.65357e-09
1.74988e-09
1.84995e-09
1.95403e-09
2.06243e-09
2.17545e-09
2.29344e-09
2.41672e-09
2.54566e-09
2.68063e-09
2.82203e-09
2.97026e-09
3.12579e-09
3.28911e-09
3.46067e-09