/*--------------------------------*- C++ -*----------------------------------*\
| =========                 |                                                 |
| \\      /  F ield         | OpenFOAM: The Open Source CFD Toolbox           |
|  \\    /   O peration     | Version:  v1706                                 |
|   \\  /    A nd           | Web:      www.OpenFOAM.com                      |
|    \\/     M anipulation  |                                                 |
\*---------------------------------------------------------------------------*/
FoamFile
{
    version     2.0;
    format      ascii;
    class       volScalarField;
    location    "5e-06";
    object      Mach;
}
// * * * * * * * * * * * * * * * * * * * * * * * * * * * * * * * * * * * * * //

dimensions      [0 0 0 0 0 0 0];


internalField   nonuniform List<scalar> 
30104
(
11.2859
11.2859
11.2859
11.2859
11.2859
11.2859
11.2859
11.2859
11.2859
11.2859
11.2859
11.2859
11.2859
11.2859
11.2859
11.2859
11.2859
11.2859
11.2859
11.2859
11.2859
11.2859
11.2859
11.2859
11.2859
11.2859
11.2859
11.2859
11.2859
11.2859
11.2859
11.2859
11.2859
11.2859
11.2859
11.2859
11.2859
11.2859
11.2859
11.2859
11.2859
11.2859
11.2859
11.2859
11.2859
11.2859
11.2859
11.2859
11.2859
11.2859
11.2859
11.2859
11.2859
11.2859
11.2859
11.2859
11.2859
11.2859
11.2859
11.2859
11.2859
11.2859
11.2859
11.2859
11.2859
11.2859
11.2859
11.2859
11.2859
11.2859
11.2859
11.2859
11.2859
11.2859
11.2859
11.2859
11.2859
11.2859
11.2859
11.2859
11.2859
11.2859
11.2859
11.2859
11.2859
11.2859
11.2859
11.2859
11.2859
11.2859
11.2859
11.2859
11.2859
11.2859
11.2859
11.2859
11.2859
11.2859
11.2859
11.2859
11.2859
11.2859
11.2859
11.2859
11.2859
11.2859
11.2859
11.2859
11.2859
11.2859
11.2859
11.2859
11.2859
11.2859
11.2859
11.2859
11.2859
11.2859
11.2859
11.2859
11.2859
11.2859
11.2859
11.2859
11.2859
11.2859
11.2859
11.2859
11.2859
11.2859
11.2859
11.2859
11.2859
11.2859
11.2859
11.2859
11.2859
11.2859
11.2859
11.2859
11.2859
11.2859
11.2859
11.2859
11.2859
11.2859
11.2859
11.2859
11.2859
11.2859
11.2859
11.2859
11.2859
11.2859
11.2859
11.2859
11.2859
11.2859
11.2859
11.2859
11.2859
11.2859
11.2859
11.2859
11.2859
11.2859
11.2859
11.2859
11.2859
11.2859
11.2859
11.2859
11.2859
11.2859
11.2859
11.2859
11.2859
11.2859
11.2859
11.2859
11.2859
11.2859
11.2859
11.2859
11.2859
11.2859
11.2859
11.2859
11.2859
11.2859
11.2859
11.2859
11.2859
11.2859
11.2859
11.2859
11.2859
11.2859
11.2859
11.2859
11.2859
11.2859
11.2859
11.2859
11.2859
11.2859
11.2859
11.2859
11.2859
11.2859
11.2859
11.2859
11.2859
11.2859
11.2859
11.2859
11.2859
11.2859
11.2859
11.2859
11.2859
11.2859
11.2859
11.2859
11.2859
11.2859
11.2859
11.2859
11.2859
11.2859
11.2859
11.2859
11.2859
11.2859
11.2859
11.2859
11.2859
11.2859
11.2859
11.2859
11.2859
11.2859
11.2859
11.2859
11.2859
11.2859
11.2859
11.2859
11.2859
11.2859
11.2859
11.2859
11.2859
11.2859
11.2859
11.2859
11.2859
11.2859
11.2859
11.2859
11.2859
11.2859
11.2859
11.2859
11.2859
11.2859
11.2859
11.2859
11.2859
11.2859
11.2859
11.2859
11.2859
11.2859
11.2859
11.2859
11.2859
11.2859
11.2859
11.2859
11.2859
11.2859
11.2859
11.2859
11.2859
11.2859
11.2859
11.2859
11.2859
11.2859
11.2859
11.2859
11.2859
11.2859
11.2859
11.2859
11.2859
11.2859
11.2859
11.2859
11.2859
11.2859
11.2859
11.2859
11.2859
11.2859
11.2859
11.2859
11.2859
11.2859
11.2859
11.2859
11.2859
11.2859
11.2859
11.2859
11.2859
11.2859
11.2859
11.2859
11.2859
11.2859
11.2859
11.2859
11.2859
11.2859
11.2859
11.2859
11.2859
11.2859
11.2859
11.2859
11.2859
11.2859
11.2859
11.2859
11.2859
11.2859
11.2859
11.2859
11.2859
11.2859
11.2859
11.2859
11.2859
11.2859
11.2859
11.2859
11.2859
11.2859
11.2859
11.2859
11.2859
11.2859
11.2859
11.2859
11.2859
11.2859
11.2859
11.2859
11.2859
11.2859
11.2859
11.2859
11.2859
11.2859
11.2859
11.2859
11.2859
11.2859
11.2859
11.2859
11.2859
11.2859
11.2859
11.2859
11.2859
11.2859
11.2859
11.2859
11.2859
11.2859
11.2859
11.2859
11.2859
11.2859
11.2859
11.2859
11.2859
11.2859
11.2859
11.2859
11.2859
11.2859
11.2859
11.2859
11.2859
11.2859
11.2859
11.2859
11.2859
11.2859
11.2859
11.2859
11.2859
11.2859
11.2859
11.2859
11.2859
11.2859
11.2859
11.2859
11.2859
11.2859
11.2859
11.2859
11.2859
11.2859
11.2859
11.2859
11.2859
11.2859
11.2859
11.2859
11.2859
11.2859
11.2859
11.2859
11.2859
11.2859
11.2859
11.2859
11.2859
11.2859
11.2859
11.2859
11.2859
11.2859
11.2859
11.2859
11.2859
11.2859
11.2859
11.2859
11.2859
11.2859
11.2859
11.2859
11.2859
11.2859
11.2859
11.2859
11.2859
11.2859
11.2859
11.2859
11.2859
11.2859
11.2859
11.2859
11.2859
11.2859
11.2859
11.2859
11.2859
11.2859
11.2859
11.2859
11.2859
11.2859
11.2859
11.2859
11.2859
11.2859
11.2859
11.2859
11.2859
11.2859
11.2859
11.2859
11.2859
11.2859
11.2859
11.2859
11.2859
11.2859
11.2859
11.2859
11.2859
11.2859
11.2859
11.2859
11.2859
11.2859
11.2859
11.2859
11.2859
11.2859
11.2859
11.2859
11.2859
11.2859
11.2859
11.2859
11.2859
11.2859
11.2859
11.2859
11.2859
11.2859
11.2859
11.2859
11.2859
11.2859
11.2859
11.2859
11.2859
11.2859
11.2859
11.2859
11.2859
11.2859
11.2859
11.2859
11.2859
11.2859
11.2859
11.2859
11.2859
11.2859
11.2859
11.2859
11.2859
11.2859
11.2859
11.2859
11.2859
11.2859
11.2859
11.2859
11.2859
11.2859
11.2859
11.2859
11.2859
11.2859
11.2859
11.2859
11.2859
11.2859
11.2859
11.2859
11.2859
11.2859
11.2859
11.2859
11.2859
11.2859
11.2859
11.2859
11.2859
11.2859
11.2859
11.2859
11.2859
11.2859
11.2859
11.2859
11.2859
11.2859
11.2859
11.2859
11.2859
11.2859
11.2859
11.2859
11.2859
11.2859
11.2859
11.2859
11.2859
11.2859
11.2859
11.2859
11.2859
11.2859
11.2859
11.2859
11.2859
11.2859
11.2859
11.2859
11.2859
11.2859
11.2859
11.2859
11.2859
11.2859
11.2859
11.2859
11.2859
11.2859
11.2859
11.2858
11.2858
11.2858
11.2858
11.2858
11.2858
11.2858
11.2858
11.2858
11.2858
11.2858
11.2858
11.2858
11.2858
11.2858
11.2858
11.2858
11.2858
11.2858
11.2858
11.2858
11.2858
11.2858
11.2858
11.2858
11.2858
11.2859
11.2859
11.2859
11.2859
11.2859
11.2859
11.2859
11.2859
11.2859
11.2859
11.2859
11.2859
11.2859
11.2859
11.2859
11.2859
11.2859
11.2859
11.2859
11.2859
11.2859
11.2859
11.2859
11.2859
11.2859
11.2859
11.2859
11.2859
11.2859
11.2859
11.2859
11.2859
11.2859
11.2859
11.2859
11.2859
11.2859
11.2859
11.2859
11.2859
11.2859
11.2859
11.2859
11.2859
11.2859
11.2859
11.2859
11.2859
11.2859
11.2859
11.2859
11.2859
11.2859
11.2859
11.2859
11.2859
11.2859
11.2859
11.2859
11.2859
11.2859
11.2859
11.2859
11.2859
11.2859
11.2859
11.2859
11.2859
11.2859
11.2859
11.2859
11.2859
11.2859
11.2859
11.2859
11.2859
11.2859
11.2859
11.2859
11.2859
11.2859
11.2859
11.2859
11.2859
11.2859
11.2859
11.2859
11.2859
11.2859
11.2859
11.2859
11.2859
11.2859
11.2859
11.2859
11.2859
11.2859
11.2859
11.2859
11.2859
11.2859
11.2859
11.2859
11.2859
11.2859
11.2859
11.2859
11.2859
11.2859
11.2859
11.2859
11.2859
11.2859
11.2859
11.2859
11.2859
11.2859
11.2859
11.2859
11.2859
11.2859
11.2859
11.2859
11.2859
11.2859
11.2859
11.2859
11.2859
11.2859
11.2859
11.2859
11.2859
11.2859
11.2859
11.2859
11.2859
11.2859
11.2859
11.2859
11.2859
11.2859
11.2859
11.2859
11.2859
11.2859
11.2859
11.2859
11.2858
11.2858
11.2858
11.2858
11.2858
11.2858
11.2858
11.2858
11.2858
11.2858
11.2858
11.2858
11.2858
11.2858
11.2858
11.2858
11.2858
11.2858
11.2858
11.2858
11.2858
11.2858
11.2858
11.2858
11.2858
11.2858
11.2858
11.2858
11.2858
11.2858
11.2858
11.2858
11.2858
11.2858
11.2858
11.2858
11.2858
11.2858
11.2858
11.2858
11.2858
11.2858
11.2858
11.2857
11.2857
11.2857
11.2857
11.2857
11.2857
11.2857
11.2857
11.2857
11.2857
11.2857
11.2857
11.2856
11.2856
11.2856
11.2856
11.2856
11.2856
11.2856
11.2859
11.2859
11.2859
11.2859
11.2859
11.2859
11.2859
11.2859
11.2859
11.2859
11.2859
11.2859
11.2859
11.2859
11.2859
11.2859
11.2859
11.2859
11.2859
11.2859
11.2859
11.2859
11.2859
11.2859
11.2859
11.2859
11.2859
11.2859
11.2859
11.2859
11.2859
11.2859
11.2859
11.2859
11.2859
11.2859
11.2859
11.2859
11.2859
11.2859
11.2859
11.2859
11.2859
11.2859
11.2859
11.2859
11.2859
11.2859
11.2859
11.2859
11.2859
11.2859
11.2859
11.2859
11.2859
11.2859
11.2859
11.2859
11.2859
11.2859
11.2859
11.2859
11.2859
11.2859
11.2859
11.2859
11.2859
11.2859
11.2859
11.2859
11.2859
11.2859
11.2859
11.2859
11.2859
11.2859
11.2859
11.2859
11.2859
11.2859
11.2859
11.2859
11.2859
11.2859
11.2859
11.2859
11.2859
11.2859
11.2859
11.2859
11.2859
11.2859
11.2859
11.2859
11.2859
11.2859
11.2859
11.2859
11.2859
11.2859
11.2859
11.2859
11.2859
11.2859
11.2859
11.2859
11.2859
11.2859
11.2859
11.2859
11.2859
11.2859
11.2858
11.2858
11.2858
11.2858
11.2858
11.2858
11.2858
11.2858
11.2858
11.2858
11.2858
11.2858
11.2858
11.2858
11.2858
11.2858
11.2858
11.2858
11.2858
11.2858
11.2858
11.2858
11.2858
11.2858
11.2858
11.2858
11.2858
11.2858
11.2858
11.2858
11.2858
11.2858
11.2858
11.2858
11.2858
11.2858
11.2858
11.2858
11.2858
11.2858
11.2858
11.2857
11.2857
11.2857
11.2857
11.2857
11.2857
11.2857
11.2857
11.2857
11.2857
11.2857
11.2856
11.2856
11.2856
11.2856
11.2856
11.2856
11.2856
11.2855
11.2855
11.2855
11.2855
11.2854
11.2854
11.2854
11.2854
11.2853
11.2853
11.2852
11.2852
11.2852
11.2851
11.285
11.285
11.2849
11.2849
11.2848
11.2847
11.2847
11.2846
11.2845
11.2844
11.2843
11.2842
11.2841
11.284
11.2839
11.2838
11.2837
11.2835
11.2834
11.2832
11.283
11.2828
11.2829
11.2859
11.2859
11.2859
11.2859
11.2859
11.2859
11.2859
11.2859
11.2859
11.2859
11.2859
11.2859
11.2859
11.2859
11.2859
11.2859
11.2859
11.2859
11.2859
11.2859
11.2859
11.2859
11.2859
11.2859
11.2859
11.2859
11.2859
11.2859
11.2859
11.2859
11.2859
11.2859
11.2859
11.2859
11.2859
11.2859
11.2859
11.2859
11.2859
11.2859
11.2859
11.2859
11.2859
11.2859
11.2859
11.2859
11.2859
11.2859
11.2859
11.2859
11.2859
11.2859
11.2859
11.2859
11.2859
11.2859
11.2859
11.2859
11.2859
11.2859
11.2859
11.2859
11.2859
11.2859
11.2859
11.2859
11.2859
11.2859
11.2859
11.2859
11.2859
11.2859
11.2859
11.2859
11.2859
11.2859
11.2859
11.2859
11.2859
11.2859
11.2859
11.2859
11.2858
11.2858
11.2858
11.2858
11.2858
11.2858
11.2858
11.2858
11.2858
11.2858
11.2858
11.2858
11.2858
11.2858
11.2858
11.2858
11.2858
11.2858
11.2858
11.2858
11.2858
11.2858
11.2858
11.2858
11.2858
11.2858
11.2858
11.2858
11.2858
11.2858
11.2858
11.2858
11.2858
11.2858
11.2858
11.2858
11.2858
11.2858
11.2858
11.2858
11.2857
11.2857
11.2857
11.2857
11.2857
11.2857
11.2857
11.2857
11.2857
11.2857
11.2856
11.2856
11.2856
11.2856
11.2856
11.2856
11.2855
11.2855
11.2855
11.2855
11.2855
11.2854
11.2854
11.2854
11.2853
11.2853
11.2853
11.2852
11.2852
11.2851
11.2851
11.285
11.285
11.2849
11.2849
11.2848
11.2847
11.2846
11.2846
11.2845
11.2844
11.2843
11.2841
11.284
11.2839
11.2838
11.2836
11.2835
11.2833
11.2831
11.283
11.2828
11.2826
11.2823
11.2821
11.2819
11.2816
11.2813
11.281
11.2807
11.2803
11.2799
11.2795
11.2791
11.2786
11.2782
11.2777
11.2771
11.2766
11.276
11.2754
11.2748
11.2741
11.2734
11.2727
11.2719
11.2711
11.2702
11.2693
11.2683
11.2672
11.2661
11.2649
11.2635
11.2621
11.26
11.2604
11.2859
11.2859
11.2859
11.2859
11.2859
11.2859
11.2859
11.2859
11.2859
11.2859
11.2859
11.2859
11.2859
11.2859
11.2859
11.2859
11.2859
11.2859
11.2859
11.2859
11.2859
11.2859
11.2859
11.2859
11.2859
11.2859
11.2859
11.2859
11.2859
11.2859
11.2859
11.2859
11.2859
11.2859
11.2859
11.2859
11.2859
11.2859
11.2859
11.2859
11.2859
11.2859
11.2859
11.2859
11.2859
11.2859
11.2859
11.2859
11.2859
11.2859
11.2858
11.2858
11.2858
11.2858
11.2858
11.2858
11.2858
11.2858
11.2858
11.2858
11.2858
11.2858
11.2858
11.2858
11.2858
11.2858
11.2858
11.2858
11.2858
11.2858
11.2858
11.2858
11.2858
11.2858
11.2858
11.2858
11.2858
11.2858
11.2858
11.2858
11.2858
11.2858
11.2858
11.2858
11.2858
11.2858
11.2858
11.2858
11.2858
11.2857
11.2857
11.2857
11.2857
11.2857
11.2857
11.2857
11.2857
11.2857
11.2857
11.2856
11.2856
11.2856
11.2856
11.2856
11.2856
11.2855
11.2855
11.2855
11.2855
11.2854
11.2854
11.2854
11.2853
11.2853
11.2853
11.2852
11.2852
11.2852
11.2851
11.2851
11.285
11.2849
11.2849
11.2848
11.2847
11.2847
11.2846
11.2845
11.2844
11.2843
11.2842
11.2841
11.2839
11.2838
11.2836
11.2835
11.2833
11.2831
11.2829
11.2827
11.2825
11.2823
11.282
11.2817
11.2814
11.2811
11.2808
11.2805
11.2801
11.2797
11.2792
11.2788
11.2783
11.2777
11.2772
11.2766
11.2759
11.2752
11.2745
11.2737
11.2729
11.272
11.2711
11.2701
11.269
11.268
11.2668
11.2656
11.2643
11.2629
11.2615
11.2599
11.2582
11.2564
11.2545
11.2524
11.2501
11.2476
11.2449
11.242
11.2388
11.2353
11.2316
11.2275
11.2231
11.2184
11.2133
11.2079
11.2021
11.196
11.1894
11.1825
11.1753
11.1677
11.1597
11.1514
11.1427
11.1337
11.1242
11.1143
11.104
11.093
11.0814
11.0693
11.0537
11.0521
11.2859
11.2859
11.2859
11.2859
11.2859
11.2859
11.2859
11.2859
11.2859
11.2859
11.2859
11.2859
11.2859
11.2859
11.2859
11.2859
11.2859
11.2859
11.2859
11.2859
11.2859
11.2859
11.2859
11.2858
11.2858
11.2858
11.2858
11.2858
11.2858
11.2858
11.2858
11.2858
11.2858
11.2858
11.2858
11.2858
11.2858
11.2858
11.2858
11.2858
11.2858
11.2858
11.2858
11.2858
11.2858
11.2858
11.2858
11.2858
11.2858
11.2858
11.2858
11.2858
11.2858
11.2858
11.2858
11.2858
11.2858
11.2858
11.2858
11.2858
11.2858
11.2857
11.2857
11.2857
11.2857
11.2857
11.2857
11.2857
11.2857
11.2857
11.2857
11.2856
11.2856
11.2856
11.2856
11.2856
11.2856
11.2855
11.2855
11.2855
11.2855
11.2854
11.2854
11.2854
11.2853
11.2853
11.2853
11.2852
11.2852
11.2851
11.2851
11.285
11.285
11.2849
11.2848
11.2848
11.2847
11.2846
11.2845
11.2844
11.2843
11.2842
11.2841
11.284
11.2838
11.2837
11.2835
11.2834
11.2832
11.283
11.2828
11.2825
11.2823
11.282
11.2817
11.2814
11.2811
11.2808
11.2804
11.28
11.2796
11.2791
11.2786
11.2781
11.2776
11.277
11.2763
11.2756
11.2749
11.2741
11.2732
11.2723
11.2713
11.2703
11.2692
11.268
11.2667
11.2654
11.2639
11.2624
11.2608
11.2591
11.2573
11.2554
11.2534
11.2512
11.2488
11.2463
11.2436
11.2407
11.2375
11.2341
11.2304
11.2263
11.2219
11.2172
11.212
11.2064
11.2003
11.1937
11.1867
11.1791
11.171
11.1623
11.1531
11.1434
11.1331
11.1223
11.1109
11.0989
11.0864
11.0732
11.0594
11.0448
11.0294
11.013
10.9955
10.9768
10.9567
10.9351
10.9116
10.8862
10.8587
10.8288
10.7965
10.7617
10.7241
10.6839
10.641
10.5955
10.5475
10.4972
10.4447
10.3906
10.3349
10.2782
10.2204
10.1624
10.1037
10.0453
9.98626
9.92793
9.86833
9.81
9.74331
9.72656
11.2859
11.2859
11.2859
11.2859
11.2859
11.2859
11.2859
11.2859
11.2859
11.2859
11.2859
11.2859
11.2859
11.2859
11.2858
11.2858
11.2858
11.2858
11.2858
11.2858
11.2858
11.2858
11.2858
11.2858
11.2858
11.2858
11.2858
11.2858
11.2858
11.2858
11.2858
11.2858
11.2858
11.2858
11.2858
11.2858
11.2857
11.2857
11.2857
11.2857
11.2857
11.2857
11.2857
11.2857
11.2857
11.2857
11.2856
11.2856
11.2856
11.2856
11.2856
11.2855
11.2855
11.2855
11.2855
11.2854
11.2854
11.2854
11.2853
11.2853
11.2853
11.2852
11.2852
11.2851
11.2851
11.285
11.285
11.2849
11.2848
11.2848
11.2847
11.2846
11.2845
11.2844
11.2843
11.2842
11.2841
11.284
11.2838
11.2837
11.2835
11.2833
11.2832
11.283
11.2828
11.2825
11.2823
11.282
11.2817
11.2814
11.2811
11.2807
11.2803
11.2799
11.2795
11.279
11.2785
11.278
11.2774
11.2767
11.2761
11.2753
11.2745
11.2737
11.2728
11.2718
11.2708
11.2697
11.2684
11.2671
11.2657
11.2643
11.2627
11.261
11.2591
11.2572
11.2551
11.2529
11.2506
11.2481
11.2454
11.2426
11.2395
11.2363
11.2328
11.229
11.225
11.2206
11.2159
11.2107
11.2052
11.1991
11.1925
11.1854
11.1777
11.1694
11.1604
11.1507
11.1403
11.1292
11.1173
11.1047
11.0914
11.0772
11.0623
11.0465
11.0299
11.0124
10.9939
10.9743
10.9536
10.9315
10.9079
10.8826
10.8554
10.8262
10.7945
10.7604
10.7234
10.6836
10.6406
10.5945
10.5452
10.4928
10.4373
10.3789
10.318
10.2547
10.1895
10.1228
10.0549
9.9862
9.91705
9.84761
9.778
9.70818
9.63799
9.56713
9.49521
9.42172
9.34608
9.26764
9.18569
9.09947
9.00825
8.91127
8.80793
8.6976
8.58001
8.45485
8.32252
8.18311
8.03803
7.88766
7.73469
7.57911
7.42512
7.27128
7.12345
6.97773
6.84196
6.70853
6.58832
6.46945
6.36491
6.26285
6.16212
11.2859
11.2859
11.2859
11.2859
11.2859
11.2859
11.2859
11.2859
11.2859
11.2859
11.2859
11.2859
11.2859
11.2859
11.2857
11.2857
11.2857
11.2857
11.2857
11.2857
11.2856
11.2856
11.2856
11.2856
11.2856
11.2856
11.2855
11.2855
11.2855
11.2855
11.2854
11.2854
11.2854
11.2853
11.2853
11.2853
11.2852
11.2852
11.2851
11.2851
11.285
11.2849
11.2849
11.2848
11.2847
11.2846
11.2846
11.2845
11.2844
11.2842
11.2841
11.284
11.2839
11.2837
11.2836
11.2834
11.2832
11.283
11.2828
11.2826
11.2824
11.2821
11.2818
11.2815
11.2812
11.2809
11.2805
11.2801
11.2797
11.2792
11.2787
11.2781
11.2775
11.2769
11.2762
11.2755
11.2747
11.2739
11.273
11.272
11.2709
11.2698
11.2686
11.2673
11.2659
11.2643
11.2627
11.2609
11.259
11.257
11.2548
11.2525
11.25
11.2473
11.2444
11.2414
11.2381
11.2346
11.2309
11.2269
11.2226
11.218
11.213
11.2077
11.202
11.1958
11.1891
11.1818
11.174
11.1654
11.1562
11.1461
11.1353
11.1236
11.1111
11.0976
11.0831
11.0676
11.0512
11.0337
11.0151
10.9955
10.9747
10.9527
10.9295
10.9049
10.8788
10.8511
10.8215
10.7899
10.756
10.7197
10.6806
10.6385
10.5932
10.5446
10.4926
10.4369
10.3778
10.3152
10.2494
10.1805
10.109
10.0352
9.95954
9.88239
9.80417
9.72519
9.64569
9.56578
9.48543
9.40449
9.32262
9.23939
9.15423
9.06647
8.97541
8.88031
8.78042
8.67505
8.56359
8.44558
8.32078
8.1892
8.05118
7.9074
7.75892
7.6071
7.45355
7.30006
7.1484
7.00031
6.8573
6.7206
6.59114
6.46949
6.35591
6.25033
6.1525
6.06202
5.97845
5.90123
5.8298
5.76351
5.70181
5.64407
5.58984
5.5385
5.48978
5.44308
5.39836
5.35502
5.31334
5.27259
5.23346
5.19497
5.15825
5.12197
5.08762
5.05363
5.02158
4.99
4.95844
4.92879
4.90166
4.87575
4.85291
11.2859
11.2859
11.2859
11.2859
11.2859
11.2859
11.2858
11.2858
11.2858
11.2858
11.2858
11.2858
11.2858
11.2858
11.2851
11.2851
11.285
11.2849
11.2849
11.2848
11.2847
11.2846
11.2845
11.2844
11.2843
11.2842
11.2841
11.284
11.2838
11.2837
11.2835
11.2833
11.2832
11.283
11.2827
11.2825
11.2823
11.282
11.2817
11.2814
11.2811
11.2807
11.2803
11.2799
11.2795
11.279
11.2785
11.2779
11.2773
11.2766
11.2759
11.2752
11.2744
11.2735
11.2725
11.2715
11.2704
11.2692
11.2679
11.2665
11.2651
11.2635
11.2617
11.2599
11.2579
11.2557
11.2534
11.2509
11.2481
11.2452
11.2421
11.2388
11.2352
11.2313
11.2272
11.2228
11.218
11.213
11.2076
11.2017
11.1955
11.1887
11.1815
11.1737
11.1652
11.1561
11.1462
11.1355
11.1239
11.1114
11.0979
11.0833
11.0675
11.0506
11.0325
11.0131
10.9924
10.9704
10.947
10.9222
10.8959
10.8681
10.8386
10.8073
10.7742
10.739
10.7014
10.6614
10.6185
10.5727
10.5236
10.471
10.4148
10.3548
10.2909
10.2233
10.152
10.0772
9.99919
9.9184
9.8352
9.75005
9.66338
9.57559
9.487
9.39782
9.3081
9.21778
9.12662
9.03424
8.94011
8.84362
8.74409
8.64081
8.53311
8.42039
8.30218
8.17817
8.04831
7.91281
7.77221
7.62737
7.47947
7.32995
7.18038
7.03245
6.88777
6.74782
6.61385
6.48684
6.36746
6.25606
6.1527
6.05722
5.96917
5.88804
5.81327
5.74425
5.68037
5.62101
5.56558
5.51353
5.46439
5.41774
5.37322
5.33057
5.28958
5.25012
5.21208
5.17542
5.1401
5.10611
5.07342
5.042
5.0118
4.98277
4.95489
4.92668
4.90051
4.8766
4.85386
4.83205
4.81087
4.79028
4.77059
4.7516
4.73325
4.71552
4.69841
4.68188
4.66595
4.65054
4.6357
4.6213
4.60741
4.59389
4.5808
4.56795
4.55546
4.54319
4.5312
4.51944
4.50799
4.49466
4.47945
4.46395
4.44976
11.2858
11.2858
11.2858
11.2858
11.2858
11.2858
11.2858
11.2858
11.2858
11.2858
11.2858
11.2858
11.2858
11.2819
11.2816
11.2813
11.2809
11.2806
11.2802
11.2797
11.2793
11.2788
11.2783
11.2777
11.2771
11.2764
11.2757
11.2749
11.274
11.2731
11.2722
11.2711
11.27
11.2687
11.2674
11.266
11.2644
11.2628
11.261
11.259
11.257
11.2547
11.2523
11.2497
11.2469
11.2438
11.2405
11.237
11.2332
11.2291
11.2247
11.2199
11.2148
11.2094
11.2035
11.1973
11.1905
11.1833
11.1755
11.1672
11.1582
11.1486
11.1381
11.1269
11.1147
11.1016
11.0874
11.0721
11.0555
11.0376
11.0184
10.9977
10.9756
10.9519
10.9265
10.8995
10.8709
10.8404
10.8081
10.7739
10.7377
10.6993
10.6587
10.6155
10.5696
10.5207
10.4687
10.4132
10.3541
10.2911
10.2242
10.1532
10.0783
9.99948
9.91704
9.83124
9.74248
9.6512
9.55784
9.46286
9.36668
9.26961
9.17187
9.07353
8.97452
8.8746
8.77339
8.6704
8.56503
8.45666
8.34467
8.2285
8.10771
7.98207
7.85155
7.71639
7.57714
7.43462
7.28997
7.14451
6.99973
6.85718
6.71835
6.58459
6.45702
6.33651
6.22363
6.11866
6.02161
5.93225
5.85016
5.77477
5.70541
5.64147
5.58236
5.52746
5.4762
5.42809
5.38269
5.33963
5.29863
5.25945
5.22195
5.18601
5.15155
5.11852
5.08685
5.05648
5.02736
4.9994
4.97251
4.94667
4.9216
4.8965
4.87351
4.85228
4.83194
4.81222
4.79297
4.77451
4.75678
4.73965
4.72314
4.70725
4.69196
4.67727
4.66314
4.64954
4.63645
4.6238
4.61152
4.5996
4.58794
4.57654
4.5654
4.55439
4.54358
4.53092
4.51664
4.5023
4.4881
4.47397
4.4599
4.44588
4.43188
4.4179
4.40392
4.38992
4.37587
4.36176
4.34753
4.33318
4.31863
4.30389
4.28888
4.27357
4.25792
4.24187
4.22542
4.20844
4.19113
4.17369
4.15685
4.14056
4.12384
4.10989
11.2858
11.2857
11.2857
11.2857
11.2857
11.2857
11.2857
11.2856
11.2856
11.2856
11.2856
11.2855
11.2855
11.2619
11.2601
11.2581
11.2559
11.2536
11.2511
11.2484
11.2454
11.2423
11.2389
11.2352
11.2312
11.2269
11.2223
11.2173
11.2119
11.2062
11.2
11.1933
11.1861
11.1784
11.1702
11.1613
11.1518
11.1415
11.1305
11.1187
11.1059
11.0922
11.0774
11.0614
11.0441
11.0255
11.0054
10.9838
10.9605
10.9356
10.9088
10.8802
10.8496
10.8171
10.7825
10.7457
10.7068
10.6657
10.6221
10.576
10.5272
10.4755
10.4207
10.3626
10.301
10.2357
10.1664
10.0931
10.0157
9.93424
9.84882
9.75966
9.66706
9.57142
9.47318
9.37279
9.27073
9.16741
9.06316
8.95823
8.8527
8.74653
8.63953
8.53137
8.42161
8.30973
8.1952
8.07753
7.95628
7.8312
7.70221
7.56949
7.43349
7.29491
7.15473
7.01412
6.87441
6.73699
6.60323
6.47437
6.35149
6.23543
6.12675
6.02575
5.93246
5.84669
5.76805
5.69602
5.62998
5.56924
5.51316
5.46118
5.41279
5.36749
5.32488
5.28462
5.24644
5.21013
5.17555
5.14257
5.11111
5.08107
5.05237
5.02492
4.99861
4.97333
4.94899
4.92553
4.90291
4.88007
4.85892
4.83951
4.82095
4.80288
4.78532
4.76856
4.75245
4.73694
4.72206
4.70779
4.69411
4.68099
4.6684
4.65628
4.64457
4.63321
4.62216
4.61134
4.60074
4.59029
4.58001
4.56948
4.55717
4.54368
4.53029
4.517
4.50379
4.49064
4.47753
4.46443
4.45133
4.43821
4.42504
4.41179
4.39842
4.38488
4.37115
4.35717
4.3429
4.3283
4.31334
4.29795
4.28211
4.26594
4.24974
4.234
4.21874
4.20328
4.18754
4.17152
4.15523
4.13866
4.12181
4.10467
4.08724
4.0695
4.05146
4.03311
4.01445
3.99549
3.97624
3.95672
3.93695
3.91695
3.89678
3.87642
3.85601
3.83545
3.81502
3.79439
3.77397
3.75312
3.73127
3.71787
11.2853
11.2852
11.2852
11.2851
11.285
11.2849
11.2848
11.2847
11.2846
11.2845
11.2844
11.2843
11.1639
11.1544
11.1442
11.1333
11.1216
11.109
11.0955
11.0809
11.0653
11.0485
11.0304
11.0109
10.9899
10.9672
10.9429
10.9168
10.8887
10.8586
10.8264
10.792
10.7554
10.7164
10.675
10.6312
10.5848
10.5358
10.484
10.4294
10.3717
10.3108
10.2465
10.1786
10.1069
10.0313
9.95167
9.86797
9.78023
9.68857
9.59322
9.49448
9.39273
9.28842
9.18202
9.07398
8.96473
8.85462
8.7439
8.63268
8.52094
8.40854
8.29521
8.18058
8.06424
7.94575
7.82474
7.70093
7.5742
7.44463
7.31253
7.17846
7.04322
6.90781
6.77337
6.64113
6.51233
6.3881
6.26947
6.15725
6.05203
5.95415
5.86369
5.78054
5.70437
5.63473
5.57104
5.5127
5.45904
5.40944
5.36342
5.32053
5.28037
5.24261
5.20699
5.17328
5.14132
5.11098
5.08214
5.05468
5.02848
5.00342
4.97938
4.95624
4.93388
4.91224
4.8913
4.87048
4.85045
4.83215
4.81491
4.7982
4.78197
4.76648
4.75167
4.73746
4.72387
4.71089
4.69848
4.6866
4.67519
4.66418
4.65353
4.64318
4.63307
4.62315
4.61332
4.60354
4.59393
4.5828
4.57038
4.55791
4.54558
4.53333
4.52115
4.509
4.49687
4.48472
4.47253
4.46025
4.44785
4.43529
4.42252
4.40949
4.39618
4.38252
4.36849
4.35403
4.3392
4.32406
4.30898
4.2943
4.27991
4.26524
4.25028
4.23504
4.2195
4.20367
4.18755
4.17111
4.15436
4.13729
4.11991
4.10221
4.08421
4.06592
4.04736
4.02856
4.00954
3.99035
3.97103
3.95161
3.93216
3.91266
3.89306
3.87323
3.85312
3.83273
3.81207
3.79114
3.76995
3.74852
3.72685
3.70497
3.68289
3.66063
3.63821
3.61566
3.59299
3.57023
3.54739
3.52449
3.50153
3.47855
3.45548
3.43244
3.4092
3.38606
3.36245
3.33925
3.31519
3.29103
3.28404
11.2833
11.2829
11.2826
11.2822
11.2819
11.2815
11.2811
11.2806
11.2802
11.2797
10.72
10.6786
10.6346
10.5879
10.5385
10.4863
10.4312
10.3732
10.3121
10.2479
10.1803
10.1092
10.0346
9.95618
9.8739
9.78769
9.69754
9.6035
9.50574
9.40448
9.30004
9.19281
9.08324
8.97178
8.85889
8.74499
8.6304
8.51536
8.4
8.28432
8.16818
8.05139
7.93364
7.81461
7.69399
7.57152
7.44708
7.32068
7.19254
7.06308
6.93293
6.80293
6.67403
6.54731
6.42386
6.3047
6.19078
6.08286
5.98153
5.88714
5.79982
5.71953
5.646
5.57884
5.51755
5.46155
5.41027
5.36311
5.31952
5.27904
5.24132
5.20605
5.17293
5.14175
5.11232
5.08447
5.05806
5.03294
5.00898
4.98604
4.96398
4.94266
4.92198
4.90191
4.88237
4.86325
4.84429
4.82675
4.81053
4.79503
4.77999
4.76562
4.75195
4.73889
4.72644
4.71457
4.70323
4.69236
4.68189
4.67178
4.66198
4.65242
4.64306
4.63375
4.62448
4.61555
4.60578
4.59468
4.583
4.57144
4.56
4.54863
4.53731
4.52599
4.51465
4.50324
4.49174
4.4801
4.46828
4.45623
4.44392
4.4313
4.41833
4.40497
4.39132
4.37735
4.36329
4.3495
4.33602
4.32234
4.30836
4.29409
4.27951
4.26463
4.24944
4.23392
4.21808
4.20192
4.18543
4.16862
4.15152
4.13414
4.11649
4.09863
4.08057
4.06236
4.04404
4.02565
4.00717
3.98852
3.9696
3.95038
3.93085
3.91103
3.89091
3.87052
3.84987
3.82896
3.80782
3.78646
3.76491
3.74319
3.72131
3.69929
3.67715
3.65491
3.63257
3.61013
3.5876
3.56495
3.54218
3.51925
3.49616
3.47292
3.44954
3.42604
3.40244
3.37873
3.35495
3.3311
3.30719
3.28324
3.25926
3.23525
3.21122
3.18717
3.16309
3.13899
3.11485
3.09069
3.06645
3.04218
3.01778
2.9934
2.96875
2.94424
2.91917
2.89483
2.86941
2.84856
2.84646
11.2726
11.2711
11.2696
11.2679
11.2661
11.2643
11.2624
11.2605
11.2585
9.17949
9.0696
8.95736
8.84323
8.72764
8.61104
8.49379
8.37619
8.25844
8.14065
8.02278
7.90473
7.78632
7.66731
7.54747
7.4266
7.30459
7.18144
7.05733
6.9326
6.80776
6.68351
6.56065
6.44011
6.32282
6.20969
6.10153
5.99906
5.90278
5.81304
5.72998
5.65358
5.58363
5.5198
5.46163
5.40862
5.36022
5.3159
5.27514
5.23745
5.20247
5.16988
5.13943
5.11088
5.08402
5.05867
5.03465
5.01182
4.99
4.96905
4.94882
4.92918
4.91006
4.89141
4.87319
4.85538
4.8377
4.82103
4.80563
4.79122
4.77737
4.76411
4.75151
4.73951
4.72809
4.71721
4.7068
4.69679
4.68713
4.67779
4.6687
4.65982
4.65097
4.6422
4.63363
4.625
4.6153
4.60458
4.59371
4.58298
4.57234
4.56174
4.55115
4.54053
4.52984
4.51904
4.5081
4.49696
4.4856
4.47397
4.46203
4.44974
4.43721
4.42439
4.41129
4.39826
4.38548
4.37274
4.35971
4.34637
4.33273
4.31877
4.30449
4.28989
4.27496
4.25971
4.24414
4.22826
4.2121
4.19567
4.17901
4.16213
4.1451
4.12792
4.11064
4.09326
4.07571
4.0579
4.03977
4.02133
4.00258
3.98354
3.96421
3.94461
3.92475
3.90465
3.88433
3.86381
3.8431
3.82221
3.80117
3.77998
3.75864
3.73716
3.71552
3.69372
3.67173
3.64954
3.62713
3.60453
3.58176
3.55882
3.53573
3.51251
3.48918
3.46574
3.44223
3.41864
3.39499
3.37128
3.34754
3.32374
3.29991
3.27604
3.25212
3.22815
3.20413
3.18006
3.15593
3.13175
3.10752
3.08326
3.05898
3.03467
3.01033
2.98598
2.96162
2.93723
2.91282
2.8884
2.86395
2.83947
2.81496
2.79042
2.76584
2.74122
2.71656
2.69186
2.66714
2.64238
2.61764
2.59283
2.56815
2.54327
2.51877
2.49369
2.47009
2.44558
2.43052
2.43415
11.2272
11.2209
6.89492
6.77517
6.65599
6.53799
6.42186
6.3084
6.1984
6.09261
5.99173
5.89634
5.80685
5.72354
5.6465
5.57569
5.51092
5.45186
5.39813
5.34924
5.30472
5.26406
5.2268
5.1925
5.16077
5.1313
5.10384
5.07816
5.05404
5.03128
5.0097
4.98913
4.9694
4.95036
4.93187
4.91382
4.89614
4.87885
4.8619
4.84528
4.82888
4.81333
4.79892
4.78554
4.77284
4.76072
4.7492
4.73825
4.72783
4.71786
4.70828
4.69906
4.69014
4.68147
4.67304
4.6646
4.65626
4.64808
4.64013
4.63148
4.62193
4.61175
4.60165
4.59165
4.58169
4.57174
4.56176
4.5517
4.54152
4.5312
4.52069
4.50995
4.49894
4.48763
4.47612
4.46437
4.45228
4.44003
4.42788
4.41591
4.40377
4.39134
4.37859
4.36553
4.35215
4.33845
4.32443
4.31008
4.29544
4.28049
4.26527
4.24979
4.23409
4.21819
4.20213
4.18592
4.16958
4.15309
4.13636
4.11933
4.10196
4.08428
4.0663
4.04802
4.02946
4.01064
3.99158
3.97229
3.9528
3.93311
3.91325
3.89322
3.87303
3.85268
3.83215
3.81145
3.79054
3.76941
3.74805
3.72647
3.70468
3.68271
3.66056
3.63825
3.61579
3.5932
3.57048
3.54765
3.52471
3.50168
3.47855
3.45533
3.43201
3.4086
3.3851
3.36151
3.33781
3.31403
3.29017
3.26624
3.24226
3.21824
3.19419
3.17012
3.14604
3.12195
3.09785
3.07375
3.04964
3.02553
3.00141
2.97729
2.95314
2.92899
2.90481
2.88061
2.85638
2.83213
2.80787
2.78358
2.75928
2.73498
2.71067
2.68636
2.66205
2.63774
2.61345
2.58918
2.56493
2.54071
2.51654
2.49243
2.46839
2.44444
2.4206
2.39687
2.37329
2.34985
2.32659
2.3035
2.28062
2.25791
2.23545
2.21312
2.1911
2.16901
2.14748
2.12552
2.1057
2.0861
2.0765
2.08845
5.28126
5.24173
5.20573
5.17282
5.14261
5.11473
5.08889
5.06483
5.04232
5.02115
5.00112
4.98204
4.96375
4.94607
4.92887
4.91203
4.89548
4.87921
4.86324
4.84753
4.83213
4.81701
4.80283
4.78966
4.77746
4.76595
4.755
4.74459
4.73468
4.7252
4.71608
4.7073
4.69881
4.69056
4.68252
4.67444
4.66653
4.65879
4.65128
4.64331
4.63461
4.62521
4.61569
4.60627
4.59689
4.5875
4.57806
4.56854
4.55891
4.54912
4.53914
4.52892
4.51846
4.50785
4.49703
4.48589
4.47446
4.46299
4.45159
4.44023
4.4286
4.41666
4.40441
4.39185
4.37898
4.3658
4.35231
4.33853
4.32447
4.31014
4.29557
4.28079
4.26582
4.25067
4.23535
4.21987
4.2042
4.18826
4.17198
4.15538
4.13847
4.12125
4.10375
4.08599
4.06797
4.04972
4.03126
4.0126
3.99374
3.9747
3.95548
3.93608
3.91647
3.89666
3.87663
3.85634
3.83582
3.81508
3.79412
3.77297
3.75164
3.73015
3.7085
3.6867
3.66477
3.64271
3.62052
3.59821
3.57578
3.55322
3.53053
3.50772
3.48477
3.4617
3.43851
3.41521
3.39182
3.36836
3.34483
3.32124
3.29761
3.27394
3.25023
3.22649
3.20272
3.17893
3.15511
3.13127
3.1074
3.08351
3.0596
3.03567
3.01173
2.98778
2.96382
2.93987
2.91592
2.89198
2.86806
2.84414
2.82024
2.79634
2.77246
2.74857
2.72469
2.70081
2.67693
2.65305
2.62917
2.60529
2.58143
2.55758
2.53376
2.50997
2.48624
2.46258
2.439
2.41552
2.39215
2.36891
2.34581
2.32286
2.30008
2.27747
2.25504
2.23279
2.21073
2.18886
2.16718
2.14571
2.12445
2.10339
2.08254
2.06192
2.04153
2.02137
2.00144
1.98174
1.96228
1.94297