/*--------------------------------*- C++ -*----------------------------------*\
| =========                 |                                                 |
| \\      /  F ield         | OpenFOAM: The Open Source CFD Toolbox           |
|  \\    /   O peration     | Version:  v1706                                 |
|   \\  /    A nd           | Web:      www.OpenFOAM.com                      |
|    \\/     M anipulation  |                                                 |
\*---------------------------------------------------------------------------*/
FoamFile
{
    version     2.0;
    format      ascii;
    class       volScalarField;
    location    "5e-06";
    object      mu;
}
// * * * * * * * * * * * * * * * * * * * * * * * * * * * * * * * * * * * * * //

dimensions      [1 -1 -1 0 0 0 0];


internalField   nonuniform List<scalar> 
30104
(
1.0351e-05
1.0351e-05
1.0351e-05
1.0351e-05
1.0351e-05
1.0351e-05
1.0351e-05
1.0351e-05
1.0351e-05
1.0351e-05
1.0351e-05
1.0351e-05
1.0351e-05
1.0351e-05
1.0351e-05
1.0351e-05
1.0351e-05
1.0351e-05
1.0351e-05
1.0351e-05
1.0351e-05
1.0351e-05
1.0351e-05
1.0351e-05
1.0351e-05
1.0351e-05
1.0351e-05
1.0351e-05
1.0351e-05
1.0351e-05
1.0351e-05
1.0351e-05
1.0351e-05
1.0351e-05
1.0351e-05
1.0351e-05
1.0351e-05
1.0351e-05
1.0351e-05
1.0351e-05
1.0351e-05
1.0351e-05
1.0351e-05
1.0351e-05
1.0351e-05
1.0351e-05
1.0351e-05
1.0351e-05
1.0351e-05
1.0351e-05
1.0351e-05
1.0351e-05
1.0351e-05
1.0351e-05
1.0351e-05
1.0351e-05
1.0351e-05
1.0351e-05
1.0351e-05
1.0351e-05
1.0351e-05
1.0351e-05
1.0351e-05
1.0351e-05
1.0351e-05
1.0351e-05
1.0351e-05
1.0351e-05
1.0351e-05
1.0351e-05
1.0351e-05
1.0351e-05
1.0351e-05
1.0351e-05
1.0351e-05
1.0351e-05
1.0351e-05
1.0351e-05
1.0351e-05
1.0351e-05
1.0351e-05
1.0351e-05
1.0351e-05
1.0351e-05
1.0351e-05
1.0351e-05
1.0351e-05
1.0351e-05
1.0351e-05
1.0351e-05
1.0351e-05
1.0351e-05
1.0351e-05
1.0351e-05
1.0351e-05
1.0351e-05
1.0351e-05
1.0351e-05
1.0351e-05
1.0351e-05
1.0351e-05
1.0351e-05
1.0351e-05
1.0351e-05
1.0351e-05
1.0351e-05
1.0351e-05
1.0351e-05
1.0351e-05
1.0351e-05
1.0351e-05
1.0351e-05
1.0351e-05
1.0351e-05
1.0351e-05
1.0351e-05
1.0351e-05
1.0351e-05
1.0351e-05
1.0351e-05
1.0351e-05
1.0351e-05
1.0351e-05
1.0351e-05
1.0351e-05
1.0351e-05
1.0351e-05
1.0351e-05
1.0351e-05
1.0351e-05
1.0351e-05
1.0351e-05
1.0351e-05
1.0351e-05
1.0351e-05
1.0351e-05
1.0351e-05
1.0351e-05
1.0351e-05
1.0351e-05
1.0351e-05
1.0351e-05
1.0351e-05
1.0351e-05
1.0351e-05
1.0351e-05
1.0351e-05
1.0351e-05
1.0351e-05
1.0351e-05
1.0351e-05
1.0351e-05
1.0351e-05
1.0351e-05
1.0351e-05
1.0351e-05
1.0351e-05
1.0351e-05
1.0351e-05
1.0351e-05
1.0351e-05
1.0351e-05
1.0351e-05
1.0351e-05
1.0351e-05
1.0351e-05
1.0351e-05
1.0351e-05
1.0351e-05
1.0351e-05
1.0351e-05
1.0351e-05
1.0351e-05
1.0351e-05
1.0351e-05
1.0351e-05
1.0351e-05
1.0351e-05
1.0351e-05
1.0351e-05
1.0351e-05
1.0351e-05
1.0351e-05
1.0351e-05
1.0351e-05
1.0351e-05
1.0351e-05
1.0351e-05
1.0351e-05
1.0351e-05
1.0351e-05
1.0351e-05
1.0351e-05
1.0351e-05
1.0351e-05
1.0351e-05
1.0351e-05
1.0351e-05
1.0351e-05
1.0351e-05
1.0351e-05
1.0351e-05
1.0351e-05
1.0351e-05
1.0351e-05
1.0351e-05
1.0351e-05
1.0351e-05
1.0351e-05
1.0351e-05
1.0351e-05
1.0351e-05
1.0351e-05
1.0351e-05
1.0351e-05
1.0351e-05
1.0351e-05
1.0351e-05
1.0351e-05
1.0351e-05
1.0351e-05
1.0351e-05
1.0351e-05
1.0351e-05
1.0351e-05
1.0351e-05
1.0351e-05
1.0351e-05
1.0351e-05
1.0351e-05
1.0351e-05
1.0351e-05
1.0351e-05
1.0351e-05
1.0351e-05
1.0351e-05
1.0351e-05
1.0351e-05
1.0351e-05
1.0351e-05
1.0351e-05
1.0351e-05
1.0351e-05
1.0351e-05
1.0351e-05
1.0351e-05
1.0351e-05
1.0351e-05
1.0351e-05
1.0351e-05
1.0351e-05
1.0351e-05
1.0351e-05
1.0351e-05
1.0351e-05
1.0351e-05
1.0351e-05
1.0351e-05
1.0351e-05
1.0351e-05
1.0351e-05
1.0351e-05
1.0351e-05
1.0351e-05
1.0351e-05
1.0351e-05
1.0351e-05
1.0351e-05
1.0351e-05
1.0351e-05
1.0351e-05
1.0351e-05
1.0351e-05
1.0351e-05
1.0351e-05
1.0351e-05
1.0351e-05
1.0351e-05
1.0351e-05
1.0351e-05
1.0351e-05
1.0351e-05
1.0351e-05
1.0351e-05
1.0351e-05
1.0351e-05
1.0351e-05
1.0351e-05
1.0351e-05
1.0351e-05
1.0351e-05
1.0351e-05
1.0351e-05
1.0351e-05
1.0351e-05
1.0351e-05
1.0351e-05
1.0351e-05
1.0351e-05
1.0351e-05
1.0351e-05
1.0351e-05
1.0351e-05
1.0351e-05
1.0351e-05
1.0351e-05
1.0351e-05
1.0351e-05
1.0351e-05
1.0351e-05
1.0351e-05
1.0351e-05
1.0351e-05
1.0351e-05
1.0351e-05
1.0351e-05
1.0351e-05
1.0351e-05
1.0351e-05
1.0351e-05
1.0351e-05
1.0351e-05
1.0351e-05
1.0351e-05
1.0351e-05
1.0351e-05
1.0351e-05
1.0351e-05
1.0351e-05
1.0351e-05
1.0351e-05
1.0351e-05
1.0351e-05
1.0351e-05
1.0351e-05
1.0351e-05
1.0351e-05
1.0351e-05
1.0351e-05
1.0351e-05
1.0351e-05
1.0351e-05
1.0351e-05
1.0351e-05
1.0351e-05
1.0351e-05
1.0351e-05
1.0351e-05
1.0351e-05
1.0351e-05
1.0351e-05
1.0351e-05
1.0351e-05
1.0351e-05
1.0351e-05
1.0351e-05
1.0351e-05
1.0351e-05
1.0351e-05
1.0351e-05
1.0351e-05
1.0351e-05
1.0351e-05
1.0351e-05
1.0351e-05
1.0351e-05
1.0351e-05
1.0351e-05
1.0351e-05
1.0351e-05
1.0351e-05
1.0351e-05
1.0351e-05
1.0351e-05
1.0351e-05
1.0351e-05
1.0351e-05
1.0351e-05
1.0351e-05
1.0351e-05
1.0351e-05
1.0351e-05
1.0351e-05
1.0351e-05
1.0351e-05
1.0351e-05
1.0351e-05
1.0351e-05
1.0351e-05
1.0351e-05
1.0351e-05
1.0351e-05
1.0351e-05
1.0351e-05
1.0351e-05
1.0351e-05
1.0351e-05
1.0351e-05
1.0351e-05
1.0351e-05
1.0351e-05
1.0351e-05
1.0351e-05
1.0351e-05
1.0351e-05
1.0351e-05
1.0351e-05
1.0351e-05
1.0351e-05
1.0351e-05
1.0351e-05
1.0351e-05
1.0351e-05
1.0351e-05
1.0351e-05
1.0351e-05
1.0351e-05
1.0351e-05
1.0351e-05
1.0351e-05
1.0351e-05
1.0351e-05
1.0351e-05
1.0351e-05
1.0351e-05
1.0351e-05
1.0351e-05
1.0351e-05
1.0351e-05
1.0351e-05
1.0351e-05
1.0351e-05
1.0351e-05
1.0351e-05
1.0351e-05
1.0351e-05
1.0351e-05
1.0351e-05
1.0351e-05
1.0351e-05
1.0351e-05
1.0351e-05
1.0351e-05
1.0351e-05
1.0351e-05
1.0351e-05
1.0351e-05
1.0351e-05
1.0351e-05
1.0351e-05
1.0351e-05
1.0351e-05
1.0351e-05
1.0351e-05
1.0351e-05
1.0351e-05
1.0351e-05
1.0351e-05
1.0351e-05
1.0351e-05
1.0351e-05
1.0351e-05
1.0351e-05
1.0351e-05
1.0351e-05
1.0351e-05
1.0351e-05
1.0351e-05
1.0351e-05
1.0351e-05
1.0351e-05
1.0351e-05
1.0351e-05
1.0351e-05
1.0351e-05
1.0351e-05
1.0351e-05
1.0351e-05
1.0351e-05
1.0351e-05
1.0351e-05
1.0351e-05
1.0351e-05
1.0351e-05
1.0351e-05
1.0351e-05
1.0351e-05
1.0351e-05
1.0351e-05
1.0351e-05
1.0351e-05
1.0351e-05
1.0351e-05
1.0351e-05
1.0351e-05
1.0351e-05
1.0351e-05
1.0351e-05
1.0351e-05
1.0351e-05
1.0351e-05
1.0351e-05
1.0351e-05
1.0351e-05
1.0351e-05
1.0351e-05
1.0351e-05
1.0351e-05
1.0351e-05
1.0351e-05
1.0351e-05
1.0351e-05
1.0351e-05
1.0351e-05
1.0351e-05
1.0351e-05
1.0351e-05
1.0351e-05
1.0351e-05
1.0351e-05
1.0351e-05
1.0351e-05
1.0351e-05
1.0351e-05
1.0351e-05
1.0351e-05
1.0351e-05
1.0351e-05
1.0351e-05
1.0351e-05
1.0351e-05
1.0351e-05
1.0351e-05
1.0351e-05
1.0351e-05
1.0351e-05
1.0351e-05
1.0351e-05
1.0351e-05
1.0351e-05
1.0351e-05
1.0351e-05
1.0351e-05
1.0351e-05
1.0351e-05
1.0351e-05
1.0351e-05
1.0351e-05
1.0351e-05
1.0351e-05
1.0351e-05
1.0351e-05
1.0351e-05
1.0351e-05
1.0351e-05
1.0351e-05
1.0351e-05
1.0351e-05
1.0351e-05
1.0351e-05
1.0351e-05
1.0351e-05
1.0351e-05
1.0351e-05
1.0351e-05
1.0351e-05
1.0351e-05
1.0351e-05
1.0351e-05
1.0351e-05
1.0351e-05
1.0351e-05
1.0351e-05
1.0351e-05
1.0351e-05
1.0351e-05
1.0351e-05
1.0351e-05
1.0351e-05
1.0351e-05
1.0351e-05
1.0351e-05
1.0351e-05
1.0351e-05
1.0351e-05
1.0351e-05
1.0351e-05
1.0351e-05
1.0351e-05
1.0351e-05
1.0351e-05
1.0351e-05
1.0351e-05
1.0351e-05
1.0351e-05
1.0351e-05
1.0351e-05
1.0351e-05
1.0351e-05
1.0351e-05
1.0351e-05
1.0351e-05
1.0351e-05
1.0351e-05
1.0351e-05
1.0351e-05
1.0351e-05
1.0351e-05
1.0351e-05
1.0351e-05
1.0351e-05
1.0351e-05
1.0351e-05
1.0351e-05
1.0351e-05
1.0351e-05
1.0351e-05
1.0351e-05
1.0351e-05
1.0351e-05
1.0351e-05
1.0351e-05
1.0351e-05
1.0351e-05
1.0351e-05
1.0351e-05
1.0351e-05
1.0351e-05
1.0351e-05
1.0351e-05
1.0351e-05
1.0351e-05
1.0351e-05
1.0351e-05
1.0351e-05
1.0351e-05
1.0351e-05
1.0351e-05
1.0351e-05
1.0351e-05
1.0351e-05
1.0351e-05
1.0351e-05
1.0351e-05
1.0351e-05
1.0351e-05
1.0351e-05
1.0351e-05
1.0351e-05
1.0351e-05
1.0351e-05
1.0351e-05
1.0351e-05
1.0351e-05
1.0351e-05
1.0351e-05
1.0351e-05
1.0351e-05
1.0351e-05
1.0351e-05
1.0351e-05
1.0351e-05
1.0351e-05
1.0351e-05
1.0351e-05
1.0351e-05
1.0351e-05
1.0351e-05
1.0351e-05
1.0351e-05
1.0351e-05
1.0351e-05
1.0351e-05
1.0351e-05
1.0351e-05
1.0351e-05
1.0351e-05
1.0351e-05
1.0351e-05
1.0351e-05
1.0351e-05
1.0351e-05
1.0351e-05
1.0351e-05
1.0351e-05
1.0351e-05
1.0351e-05
1.0351e-05
1.0351e-05
1.0351e-05
1.0351e-05
1.0351e-05
1.0351e-05
1.0351e-05
1.0351e-05
1.0351e-05
1.0351e-05
1.0351e-05
1.0351e-05
1.0351e-05
1.0351e-05
1.0351e-05
1.0351e-05
1.0351e-05
1.0351e-05
1.0351e-05
1.0351e-05
1.0351e-05
1.0351e-05
1.0351e-05
1.0351e-05
1.0351e-05
1.0351e-05
1.0351e-05
1.0351e-05
1.0351e-05
1.0351e-05
1.0351e-05
1.0351e-05
1.0351e-05
1.0351e-05
1.0351e-05
1.0351e-05
1.0351e-05
1.0351e-05
1.0351e-05
1.0351e-05
1.0351e-05
1.0351e-05
1.0351e-05
1.0351e-05
1.0351e-05
1.0351e-05
1.0351e-05
1.0351e-05
1.0351e-05
1.0351e-05
1.0351e-05
1.0351e-05
1.0351e-05
1.0351e-05
1.0351e-05
1.0351e-05
1.0351e-05
1.0351e-05
1.0351e-05
1.0351e-05
1.0351e-05
1.0351e-05
1.0351e-05
1.0351e-05
1.0351e-05
1.0351e-05
1.0351e-05
1.0351e-05
1.0351e-05
1.0351e-05
1.0351e-05
1.0351e-05
1.0351e-05
1.0351e-05
1.0351e-05
1.0351e-05
1.0351e-05
1.0351e-05
1.0351e-05
1.0351e-05
1.0351e-05
1.0351e-05
1.0351e-05
1.0351e-05
1.0351e-05
1.0351e-05
1.0351e-05
1.0351e-05
1.0351e-05
1.0351e-05
1.0351e-05
1.0351e-05
1.0351e-05
1.0351e-05
1.0351e-05
1.0351e-05
1.0351e-05
1.0351e-05
1.0351e-05
1.0351e-05
1.0351e-05
1.0351e-05
1.0351e-05
1.0351e-05
1.0351e-05
1.0351e-05
1.0351e-05
1.0351e-05
1.0351e-05
1.0351e-05
1.0351e-05
1.0351e-05
1.0351e-05
1.03511e-05
1.03511e-05
1.03511e-05
1.03511e-05
1.03511e-05
1.03511e-05
1.03511e-05
1.03511e-05
1.03511e-05
1.03511e-05
1.03511e-05
1.03511e-05
1.03511e-05
1.03511e-05
1.03511e-05
1.03511e-05
1.03511e-05
1.03511e-05
1.03511e-05
1.03511e-05
1.03512e-05
1.03512e-05
1.03512e-05
1.03512e-05
1.03512e-05
1.03512e-05
1.03512e-05
1.03512e-05
1.03513e-05
1.03513e-05
1.03513e-05
1.03513e-05
1.03513e-05
1.03513e-05
1.03514e-05
1.03514e-05
1.03514e-05
1.03514e-05
1.0351e-05
1.0351e-05
1.0351e-05
1.0351e-05
1.0351e-05
1.0351e-05
1.0351e-05
1.0351e-05
1.0351e-05
1.0351e-05
1.0351e-05
1.0351e-05
1.0351e-05
1.0351e-05
1.0351e-05
1.0351e-05
1.0351e-05
1.0351e-05
1.0351e-05
1.0351e-05
1.0351e-05
1.0351e-05
1.0351e-05
1.0351e-05
1.0351e-05
1.0351e-05
1.0351e-05
1.0351e-05
1.0351e-05
1.0351e-05
1.0351e-05
1.0351e-05
1.0351e-05
1.0351e-05
1.0351e-05
1.0351e-05
1.0351e-05
1.0351e-05
1.0351e-05
1.0351e-05
1.0351e-05
1.0351e-05
1.0351e-05
1.0351e-05
1.0351e-05
1.0351e-05
1.0351e-05
1.0351e-05
1.0351e-05
1.0351e-05
1.0351e-05
1.0351e-05
1.0351e-05
1.0351e-05
1.0351e-05
1.0351e-05
1.0351e-05
1.0351e-05
1.0351e-05
1.0351e-05
1.0351e-05
1.0351e-05
1.0351e-05
1.0351e-05
1.0351e-05
1.0351e-05
1.0351e-05
1.0351e-05
1.0351e-05
1.0351e-05
1.0351e-05
1.0351e-05
1.0351e-05
1.0351e-05
1.0351e-05
1.0351e-05
1.0351e-05
1.0351e-05
1.0351e-05
1.0351e-05
1.0351e-05
1.0351e-05
1.0351e-05
1.0351e-05
1.0351e-05
1.0351e-05
1.0351e-05
1.0351e-05
1.0351e-05
1.0351e-05
1.0351e-05
1.0351e-05
1.0351e-05
1.0351e-05
1.0351e-05
1.0351e-05
1.0351e-05
1.0351e-05
1.0351e-05
1.0351e-05
1.0351e-05
1.0351e-05
1.0351e-05
1.0351e-05
1.0351e-05
1.0351e-05
1.0351e-05
1.0351e-05
1.0351e-05
1.0351e-05
1.0351e-05
1.0351e-05
1.0351e-05
1.0351e-05
1.0351e-05
1.0351e-05
1.0351e-05
1.0351e-05
1.0351e-05
1.0351e-05
1.0351e-05
1.0351e-05
1.0351e-05
1.0351e-05
1.0351e-05
1.0351e-05
1.0351e-05
1.0351e-05
1.0351e-05
1.0351e-05
1.0351e-05
1.0351e-05
1.0351e-05
1.0351e-05
1.0351e-05
1.0351e-05
1.03511e-05
1.03511e-05
1.03511e-05
1.03511e-05
1.03511e-05
1.03511e-05
1.03511e-05
1.03511e-05
1.03511e-05
1.03511e-05
1.03511e-05
1.03511e-05
1.03511e-05
1.03511e-05
1.03511e-05
1.03511e-05
1.03511e-05
1.03511e-05
1.03512e-05
1.03512e-05
1.03512e-05
1.03512e-05
1.03512e-05
1.03512e-05
1.03512e-05
1.03512e-05
1.03512e-05
1.03513e-05
1.03513e-05
1.03513e-05
1.03513e-05
1.03513e-05
1.03514e-05
1.03514e-05
1.03514e-05
1.03514e-05
1.03515e-05
1.03515e-05
1.03515e-05
1.03516e-05
1.03516e-05
1.03516e-05
1.03517e-05
1.03517e-05
1.03518e-05
1.03518e-05
1.03519e-05
1.03519e-05
1.0352e-05
1.03521e-05
1.03521e-05
1.03522e-05
1.03523e-05
1.03523e-05
1.03524e-05
1.03525e-05
1.03526e-05
1.03527e-05
1.03528e-05
1.03529e-05
1.0353e-05
1.03532e-05
1.03533e-05
1.03534e-05
1.03536e-05
1.03538e-05
1.03539e-05
1.03541e-05
1.03543e-05
1.03546e-05
1.03549e-05
1.03548e-05
1.0351e-05
1.0351e-05
1.0351e-05
1.0351e-05
1.0351e-05
1.0351e-05
1.0351e-05
1.0351e-05
1.0351e-05
1.0351e-05
1.0351e-05
1.0351e-05
1.0351e-05
1.0351e-05
1.0351e-05
1.0351e-05
1.0351e-05
1.0351e-05
1.0351e-05
1.0351e-05
1.0351e-05
1.0351e-05
1.0351e-05
1.0351e-05
1.0351e-05
1.0351e-05
1.0351e-05
1.0351e-05
1.0351e-05
1.0351e-05
1.0351e-05
1.0351e-05
1.0351e-05
1.0351e-05
1.0351e-05
1.0351e-05
1.0351e-05
1.0351e-05
1.0351e-05
1.0351e-05
1.0351e-05
1.0351e-05
1.0351e-05
1.0351e-05
1.0351e-05
1.0351e-05
1.0351e-05
1.0351e-05
1.0351e-05
1.0351e-05
1.0351e-05
1.0351e-05
1.0351e-05
1.0351e-05
1.0351e-05
1.0351e-05
1.0351e-05
1.0351e-05
1.0351e-05
1.0351e-05
1.0351e-05
1.0351e-05
1.0351e-05
1.0351e-05
1.0351e-05
1.0351e-05
1.0351e-05
1.0351e-05
1.0351e-05
1.0351e-05
1.0351e-05
1.0351e-05
1.0351e-05
1.0351e-05
1.0351e-05
1.0351e-05
1.0351e-05
1.0351e-05
1.0351e-05
1.0351e-05
1.0351e-05
1.0351e-05
1.0351e-05
1.0351e-05
1.0351e-05
1.0351e-05
1.0351e-05
1.0351e-05
1.0351e-05
1.0351e-05
1.0351e-05
1.0351e-05
1.0351e-05
1.0351e-05
1.0351e-05
1.0351e-05
1.0351e-05
1.0351e-05
1.0351e-05
1.0351e-05
1.0351e-05
1.0351e-05
1.0351e-05
1.0351e-05
1.0351e-05
1.0351e-05
1.03511e-05
1.03511e-05
1.03511e-05
1.03511e-05
1.03511e-05
1.03511e-05
1.03511e-05
1.03511e-05
1.03511e-05
1.03511e-05
1.03511e-05
1.03511e-05
1.03511e-05
1.03511e-05
1.03511e-05
1.03511e-05
1.03511e-05
1.03512e-05
1.03512e-05
1.03512e-05
1.03512e-05
1.03512e-05
1.03512e-05
1.03512e-05
1.03512e-05
1.03513e-05
1.03513e-05
1.03513e-05
1.03513e-05
1.03513e-05
1.03514e-05
1.03514e-05
1.03514e-05
1.03514e-05
1.03515e-05
1.03515e-05
1.03515e-05
1.03515e-05
1.03516e-05
1.03516e-05
1.03517e-05
1.03517e-05
1.03518e-05
1.03518e-05
1.03519e-05
1.03519e-05
1.0352e-05
1.03521e-05
1.03521e-05
1.03522e-05
1.03523e-05
1.03524e-05
1.03525e-05
1.03526e-05
1.03527e-05
1.03528e-05
1.03529e-05
1.0353e-05
1.03532e-05
1.03533e-05
1.03535e-05
1.03536e-05
1.03538e-05
1.0354e-05
1.03542e-05
1.03544e-05
1.03546e-05
1.03549e-05
1.03551e-05
1.03554e-05
1.03557e-05
1.0356e-05
1.03563e-05
1.03567e-05
1.03571e-05
1.03575e-05
1.0358e-05
1.03584e-05
1.03589e-05
1.03595e-05
1.036e-05
1.03606e-05
1.03612e-05
1.03619e-05
1.03626e-05
1.03633e-05
1.03641e-05
1.0365e-05
1.03658e-05
1.03668e-05
1.03678e-05
1.03688e-05
1.037e-05
1.03712e-05
1.03725e-05
1.03739e-05
1.03754e-05
1.0377e-05
1.03787e-05
1.03806e-05
1.03826e-05
1.03855e-05
1.03852e-05
1.0351e-05
1.0351e-05
1.0351e-05
1.0351e-05
1.0351e-05
1.0351e-05
1.0351e-05
1.0351e-05
1.0351e-05
1.0351e-05
1.0351e-05
1.0351e-05
1.0351e-05
1.0351e-05
1.0351e-05
1.0351e-05
1.0351e-05
1.0351e-05
1.0351e-05
1.0351e-05
1.0351e-05
1.0351e-05
1.0351e-05
1.0351e-05
1.0351e-05
1.0351e-05
1.0351e-05
1.0351e-05
1.0351e-05
1.0351e-05
1.0351e-05
1.0351e-05
1.0351e-05
1.0351e-05
1.0351e-05
1.0351e-05
1.0351e-05
1.0351e-05
1.0351e-05
1.0351e-05
1.0351e-05
1.0351e-05
1.0351e-05
1.0351e-05
1.0351e-05
1.0351e-05
1.0351e-05
1.0351e-05
1.0351e-05
1.0351e-05
1.0351e-05
1.0351e-05
1.0351e-05
1.0351e-05
1.0351e-05
1.0351e-05
1.0351e-05
1.0351e-05
1.0351e-05
1.0351e-05
1.0351e-05
1.0351e-05
1.0351e-05
1.0351e-05
1.0351e-05
1.0351e-05
1.0351e-05
1.0351e-05
1.0351e-05
1.0351e-05
1.0351e-05
1.0351e-05
1.0351e-05
1.03511e-05
1.03511e-05
1.03511e-05
1.03511e-05
1.03511e-05
1.03511e-05
1.03511e-05
1.03511e-05
1.03511e-05
1.03511e-05
1.03511e-05
1.03511e-05
1.03511e-05
1.03511e-05
1.03511e-05
1.03511e-05
1.03511e-05
1.03512e-05
1.03512e-05
1.03512e-05
1.03512e-05
1.03512e-05
1.03512e-05
1.03512e-05
1.03512e-05
1.03513e-05
1.03513e-05
1.03513e-05
1.03513e-05
1.03513e-05
1.03514e-05
1.03514e-05
1.03514e-05
1.03514e-05
1.03515e-05
1.03515e-05
1.03515e-05
1.03516e-05
1.03516e-05
1.03516e-05
1.03517e-05
1.03517e-05
1.03518e-05
1.03518e-05
1.03519e-05
1.0352e-05
1.0352e-05
1.03521e-05
1.03522e-05
1.03523e-05
1.03523e-05
1.03524e-05
1.03525e-05
1.03526e-05
1.03528e-05
1.03529e-05
1.0353e-05
1.03532e-05
1.03533e-05
1.03535e-05
1.03537e-05
1.03538e-05
1.0354e-05
1.03542e-05
1.03545e-05
1.03547e-05
1.0355e-05
1.03552e-05
1.03555e-05
1.03558e-05
1.03561e-05
1.03565e-05
1.03569e-05
1.03573e-05
1.03577e-05
1.03582e-05
1.03587e-05
1.03592e-05
1.03598e-05
1.03604e-05
1.03611e-05
1.03618e-05
1.03626e-05
1.03634e-05
1.03643e-05
1.03652e-05
1.03662e-05
1.03672e-05
1.03683e-05
1.03695e-05
1.03708e-05
1.03721e-05
1.03735e-05
1.0375e-05
1.03766e-05
1.03783e-05
1.03802e-05
1.03822e-05
1.03843e-05
1.03866e-05
1.03891e-05
1.03917e-05
1.03946e-05
1.03978e-05
1.04012e-05
1.04048e-05
1.04088e-05
1.04131e-05
1.04177e-05
1.04227e-05
1.04281e-05
1.04338e-05
1.044e-05
1.04466e-05
1.04535e-05
1.04609e-05
1.04687e-05
1.04769e-05
1.04856e-05
1.04946e-05
1.05041e-05
1.0514e-05
1.05243e-05
1.05351e-05
1.05464e-05
1.05583e-05
1.05709e-05
1.05841e-05
1.05982e-05
1.06133e-05
1.06292e-05
1.06499e-05
1.06517e-05
1.0351e-05
1.0351e-05
1.0351e-05
1.0351e-05
1.0351e-05
1.0351e-05
1.0351e-05
1.0351e-05
1.0351e-05
1.0351e-05
1.0351e-05
1.0351e-05
1.0351e-05
1.0351e-05
1.0351e-05
1.0351e-05
1.0351e-05
1.0351e-05
1.0351e-05
1.0351e-05
1.0351e-05
1.0351e-05
1.0351e-05
1.0351e-05
1.0351e-05
1.0351e-05
1.0351e-05
1.0351e-05
1.0351e-05
1.0351e-05
1.0351e-05
1.0351e-05
1.0351e-05
1.0351e-05
1.0351e-05
1.0351e-05
1.0351e-05
1.0351e-05
1.0351e-05
1.0351e-05
1.0351e-05
1.0351e-05
1.0351e-05
1.0351e-05
1.0351e-05
1.0351e-05
1.03511e-05
1.03511e-05
1.03511e-05
1.03511e-05
1.03511e-05
1.03511e-05
1.03511e-05
1.03511e-05
1.03511e-05
1.03511e-05
1.03511e-05
1.03511e-05
1.03511e-05
1.03511e-05
1.03511e-05
1.03511e-05
1.03511e-05
1.03512e-05
1.03512e-05
1.03512e-05
1.03512e-05
1.03512e-05
1.03512e-05
1.03512e-05
1.03513e-05
1.03513e-05
1.03513e-05
1.03513e-05
1.03513e-05
1.03514e-05
1.03514e-05
1.03514e-05
1.03514e-05
1.03515e-05
1.03515e-05
1.03515e-05
1.03516e-05
1.03516e-05
1.03517e-05
1.03517e-05
1.03517e-05
1.03518e-05
1.03519e-05
1.03519e-05
1.0352e-05
1.03521e-05
1.03521e-05
1.03522e-05
1.03523e-05
1.03524e-05
1.03525e-05
1.03526e-05
1.03527e-05
1.03528e-05
1.0353e-05
1.03531e-05
1.03533e-05
1.03534e-05
1.03536e-05
1.03538e-05
1.0354e-05
1.03542e-05
1.03544e-05
1.03547e-05
1.03549e-05
1.03552e-05
1.03555e-05
1.03559e-05
1.03562e-05
1.03566e-05
1.0357e-05
1.03574e-05
1.03578e-05
1.03583e-05
1.03588e-05
1.03594e-05
1.036e-05
1.03606e-05
1.03613e-05
1.03621e-05
1.03629e-05
1.03637e-05
1.03647e-05
1.03657e-05
1.03667e-05
1.03679e-05
1.03691e-05
1.03704e-05
1.03718e-05
1.03733e-05
1.03749e-05
1.03766e-05
1.03784e-05
1.03803e-05
1.03824e-05
1.03846e-05
1.03869e-05
1.03894e-05
1.03921e-05
1.0395e-05
1.03981e-05
1.04015e-05
1.04051e-05
1.04091e-05
1.04133e-05
1.04179e-05
1.0423e-05
1.04284e-05
1.04343e-05
1.04407e-05
1.04476e-05
1.0455e-05
1.0463e-05
1.04716e-05
1.04808e-05
1.04906e-05
1.0501e-05
1.05121e-05
1.05238e-05
1.05362e-05
1.05492e-05
1.05629e-05
1.05773e-05
1.05925e-05
1.06084e-05
1.06251e-05
1.06428e-05
1.06616e-05
1.06816e-05
1.0703e-05
1.0726e-05
1.07508e-05
1.07777e-05
1.08069e-05
1.08387e-05
1.08734e-05
1.09113e-05
1.09526e-05
1.09976e-05
1.10465e-05
1.10997e-05
1.11571e-05
1.1219e-05
1.12854e-05
1.13563e-05
1.14315e-05
1.15108e-05
1.15939e-05
1.16806e-05
1.17701e-05
1.18626e-05
1.19569e-05
1.20537e-05
1.21515e-05
1.22518e-05
1.23525e-05
1.24567e-05
1.25606e-05
1.2681e-05
1.27136e-05
1.0351e-05
1.0351e-05
1.0351e-05
1.0351e-05
1.0351e-05
1.0351e-05
1.0351e-05
1.0351e-05
1.0351e-05
1.0351e-05
1.0351e-05
1.0351e-05
1.0351e-05
1.0351e-05
1.0351e-05
1.0351e-05
1.0351e-05
1.0351e-05
1.0351e-05
1.0351e-05
1.0351e-05
1.03511e-05
1.03511e-05
1.03511e-05
1.03511e-05
1.03511e-05
1.03511e-05
1.03511e-05
1.03511e-05
1.03511e-05
1.03511e-05
1.03511e-05
1.03511e-05
1.03511e-05
1.03511e-05
1.03511e-05
1.03511e-05
1.03512e-05
1.03512e-05
1.03512e-05
1.03512e-05
1.03512e-05
1.03512e-05
1.03512e-05
1.03512e-05
1.03513e-05
1.03513e-05
1.03513e-05
1.03513e-05
1.03513e-05
1.03514e-05
1.03514e-05
1.03514e-05
1.03515e-05
1.03515e-05
1.03515e-05
1.03516e-05
1.03516e-05
1.03516e-05
1.03517e-05
1.03517e-05
1.03518e-05
1.03518e-05
1.03519e-05
1.0352e-05
1.0352e-05
1.03521e-05
1.03522e-05
1.03523e-05
1.03524e-05
1.03525e-05
1.03526e-05
1.03527e-05
1.03528e-05
1.03529e-05
1.03531e-05
1.03532e-05
1.03534e-05
1.03536e-05
1.03538e-05
1.0354e-05
1.03542e-05
1.03544e-05
1.03547e-05
1.03549e-05
1.03552e-05
1.03555e-05
1.03559e-05
1.03562e-05
1.03566e-05
1.0357e-05
1.03575e-05
1.0358e-05
1.03585e-05
1.0359e-05
1.03596e-05
1.03602e-05
1.03609e-05
1.03616e-05
1.03624e-05
1.03632e-05
1.03641e-05
1.03651e-05
1.03661e-05
1.03673e-05
1.03685e-05
1.03698e-05
1.03712e-05
1.03727e-05
1.03743e-05
1.03761e-05
1.03779e-05
1.03799e-05
1.03821e-05
1.03844e-05
1.03868e-05
1.03894e-05
1.03922e-05
1.03952e-05
1.03984e-05
1.04019e-05
1.04055e-05
1.04095e-05
1.04138e-05
1.04184e-05
1.04233e-05
1.04287e-05
1.04345e-05
1.04409e-05
1.04477e-05
1.04552e-05
1.04632e-05
1.0472e-05
1.04814e-05
1.04916e-05
1.05026e-05
1.05144e-05
1.05271e-05
1.05407e-05
1.05551e-05
1.05705e-05
1.05868e-05
1.0604e-05
1.06222e-05
1.06414e-05
1.06617e-05
1.06832e-05
1.07058e-05
1.07298e-05
1.07554e-05
1.07827e-05
1.0812e-05
1.08435e-05
1.08775e-05
1.09144e-05
1.09545e-05
1.09982e-05
1.10458e-05
1.10977e-05
1.11542e-05
1.12158e-05
1.12825e-05
1.13547e-05
1.14325e-05
1.15159e-05
1.16048e-05
1.16991e-05
1.17985e-05
1.19025e-05
1.20108e-05
1.21227e-05
1.22379e-05
1.23559e-05
1.24763e-05
1.25991e-05
1.27243e-05
1.28522e-05
1.29834e-05
1.31188e-05
1.32594e-05
1.34067e-05
1.35621e-05
1.37276e-05
1.39052e-05
1.40971e-05
1.43059e-05
1.4534e-05
1.47843e-05
1.50591e-05
1.5361e-05
1.56916e-05
1.6053e-05
1.64447e-05
1.68677e-05
1.7318e-05
1.77962e-05
1.82932e-05
1.88108e-05
1.93341e-05
1.98687e-05
2.03929e-05
2.09208e-05
2.14225e-05
2.1923e-05
2.23887e-05
2.28412e-05
2.3302e-05
1.0351e-05
1.0351e-05
1.0351e-05
1.0351e-05
1.0351e-05
1.0351e-05
1.0351e-05
1.0351e-05
1.0351e-05
1.0351e-05
1.0351e-05
1.0351e-05
1.0351e-05
1.0351e-05
1.03512e-05
1.03512e-05
1.03512e-05
1.03512e-05
1.03512e-05
1.03512e-05
1.03513e-05
1.03513e-05
1.03513e-05
1.03513e-05
1.03513e-05
1.03514e-05
1.03514e-05
1.03514e-05
1.03515e-05
1.03515e-05
1.03515e-05
1.03516e-05
1.03516e-05
1.03517e-05
1.03517e-05
1.03517e-05
1.03518e-05
1.03519e-05
1.03519e-05
1.0352e-05
1.03521e-05
1.03521e-05
1.03522e-05
1.03523e-05
1.03524e-05
1.03525e-05
1.03526e-05
1.03527e-05
1.03529e-05
1.0353e-05
1.03531e-05
1.03533e-05
1.03535e-05
1.03537e-05
1.03539e-05
1.03541e-05
1.03543e-05
1.03545e-05
1.03548e-05
1.03551e-05
1.03554e-05
1.03557e-05
1.03561e-05
1.03565e-05
1.03569e-05
1.03573e-05
1.03578e-05
1.03583e-05
1.03589e-05
1.03594e-05
1.03601e-05
1.03608e-05
1.03615e-05
1.03623e-05
1.03631e-05
1.0364e-05
1.0365e-05
1.0366e-05
1.03671e-05
1.03683e-05
1.03696e-05
1.03711e-05
1.03726e-05
1.03742e-05
1.0376e-05
1.03779e-05
1.03799e-05
1.03821e-05
1.03845e-05
1.03871e-05
1.03898e-05
1.03928e-05
1.03959e-05
1.03993e-05
1.04029e-05
1.04068e-05
1.0411e-05
1.04155e-05
1.04203e-05
1.04254e-05
1.0431e-05
1.04369e-05
1.04434e-05
1.04504e-05
1.04579e-05
1.04661e-05
1.0475e-05
1.04847e-05
1.04951e-05
1.05065e-05
1.05187e-05
1.0532e-05
1.05464e-05
1.05618e-05
1.05784e-05
1.05962e-05
1.06153e-05
1.06356e-05
1.06572e-05
1.06801e-05
1.07044e-05
1.07302e-05
1.07575e-05
1.07864e-05
1.08171e-05
1.08498e-05
1.08847e-05
1.0922e-05
1.09621e-05
1.10053e-05
1.1052e-05
1.11027e-05
1.11578e-05
1.12176e-05
1.12827e-05
1.13535e-05
1.14302e-05
1.15132e-05
1.16027e-05
1.16987e-05
1.18014e-05
1.19106e-05
1.20259e-05
1.21472e-05
1.22738e-05
1.24052e-05
1.25411e-05
1.26809e-05
1.28243e-05
1.29711e-05
1.31214e-05
1.32757e-05
1.34345e-05
1.3599e-05
1.37704e-05
1.39505e-05
1.4141e-05
1.43443e-05
1.45628e-05
1.4799e-05
1.50557e-05
1.53356e-05
1.56413e-05
1.59751e-05
1.63386e-05
1.6733e-05
1.71583e-05
1.76131e-05
1.80952e-05
1.86008e-05
1.91249e-05
1.96616e-05
2.02044e-05
2.07467e-05
2.12818e-05
2.18038e-05
2.23078e-05
2.27901e-05
2.32486e-05
2.36814e-05
2.40875e-05
2.44669e-05
2.48199e-05
2.51477e-05
2.54519e-05
2.57348e-05
2.59984e-05
2.62453e-05
2.64775e-05
2.66975e-05
2.6907e-05
2.71075e-05
2.73004e-05
2.74862e-05
2.76658e-05
2.78388e-05
2.80062e-05
2.81669e-05
2.83224e-05
2.84717e-05
2.8617e-05
2.87592e-05
2.89182e-05
2.90743e-05
2.9225e-05
2.93785e-05
2.94882e-05
1.0351e-05
1.0351e-05
1.0351e-05
1.0351e-05
1.0351e-05
1.0351e-05
1.0351e-05
1.0351e-05
1.0351e-05
1.0351e-05
1.0351e-05
1.0351e-05
1.0351e-05
1.0351e-05
1.03519e-05
1.0352e-05
1.03521e-05
1.03522e-05
1.03522e-05
1.03523e-05
1.03524e-05
1.03525e-05
1.03526e-05
1.03528e-05
1.03529e-05
1.0353e-05
1.03532e-05
1.03534e-05
1.03535e-05
1.03537e-05
1.03539e-05
1.03541e-05
1.03544e-05
1.03546e-05
1.03549e-05
1.03552e-05
1.03555e-05
1.03558e-05
1.03562e-05
1.03566e-05
1.0357e-05
1.03575e-05
1.0358e-05
1.03585e-05
1.03591e-05
1.03597e-05
1.03603e-05
1.0361e-05
1.03618e-05
1.03626e-05
1.03635e-05
1.03645e-05
1.03655e-05
1.03666e-05
1.03678e-05
1.03691e-05
1.03704e-05
1.03719e-05
1.03735e-05
1.03752e-05
1.03771e-05
1.03791e-05
1.03812e-05
1.03836e-05
1.03861e-05
1.03888e-05
1.03917e-05
1.03949e-05
1.03983e-05
1.04019e-05
1.04059e-05
1.04101e-05
1.04147e-05
1.04195e-05
1.04248e-05
1.04304e-05
1.04365e-05
1.0443e-05
1.045e-05
1.04575e-05
1.04657e-05
1.04744e-05
1.04839e-05
1.04942e-05
1.05053e-05
1.05174e-05
1.05305e-05
1.05447e-05
1.05601e-05
1.05768e-05
1.05948e-05
1.06143e-05
1.06352e-05
1.06578e-05
1.06819e-05
1.07078e-05
1.07353e-05
1.07647e-05
1.0796e-05
1.08292e-05
1.08644e-05
1.09019e-05
1.09418e-05
1.09843e-05
1.10297e-05
1.10783e-05
1.11305e-05
1.11868e-05
1.12476e-05
1.13134e-05
1.13848e-05
1.14621e-05
1.1546e-05
1.16367e-05
1.17347e-05
1.18401e-05
1.19532e-05
1.20739e-05
1.22021e-05
1.23376e-05
1.24799e-05
1.26286e-05
1.27831e-05
1.2943e-05
1.31078e-05
1.32772e-05
1.34512e-05
1.363e-05
1.38141e-05
1.40045e-05
1.42025e-05
1.44097e-05
1.46282e-05
1.48601e-05
1.51079e-05
1.53741e-05
1.56616e-05
1.59726e-05
1.63097e-05
1.66747e-05
1.70687e-05
1.74922e-05
1.79444e-05
1.84234e-05
1.89262e-05
1.94482e-05
1.99843e-05
2.05281e-05
2.10732e-05
2.1613e-05
2.21412e-05
2.26523e-05
2.31418e-05
2.36063e-05
2.40444e-05
2.44554e-05
2.48392e-05
2.51965e-05
2.55283e-05
2.58364e-05
2.61227e-05
2.63896e-05
2.66393e-05
2.68739e-05
2.70954e-05
2.73054e-05
2.7505e-05
2.7695e-05
2.78761e-05
2.80483e-05
2.8212e-05
2.83673e-05
2.85145e-05
2.86542e-05
2.87874e-05
2.89154e-05
2.90412e-05
2.91815e-05
2.93198e-05
2.94539e-05
2.95832e-05
2.97086e-05
2.98307e-05
2.9951e-05
3.00715e-05
3.01926e-05
3.03148e-05
3.04385e-05
3.0564e-05
3.06911e-05
3.08199e-05
3.095e-05
3.10813e-05
3.12134e-05
3.13464e-05
3.14795e-05
3.16134e-05
3.17468e-05
3.18812e-05
3.20149e-05
3.215e-05
3.22823e-05
3.23968e-05
3.25009e-05
3.25999e-05
3.27056e-05
3.27928e-05
1.0351e-05
1.0351e-05
1.0351e-05
1.0351e-05
1.0351e-05
1.03511e-05
1.03511e-05
1.03511e-05
1.03511e-05
1.03511e-05
1.03511e-05
1.03511e-05
1.03511e-05
1.0356e-05
1.03563e-05
1.03567e-05
1.03572e-05
1.03576e-05
1.03581e-05
1.03587e-05
1.03593e-05
1.03599e-05
1.03606e-05
1.03613e-05
1.03621e-05
1.03629e-05
1.03639e-05
1.03649e-05
1.03659e-05
1.03671e-05
1.03683e-05
1.03696e-05
1.03711e-05
1.03726e-05
1.03743e-05
1.03761e-05
1.0378e-05
1.03801e-05
1.03823e-05
1.03847e-05
1.03873e-05
1.03901e-05
1.03932e-05
1.03965e-05
1.04e-05
1.04038e-05
1.0408e-05
1.04124e-05
1.04173e-05
1.04225e-05
1.04281e-05
1.04341e-05
1.04406e-05
1.04475e-05
1.0455e-05
1.04631e-05
1.04717e-05
1.04811e-05
1.04912e-05
1.0502e-05
1.05137e-05
1.05264e-05
1.05401e-05
1.0555e-05
1.05711e-05
1.05886e-05
1.06075e-05
1.0628e-05
1.06502e-05
1.06741e-05
1.07e-05
1.07278e-05
1.07577e-05
1.07898e-05
1.08241e-05
1.08608e-05
1.08998e-05
1.09414e-05
1.09857e-05
1.10329e-05
1.10831e-05
1.11366e-05
1.11939e-05
1.12552e-05
1.1321e-05
1.13917e-05
1.1468e-05
1.15504e-05
1.16394e-05
1.17356e-05
1.18394e-05
1.19513e-05
1.20715e-05
1.22003e-05
1.23377e-05
1.24837e-05
1.26379e-05
1.28001e-05
1.29698e-05
1.31464e-05
1.33295e-05
1.35186e-05
1.37135e-05
1.39142e-05
1.41208e-05
1.43342e-05
1.45551e-05
1.47851e-05
1.50259e-05
1.52795e-05
1.55483e-05
1.58348e-05
1.61414e-05
1.64704e-05
1.68241e-05
1.72041e-05
1.76113e-05
1.8046e-05
1.85072e-05
1.89931e-05
1.95003e-05
2.00246e-05
2.05607e-05
2.11025e-05
2.16438e-05
2.21781e-05
2.26995e-05
2.32026e-05
2.36833e-05
2.41383e-05
2.45657e-05
2.49653e-05
2.53379e-05
2.56844e-05
2.60062e-05
2.63051e-05
2.65829e-05
2.68418e-05
2.70838e-05
2.73107e-05
2.7524e-05
2.77248e-05
2.7914e-05
2.80922e-05
2.82597e-05
2.84168e-05
2.85639e-05
2.87017e-05
2.8831e-05
2.8953e-05
2.90693e-05
2.91815e-05
2.92954e-05
2.94209e-05
2.9544e-05
2.96644e-05
2.97817e-05
2.98965e-05
3.00096e-05
3.0123e-05
3.02374e-05
3.03528e-05
3.04695e-05
3.05876e-05
3.07068e-05
3.08271e-05
3.09482e-05
3.10698e-05
3.11919e-05
3.13141e-05
3.14363e-05
3.15587e-05
3.16811e-05
3.18036e-05
3.19265e-05
3.20481e-05
3.21514e-05
3.22471e-05
3.23398e-05
3.24353e-05
3.2535e-05
3.26388e-05
3.27468e-05
3.28587e-05
3.29743e-05
3.30935e-05
3.32157e-05
3.33408e-05
3.34684e-05
3.35981e-05
3.37296e-05
3.38626e-05
3.39966e-05
3.41315e-05
3.42668e-05
3.44024e-05
3.45375e-05
3.46723e-05
3.48058e-05
3.49382e-05
3.50688e-05
3.52016e-05
3.53405e-05
3.5487e-05
3.56438e-05
3.57713e-05
1.03511e-05
1.03512e-05
1.03512e-05
1.03512e-05
1.03512e-05
1.03512e-05
1.03513e-05
1.03513e-05
1.03513e-05
1.03513e-05
1.03514e-05
1.03514e-05
1.03514e-05
1.03812e-05
1.03835e-05
1.03861e-05
1.03888e-05
1.03917e-05
1.03949e-05
1.03983e-05
1.0402e-05
1.04059e-05
1.04103e-05
1.04149e-05
1.04199e-05
1.04254e-05
1.04312e-05
1.04375e-05
1.04444e-05
1.04517e-05
1.04597e-05
1.04682e-05
1.04774e-05
1.04873e-05
1.0498e-05
1.05095e-05
1.05219e-05
1.05352e-05
1.05496e-05
1.05652e-05
1.0582e-05
1.06002e-05
1.062e-05
1.06413e-05
1.06644e-05