/*--------------------------------*- C++ -*----------------------------------*\
| =========                 |                                                 |
| \\      /  F ield         | OpenFOAM: The Open Source CFD Toolbox           |
|  \\    /   O peration     | Version:  v1706                                 |
|   \\  /    A nd           | Web:      www.OpenFOAM.com                      |
|    \\/     M anipulation  |                                                 |
\*---------------------------------------------------------------------------*/
FoamFile
{
    version     2.0;
    format      ascii;
    class       volScalarField;
    location    "5e-06";
    object      p;
}
// * * * * * * * * * * * * * * * * * * * * * * * * * * * * * * * * * * * * * //

dimensions      [1 -1 -2 0 0 0 0];


internalField   nonuniform List<scalar> 
30104
(
21.9139
21.9139
21.9139
21.9139
21.9139
21.9139
21.9139
21.9139
21.9139
21.9139
21.9139
21.9139
21.9139
21.9139
21.9139
21.9139
21.9139
21.9139
21.9139
21.9139
21.9139
21.9139
21.9139
21.9139
21.9139
21.9139
21.9139
21.9139
21.9139
21.9139
21.9139
21.9139
21.9139
21.9139
21.9139
21.9139
21.9139
21.9139
21.9139
21.9139
21.9139
21.9139
21.9139
21.9139
21.9139
21.9139
21.9139
21.9139
21.9139
21.9139
21.9139
21.9139
21.9139
21.9139
21.9139
21.9139
21.9139
21.9139
21.9139
21.9139
21.9139
21.9139
21.9139
21.9139
21.9139
21.9139
21.9139
21.9139
21.9139
21.9139
21.9139
21.9139
21.9139
21.9139
21.9139
21.9139
21.9139
21.9139
21.9139
21.9139
21.9139
21.9139
21.9139
21.9139
21.9139
21.9139
21.9139
21.9139
21.9139
21.9139
21.9139
21.9139
21.9139
21.9139
21.9139
21.9139
21.9139
21.9139
21.9139
21.9139
21.9139
21.9139
21.9139
21.9139
21.9139
21.9139
21.9139
21.9139
21.9139
21.9139
21.9139
21.9139
21.9139
21.9139
21.9139
21.9139
21.9139
21.9139
21.9139
21.9139
21.9139
21.9139
21.9139
21.9139
21.9139
21.9139
21.9139
21.9139
21.9139
21.9139
21.9139
21.9139
21.9139
21.9139
21.9139
21.9139
21.9139
21.9139
21.9139
21.9139
21.9139
21.9139
21.9139
21.9139
21.9139
21.9139
21.9139
21.9139
21.9139
21.9139
21.9139
21.9139
21.9139
21.9139
21.9139
21.9139
21.9139
21.9139
21.9139
21.9139
21.9139
21.9139
21.9139
21.9139
21.9139
21.9139
21.9139
21.9139
21.9139
21.9139
21.9139
21.9139
21.9139
21.9139
21.9139
21.9139
21.9139
21.9139
21.9139
21.9139
21.9139
21.9139
21.9139
21.9139
21.9139
21.9139
21.9139
21.9139
21.9139
21.9139
21.9139
21.9139
21.9139
21.9139
21.9139
21.9139
21.9139
21.9139
21.9139
21.9139
21.9139
21.9139
21.9139
21.9139
21.9139
21.9139
21.9139
21.9139
21.9139
21.9139
21.9139
21.9139
21.9139
21.9139
21.9139
21.9139
21.9139
21.9139
21.9139
21.9139
21.9139
21.9139
21.9139
21.9139
21.9139
21.9139
21.9139
21.9139
21.9139
21.9139
21.9139
21.9139
21.9139
21.9139
21.9139
21.9139
21.9139
21.9139
21.9139
21.9139
21.9139
21.9139
21.9139
21.9139
21.9139
21.9139
21.9139
21.9139
21.9139
21.9139
21.9139
21.9139
21.9139
21.9139
21.9139
21.9139
21.9139
21.9139
21.9139
21.9139
21.9139
21.9139
21.9139
21.9139
21.9139
21.9139
21.9139
21.9139
21.9139
21.9139
21.9139
21.9139
21.9139
21.9139
21.9139
21.9139
21.9139
21.9139
21.9139
21.9139
21.9139
21.9139
21.9139
21.9139
21.9139
21.9139
21.9139
21.9139
21.9139
21.9139
21.9139
21.9139
21.9139
21.9139
21.9139
21.9139
21.9139
21.9139
21.9139
21.9139
21.9139
21.9139
21.9139
21.9139
21.9139
21.9139
21.9139
21.9139
21.9139
21.9139
21.9139
21.9139
21.9139
21.9139
21.9139
21.9139
21.9139
21.9139
21.9139
21.9139
21.9139
21.9139
21.9139
21.9139
21.9139
21.9139
21.9139
21.9139
21.9139
21.9139
21.9139
21.9139
21.9139
21.9139
21.9139
21.9139
21.9139
21.9139
21.9139
21.9139
21.9139
21.9139
21.9139
21.9139
21.9139
21.9139
21.9139
21.9139
21.9139
21.9139
21.9139
21.9139
21.9139
21.9139
21.9139
21.9139
21.9139
21.9139
21.9139
21.9139
21.9139
21.9139
21.9139
21.9139
21.9139
21.9139
21.9139
21.9139
21.9139
21.9139
21.9139
21.9139
21.9139
21.9139
21.9139
21.9139
21.9139
21.9139
21.9139
21.9139
21.9139
21.9139
21.9139
21.9139
21.9139
21.9139
21.9139
21.9139
21.9139
21.9139
21.9139
21.9139
21.9139
21.9139
21.9139
21.9139
21.9139
21.9139
21.9139
21.9139
21.9139
21.9139
21.9139
21.9139
21.9139
21.9139
21.9139
21.9139
21.9139
21.9139
21.9139
21.9139
21.9139
21.9139
21.9139
21.9139
21.9139
21.9139
21.9139
21.9139
21.9139
21.9139
21.9139
21.9139
21.9139
21.9139
21.9139
21.9139
21.9139
21.9139
21.9139
21.9139
21.9139
21.9139
21.9139
21.9139
21.9139
21.9139
21.9139
21.9139
21.9139
21.9139
21.9139
21.9139
21.9139
21.9139
21.9139
21.9139
21.9139
21.9139
21.9139
21.9139
21.9139
21.9139
21.9139
21.9139
21.9139
21.9139
21.9139
21.9139
21.9139
21.9139
21.9139
21.9139
21.9139
21.9139
21.9139
21.9139
21.9139
21.9139
21.9139
21.9139
21.9139
21.9139
21.9139
21.9139
21.9139
21.9139
21.9139
21.9139
21.9139
21.9139
21.9139
21.9139
21.9139
21.9139
21.9139
21.9139
21.9139
21.9139
21.9139
21.9139
21.9139
21.9139
21.9139
21.9139
21.9139
21.9139
21.9139
21.9139
21.9139
21.9139
21.9139
21.9139
21.9139
21.9139
21.9139
21.9139
21.9139
21.9139
21.9139
21.9139
21.9139
21.9139
21.9139
21.9139
21.9139
21.9139
21.9139
21.9139
21.9139
21.9139
21.9139
21.9139
21.9139
21.9139
21.9139
21.9139
21.9139
21.9139
21.9139
21.9139
21.9139
21.9139
21.9139
21.9139
21.9139
21.9139
21.9139
21.9139
21.9139
21.9139
21.9139
21.9139
21.9139
21.9139
21.9139
21.9139
21.9139
21.9139
21.9139
21.9139
21.9139
21.9139
21.9139
21.9139
21.9139
21.9139
21.9139
21.9139
21.9139
21.9139
21.9139
21.9139
21.9139
21.9139
21.9139
21.9139
21.9139
21.9139
21.9139
21.9139
21.9139
21.9139
21.9139
21.9139
21.9139
21.9139
21.9139
21.9139
21.9139
21.9139
21.9139
21.9139
21.9139
21.9139
21.9139
21.9139
21.9139
21.9139
21.9139
21.9139
21.9139
21.9139
21.9139
21.9139
21.9139
21.9139
21.9139
21.9139
21.9139
21.9139
21.9139
21.9139
21.9139
21.9139
21.914
21.914
21.914
21.914
21.914
21.914
21.914
21.914
21.914
21.914
21.914
21.914
21.914
21.914
21.914
21.914
21.914
21.914
21.914
21.914
21.914
21.914
21.914
21.9139
21.9139
21.9139
21.9139
21.9139
21.9139
21.9139
21.9139
21.9139
21.9139
21.9139
21.9139
21.9139
21.9139
21.9139
21.9139
21.9139
21.9139
21.9139
21.9139
21.9139
21.9139
21.9139
21.9139
21.9139
21.9139
21.9139
21.9139
21.9139
21.9139
21.9139
21.9139
21.9139
21.9139
21.9139
21.9139
21.9139
21.9139
21.9139
21.9139
21.9139
21.9139
21.9139
21.9139
21.9139
21.9139
21.9139
21.9139
21.9139
21.9139
21.9139
21.9139
21.9139
21.9139
21.9139
21.9139
21.9139
21.9139
21.9139
21.9139
21.9139
21.9139
21.9139
21.9139
21.9139
21.9139
21.9139
21.9139
21.9139
21.9139
21.9139
21.9139
21.9139
21.9139
21.9139
21.9139
21.9139
21.9139
21.9139
21.9139
21.9139
21.9139
21.9139
21.9139
21.9139
21.9139
21.9139
21.9139
21.9139
21.9139
21.9139
21.9139
21.9139
21.9139
21.9139
21.9139
21.9139
21.9139
21.9139
21.9139
21.9139
21.9139
21.9139
21.9139
21.9139
21.9139
21.9139
21.9139
21.9139
21.9139
21.9139
21.9139
21.9139
21.9139
21.9139
21.9139
21.9139
21.9139
21.9139
21.9139
21.9139
21.9139
21.9139
21.9139
21.9139
21.9139
21.9139
21.9139
21.9139
21.9139
21.9139
21.9139
21.9139
21.9139
21.9139
21.9139
21.9139
21.9139
21.9139
21.9139
21.9139
21.9139
21.9139
21.9139
21.9139
21.9139
21.9139
21.9139
21.9139
21.9139
21.914
21.914
21.914
21.914
21.914
21.914
21.914
21.914
21.914
21.914
21.914
21.914
21.914
21.914
21.914
21.914
21.914
21.914
21.914
21.9141
21.9141
21.9141
21.9141
21.9141
21.9141
21.9141
21.9141
21.9141
21.9142
21.9142
21.9142
21.9142
21.9142
21.9142
21.9143
21.9143
21.9143
21.9143
21.9143
21.9144
21.9144
21.9144
21.9145
21.9145
21.9145
21.9146
21.9146
21.9147
21.9147
21.9148
21.9149
21.9149
21.915
21.9151
21.9152
21.9153
21.9154
21.9155
21.9155
21.9139
21.9139
21.9139
21.9139
21.9139
21.9139
21.9139
21.9139
21.9139
21.9139
21.9139
21.9139
21.9139
21.9139
21.9139
21.9139
21.9139
21.9139
21.9139
21.9139
21.9139
21.9139
21.9139
21.9139
21.9139
21.9139
21.9139
21.9139
21.9139
21.9139
21.9139
21.9139
21.9139
21.9139
21.9139
21.9139
21.9139
21.9139
21.9139
21.9139
21.9139
21.9139
21.9139
21.9139
21.9139
21.9139
21.9139
21.9139
21.9139
21.9139
21.9139
21.9139
21.9139
21.9139
21.9139
21.9139
21.9139
21.9139
21.9139
21.9139
21.9139
21.9139
21.9139
21.9139
21.9139
21.9139
21.9139
21.9139
21.9139
21.9139
21.9139
21.9139
21.9139
21.9139
21.9139
21.9139
21.9139
21.9139
21.9139
21.9139
21.9139
21.9139
21.9139
21.9139
21.9139
21.9139
21.9139
21.9139
21.9139
21.9139
21.9139
21.9139
21.9139
21.9139
21.9139
21.9139
21.9139
21.9139
21.9139
21.9139
21.9139
21.9139
21.9139
21.9139
21.9139
21.9139
21.9139
21.9139
21.9139
21.9139
21.9139
21.9139
21.9139
21.9139
21.9139
21.9139
21.914
21.914
21.914
21.914
21.914
21.914
21.914
21.914
21.914
21.914
21.914
21.914
21.914
21.914
21.914
21.914
21.914
21.9141
21.9141
21.9141
21.9141
21.9141
21.9141
21.9141
21.9141
21.9142
21.9142
21.9142
21.9142
21.9142
21.9142
21.9143
21.9143
21.9143
21.9143
21.9144
21.9144
21.9144
21.9144
21.9145
21.9145
21.9145
21.9146
21.9146
21.9147
21.9147
21.9148
21.9148
21.9149
21.9149
21.915
21.9151
21.9152
21.9153
21.9153
21.9155
21.9156
21.9157
21.9158
21.916
21.9161
21.9163
21.9164
21.9166
21.9168
21.917
21.9172
21.9175
21.9177
21.9179
21.9182
21.9185
21.9187
21.919
21.9193
21.9196
21.92
21.9203
21.9207
21.921
21.9215
21.9219
21.9224
21.9229
21.9234
21.924
21.9246
21.9253
21.926
21.9267
21.9277
21.9276
21.9139
21.9139
21.9139
21.9139
21.9139
21.9139
21.9139
21.9139
21.9139
21.9139
21.9139
21.9139
21.9139
21.9139
21.9139
21.9139
21.9139
21.9139
21.9139
21.9139
21.9139
21.9139
21.9139
21.9139
21.9139
21.9139
21.9139
21.9139
21.9139
21.9139
21.9139
21.9139
21.9139
21.9139
21.9139
21.9139
21.9139
21.9139
21.9139
21.9139
21.9139
21.9139
21.9139
21.9139
21.9139
21.9139
21.9139
21.9139
21.9139
21.9139
21.9139
21.9139
21.9139
21.9139
21.9139
21.9139
21.9139
21.9139
21.9139
21.9139
21.9139
21.9139
21.9139
21.9139
21.9139
21.9139
21.9139
21.9139
21.9139
21.9139
21.9139
21.9139
21.9139
21.9139
21.9139
21.9139
21.9139
21.9139
21.9139
21.9139
21.9139
21.9139
21.9139
21.9139
21.9139
21.9139
21.914
21.914
21.914
21.914
21.914
21.914
21.914
21.914
21.914
21.914
21.914
21.914
21.914
21.914
21.914
21.914
21.914
21.9141
21.9141
21.9141
21.9141
21.9141
21.9141
21.9141
21.9141
21.9142
21.9142
21.9142
21.9142
21.9142
21.9143
21.9143
21.9143
21.9143
21.9144
21.9144
21.9144
21.9145
21.9145
21.9145
21.9146
21.9146
21.9147
21.9147
21.9148
21.9148
21.9149
21.9149
21.915
21.9151
21.9151
21.9152
21.9153
21.9154
21.9155
21.9156
21.9157
21.9158
21.916
21.9161
21.9163
21.9165
21.9166
21.9168
21.9171
21.9173
21.9175
21.9178
21.9181
21.9184
21.9187
21.9191
21.9194
21.9198
21.9202
21.9207
21.9211
21.9216
21.9221
21.9226
21.9232
21.9237
21.9243
21.925
21.9257
21.9264
21.9272
21.928
21.9289
21.9299
21.9309
21.932
21.9332
21.9344
21.9358
21.9372
21.9387
21.9403
21.942
21.9438
21.9456
21.9476
21.9497
21.9519
21.9543
21.9568
21.9594
21.9623
21.9653
21.9685
21.972
21.9757
21.9797
21.9841
21.9888
21.9939
21.9994
22.0054
22.012
22.0191
22.0266
22.0369
22.0389
21.9139
21.9139
21.9139
21.9139
21.9139
21.9139
21.9139
21.9139
21.9139
21.9139
21.9139
21.9139
21.9139
21.9139
21.9139
21.9139
21.9139
21.9139
21.9139
21.9139
21.9139
21.9139
21.9139
21.9139
21.9139
21.9139
21.9139
21.9139
21.9139
21.9139
21.9139
21.9139
21.9139
21.9139
21.9139
21.9139
21.9139
21.9139
21.9139
21.9139
21.9139
21.9139
21.9139
21.9139
21.9139
21.9139
21.9139
21.9139
21.9139
21.9139
21.9139
21.9139
21.9139
21.9139
21.914
21.914
21.914
21.914
21.914
21.914
21.914
21.914
21.914
21.914
21.914
21.914
21.914
21.914
21.914
21.914
21.914
21.9141
21.9141
21.9141
21.9141
21.9141
21.9141
21.9141
21.9141
21.9142
21.9142
21.9142
21.9142
21.9142
21.9143
21.9143
21.9143
21.9144
21.9144
21.9144
21.9145
21.9145
21.9145
21.9146
21.9146
21.9147
21.9147
21.9148
21.9148
21.9149
21.9149
21.915
21.9151
21.9152
21.9153
21.9153
21.9154
21.9155
21.9156
21.9158
21.9159
21.916
21.9162
21.9163
21.9165
21.9167
21.9168
21.9171
21.9173
21.9175
21.9178
21.9181
21.9184
21.9187
21.9191
21.9195
21.9199
21.9203
21.9208
21.9213
21.9219
21.9225
21.9231
21.9237
21.9244
21.9252
21.9259
21.9267
21.9276
21.9285
21.9295
21.9305
21.9316
21.9327
21.934
21.9353
21.9367
21.9382
21.9399
21.9416
21.9435
21.9455
21.9477
21.95
21.9525
21.9551
21.9578
21.9608
21.9639
21.9673
21.9708
21.9746
21.9786
21.9828
21.9874
21.9923
21.9975
22.0032
22.0093
22.0158
22.023
22.0307
22.0391
22.0482
22.0581
22.0688
22.0805
22.0932
22.1069
22.1218
22.1379
22.1554
22.1741
22.1943
22.2159
22.239
22.2636
22.2896
22.3172
22.3462
22.3765
22.4083
22.4414
22.4758
22.5115
22.5486
22.5873
22.6275
22.6696
22.7138
22.7606
22.8101
22.8634
22.9194
22.9904
23.0094
21.9139
21.9139
21.9139
21.9139
21.9139
21.9139
21.9139
21.9139
21.9139
21.9139
21.9139
21.9139
21.9139
21.9139
21.9139
21.9139
21.9139
21.9139
21.9139
21.9139
21.9139
21.9139
21.9139
21.9139
21.9139
21.9139
21.9139
21.914
21.914
21.914
21.914
21.914
21.914
21.914
21.914
21.914
21.914
21.914
21.914
21.914
21.914
21.914
21.914
21.914
21.9141
21.9141
21.9141
21.9141
21.9141
21.9141
21.9141
21.9141
21.9142
21.9142
21.9142
21.9142
21.9143
21.9143
21.9143
21.9143
21.9144
21.9144
21.9144
21.9145
21.9145
21.9146
21.9146
21.9147
21.9147
21.9148
21.9148
21.9149
21.915
21.915
21.9151
21.9152
21.9153
21.9154
21.9155
21.9156
21.9157
21.9158
21.9159
21.9161
21.9162
21.9164
21.9166
21.9167
21.9169
21.9172
21.9174
21.9176
21.9179
21.9182
21.9185
21.9188
21.9192
21.9195
21.92
21.9204
21.9209
21.9214
21.922
21.9226
21.9233
21.924
21.9247
21.9255
21.9264
21.9273
21.9283
21.9294
21.9305
21.9317
21.9329
21.9343
21.9357
21.9372
21.9388
21.9405
21.9423
21.9443
21.9464
21.9486
21.9511
21.9537
21.9564
21.9594
21.9627
21.9661
21.9698
21.9737
21.978
21.9824
21.9872
21.9923
21.9978
22.0036
22.0098
22.0164
22.0235
22.0311
22.0393
22.0482
22.0577
22.0681
22.0793
22.0914
22.1047
22.1191
22.1348
22.1518
22.1704
22.1905
22.2124
22.2361
22.2617
22.2894
22.3191
22.3511
22.3853
22.4217
22.4604
22.5014
22.5446
22.59
22.6377
22.6876
22.7398
22.7945
22.8517
22.9118
22.9752
23.0423
23.1137
23.19
23.272
23.3606
23.4565
23.5607
23.6742
23.7979
23.9327
24.0796
24.2395
24.4133
24.6017
24.8053
25.0249
25.2606
25.5128
25.7814
26.0666
26.3674
26.6845
27.0162
27.3644
27.7262
28.1061
28.5
28.917
29.3497
29.8157
30.3008
30.863
31.2574
21.9139
21.9139
21.9139
21.9139
21.9139
21.9139
21.9139
21.9139
21.9139
21.9139
21.9139
21.9139
21.9139
21.9139
21.914
21.914
21.914
21.914
21.914
21.9141
21.9141
21.9141
21.9141
21.9141
21.9141
21.9141
21.9142
21.9142
21.9142
21.9142
21.9142
21.9143
21.9143
21.9143
21.9143
21.9144
21.9144
21.9144
21.9145
21.9145
21.9146
21.9146
21.9147
21.9147
21.9148
21.9148
21.9149
21.915
21.9151
21.9151
21.9152
21.9153
21.9154
21.9155
21.9156
21.9158
21.9159
21.916
21.9162
21.9163
21.9165
21.9167
21.9169
21.9171
21.9173
21.9176
21.9178
21.9181
21.9184
21.9187
21.9191
21.9194
21.9198
21.9203
21.9207
21.9212
21.9218
21.9224
21.923
21.9237
21.9244
21.9252
21.9261
21.927
21.928
21.9291
21.9302
21.9315
21.9328
21.9342
21.9358
21.9374
21.9391
21.941
21.943
21.9451
21.9473
21.9497
21.9522
21.955
21.9579
21.9611
21.9644
21.9681
21.972
21.9762
21.9807
21.9856
21.9908
21.9964
22.0024
22.0088
22.0157
22.0231
22.031
22.0394
22.0484
22.0581
22.0685
22.0796
22.0917
22.1046
22.1186
22.1338
22.1503
22.1682
22.1876
22.2088
22.2319
22.2569
22.2842
22.3138
22.346
22.3808
22.4184
22.459
22.5027
22.5495
22.5994
22.6527
22.7092
22.7691
22.8323
22.8989
22.9691
23.0429
23.1207
23.2027
23.2896
23.3819
23.4804
23.5859
23.6996
23.8223
23.9555
24.1003
24.258
24.43
24.6176
24.822
25.0444
25.286
25.5478
25.8304
26.1345
26.4604
26.8082
27.178
27.5694
27.9823
28.4167
28.8726
29.3508
29.8528
30.3811
30.9392
31.5325
32.1676
32.8532
33.5996
34.4194
35.3275
36.3414
37.4815
38.7707
40.2362
41.907
43.8177
46.0033
48.5067
51.3662
54.6321
58.3385
62.5415
67.2563
72.5458
78.3823
84.8447
91.8311
99.4539
107.504
116.172
125.106
134.607
144.348
153.887
167.568
21.9139
21.9139
21.9139
21.9139
21.9139
21.9139
21.9139
21.9139
21.9139
21.9139
21.9139
21.9139
21.9139
21.9139
21.9145
21.9146
21.9146
21.9147
21.9147
21.9148
21.9148
21.9149
21.915
21.9151
21.9151
21.9152
21.9153
21.9154
21.9155
21.9157
21.9158
21.9159
21.9161
21.9162
21.9164
21.9166
21.9168
21.917
21.9172
21.9174
21.9177
21.9179
21.9182
21.9185
21.9189
21.9192
21.9196
21.92
21.9205
21.9209
21.9215
21.922
21.9226
21.9232
21.9239
21.9247
21.9255
21.9264
21.9273
21.9283
21.9294
21.9306
21.9319
21.9333
21.9348
21.9364
21.9381
21.94
21.942
21.9441
21.9464
21.9488
21.9515
21.9543
21.9573
21.9605
21.9639
21.9676
21.9716
21.9758
21.9804
21.9853
21.9905
21.9962
22.0023
22.0089
22.016
22.0236
22.0318
22.0406
22.0501
22.0602
22.0711
22.0828
22.0954
22.1088
22.1233
22.1389
22.1557
22.1738
22.1934
22.2146
22.2376
22.2626
22.2897
22.3193
22.3514
22.3864
22.4245
22.4659
22.5107
22.5593
22.6119
22.6686
22.7295
22.7949
22.8647
22.9393
23.0185
23.1026
23.1917
23.286
23.3857
23.4914
23.6034
23.7225
23.8495
23.9856
24.1318
24.2896
24.4604
24.6458
24.8474
25.0669
25.306
25.5663
25.8493
26.1563
26.4886
26.8471
27.2327
27.6457
28.0865
28.5554
29.0523
29.5777
30.1322
30.717
31.3344
31.9875
32.6812
33.4221
34.2188
35.0823
36.0262
37.0668
38.2233
39.5185
40.9787
42.6338
44.5181
46.6695
49.1304
51.9462
55.1653
58.8373
63.0114
67.7337
73.0448
78.9767
85.5496
92.7693
100.625
109.088
118.115
127.646
137.611
147.943
158.58
169.435
180.418
191.437
202.4
213.222
223.826
234.15
244.138
253.75
262.952
271.724
280.047
287.908
295.306
302.219
308.67
314.621
320.127
325.131
329.741
333.882
337.725
341.244
345.413
349.224
352.763
355.888
358.057
21.9139
21.9139
21.9139
21.9139
21.9139
21.9139
21.9139
21.9139
21.9139
21.914
21.914
21.914
21.914
21.914
21.9172
21.9175
21.9177
21.918
21.9183
21.9186
21.919
21.9193
21.9197
21.9201
21.9206
21.9211
21.9216
21.9222
21.9228
21.9234
21.9241
21.9249
21.9257
21.9266
21.9275
21.9286
21.9297
21.9308
21.9321
21.9335
21.935
21.9366
21.9384
21.9403
21.9423
21.9445
21.9469
21.9495
21.9522
21.9552
21.9583
21.9618
21.9654
21.9693
21.9735
21.9781
21.9829
21.9881
21.9937
21.9997
22.0061
22.0131
22.0205
22.0286
22.0373
22.0467
22.0568
22.0677
22.0794
22.092
22.1056
22.1202
22.1359
22.1528
22.171
22.1906
22.2116
22.2343
22.2589
22.2854
22.3141
22.3453
22.3791
22.4158
22.4558
22.4992
22.5465
22.5979
22.6538
22.7143
22.78
22.851
22.9275
23.0099
23.0983
23.193
23.2941
23.4019
23.5165
23.6384
23.7679
23.9056
24.0521
24.2084
24.3754
24.5547
24.7475
24.9557
25.1811
25.4257
25.6914
25.9804
26.2946
26.6361
27.0065
27.4075
27.8404
28.3063
28.8062
29.3407
29.9105
30.5161
31.1585
31.8391
32.5602
33.3251
34.1389
35.0084
35.9427
36.9538
38.0562
39.268
40.6105
42.1089
43.7921
45.6935
47.8504
50.3047
53.1022
56.292
59.9258
64.056
68.7339
74.0073
79.9171
86.4946
93.7584
101.712
110.339
119.607
129.464
139.84
150.652
161.809
173.235
184.846
196.543
208.226
219.796
231.16
242.236
252.955
263.26
273.104
282.451
291.269
299.536
307.234
314.351
320.878
326.818
332.181
336.99
341.282
345.111
348.541
351.716
355.39
358.789
361.791
364.421
366.728
368.765
370.599
372.323
373.993
375.651
377.338
379.082
380.898
382.796
384.771
386.826
388.939
391.115
393.314
395.556
397.776
400.029
402.215
404.429
406.454
407.413
407.753
407.917
408.228
407.187
21.914
21.914
21.914
21.914
21.914
21.9141
21.9141
21.9141
21.9141
21.9141
21.9142
21.9142
21.9142
21.9312
21.9325
21.9339
21.9354
21.937
21.9388
21.9407
21.9427
21.945
21.9474
21.95
21.9528
21.9558
21.959
21.9625
21.9663
21.9704
21.9748
21.9795
21.9846
21.99
21.9959
22.0021
22.0089
22.0162
22.024
22.0324
22.0414
22.0512
22.0617
22.0731
22.0853
22.0986
22.1128
22.1282
22.1448
22.1627
22.182
22.2028
22.2252
22.2493
22.2753
22.3033
22.3336
22.3662
22.4016
22.4398
22.4813
22.5263
22.5752
22.6284
22.6861
22.7489
22.8172
22.8913
22.9716
23.0587
23.1528
23.2543
23.3636
23.481
23.6068
23.7414
23.8851
24.0385
24.2019
24.3763
24.5623
24.7611
24.9741
25.2027
25.4489
25.7145
26.002
26.3135
26.6515
27.0185
27.4168
27.8488
28.3165
28.8217
29.366
29.951
30.5778
31.2475
31.9614
32.7211
33.5288
34.3878
35.3025
36.2793
37.3269
38.4564
39.682
41.0215
42.4963
44.1317
45.9574
48.0074
50.3202
52.9385
55.9096
59.2838
63.1143
67.4557
72.3614
77.8816
84.0605
90.9324
98.5194
106.827
115.844
125.538
135.857
146.729
158.068
169.775
181.743
193.882
206.104
218.303
230.372
242.211
253.723
264.828
275.458
285.556
295.076
303.979
312.237
319.828
326.743
332.982
338.557
343.496
347.842
351.659
355.019
358.006
360.87
364.127
367.018
369.57
371.813
373.797
375.586
377.272
378.924
380.575
382.261
384.006
385.821
387.71
389.667
391.682
393.744
395.837
397.941
400.045
402.131
404.183
406.195
408.088
408.87
409.192
409.392
409.589
409.854
410.205
410.659
411.224
411.896
412.668
413.527
414.457
415.437
416.442
417.448
418.43
419.357
420.208
420.945
421.558
421.994
422.263
422.291
422.113
421.66
421.163
420.799
420.644
420.996
419.114
21.9143
21.9144
21.9145
21.9145
21.9146
21.9147
21.9148
21.9149
21.9149
21.915
21.9151
21.9152
21.9154
22.0195
22.0276
22.0364
22.0459
22.0561
22.0671
22.0789
22.0917
22.1055
22.1203
22.1364
22.1537
22.1724
22.1926
22.2144
22.2379
22.2633
22.2906
22.3202
22.352
22.3864
22.4235
22.4635
22.5069
22.5537
22.6044
22.6594
22.7191
22.7839
22.8542
22.9306
23.0137
23.1038
23.2017
23.3077
23.4225
23.5465
23.6802
23.8242
23.9788
24.1447
24.3224
24.5124
24.7155
24.9326
25.1648
25.4135
25.68
25.9664
26.2748
26.6074
26.967
27.3562
27.7778
28.2347
28.7297
29.2653
29.8439
30.4678
31.139
31.8592
32.6303
33.4541
34.333
35.2701
36.2693
37.3364
38.479
39.7069
41.0333
42.4742
44.0497
45.7838
47.7048
49.8457
52.2437
54.941
57.9836
61.4216
65.3078
69.6969
74.6436
80.2002
86.4142
93.3251
100.961
109.337
118.449
128.273
138.767
149.866
161.486
173.529
185.886
198.44
211.081
223.72
236.252
248.564
260.55
272.108
283.152
293.61
303.422
312.538
320.923
328.554
335.42
341.53
346.908
351.595
355.654
359.166
362.224
364.917
367.391
370.256
372.839
375.131
377.163
378.976
380.642
382.25
383.85
385.472
387.142
388.874
390.672
392.533
394.446
396.399
398.374
400.356
402.328
404.267
406.161
407.998
409.592
410.146
410.466
410.709
410.991
411.363
411.835
412.42
413.11
413.896
414.764
415.694
416.664
417.649
418.621
419.553
420.416
421.181
421.818
422.299
422.595
422.681
422.534
422.164
421.714
421.43
421.357
421.425
421.584
421.819
422.106
422.425
422.756
423.081
423.383
423.647
423.859
424.013
424.098
424.119
424.068
423.963
423.799
423.614
423.397
423.213
423.034
422.97
422.947
423.124
423.301
423.517
424.35
420.731
21.9162
21.9165
21.9169
21.9172
21.9176
21.9179
21.9183
21.9188
21.9192
21.9196
21.9201
21.9206
22.4506
22.493
22.5389
22.5883
22.6418
22.6996
22.7622
22.8299
22.9033
22.9829
23.0693
23.163
23.2647
23.3751
23.4948
23.6245
23.765
23.9168
24.0806
24.2571
24.447
24.651
24.8698
25.1042
25.3553
25.6241
25.912
26.2207
26.552
26.9082
27.2917
27.7053
28.1519
28.6347
29.1569
29.7216
30.332
30.9911
31.7015
32.466
33.287
34.1669
35.1084
36.1147
37.1895
38.338
39.567
40.8852
42.3041
43.8384
45.5059
47.3289
49.3334
51.5504
54.0151
56.7674
59.8515
63.3155
67.2108
71.5908
76.5096
82.0202
88.1719
95.0082
102.563
110.859
119.902
129.68
140.163
151.297
163.009
175.207
187.783
200.622
213.599
226.592
239.496
252.211
264.617
276.6
288.056
298.891
309.03
318.412
326.993
334.747
341.665
347.759
353.062
357.626
361.527
364.861
367.734
370.245
372.496
374.908
377.299
379.432
381.349
383.079
384.68
386.237
387.799
389.388
391.026
392.723
394.476
396.28
398.121
399.981
401.844
403.692
405.498
407.247
408.917
410.459
411.104
411.473
411.769
412.089
412.501
413.018
413.64
414.359
415.163
416.035
416.954
417.896
418.834
419.741
420.589
421.347
421.987
422.479
422.796
422.911
422.817
422.528
422.22
422.082
422.128
422.286
422.517
422.803
423.119
423.443
423.755
424.036
424.268
424.438
424.537
424.558
424.499
424.366
424.167
423.917
423.637
423.354
423.099
422.909
422.822
422.853
422.973
423.135
423.306
423.472
423.624
423.755
423.858
423.931
423.972
423.982
423.965
423.924
423.866
423.794
423.72
423.641
423.573
423.506
423.46
423.411
423.385
423.335
423.307
423.196
423.13
422.872
422.617
422.982
415.7
21.9248
21.9261
21.9275
21.9291
21.9307
21.9324
21.9342
21.9361
21.938
21.9399
24.6146
24.8336
25.0692
25.3223
25.5939
25.8852
26.1973
26.5319
26.8904
27.2751
27.6882
28.1324
28.6105
29.1258
29.6817
30.2817
30.9294
31.6283
32.3819
33.1936
34.0665
35.0038
36.0086
37.0844
38.2353
39.4661
40.7833
42.1949
43.7113
45.3459
47.1151
49.0392
51.1425
53.4536
56.0056
58.8361
61.9869
65.5039
69.4359
73.8344
78.7517
84.24
90.3486
97.1221
104.598
112.802
121.749
131.436
141.842
152.926
164.627
176.863
189.532
202.521
215.707
228.959
242.148
255.152
267.868
280.175
291.952
303.093
313.504
323.113
331.867
339.736
346.713
352.811
358.072
362.555
366.346
369.549
372.283
374.654
376.765
378.774
381.005
383.008
384.821
386.483
388.031
389.534
391.046
392.592
394.184
395.829
397.524
399.257
401.012
402.772
404.517
406.218
407.857
409.4
410.838
411.794
412.257
412.633
412.989
413.421
413.955
414.59
415.316
416.116
416.975
417.87
418.775
419.663
420.506
421.273
421.936
422.467
422.838
423.027
423.038
422.867
422.629
422.521
422.585
422.766
423.016
423.311
423.63
423.95
424.252
424.517
424.73
424.878
424.953
424.952
424.876
424.733
424.534
424.3
424.056
423.833
423.666
423.588
423.608
423.691
423.793
423.884
423.956
424.001
424.015
423.994
423.939
423.853
423.742
423.614
423.477
423.342
423.22
423.12
423.052
423.022
423.034
423.087
423.178
423.295
423.422
423.54
423.633
423.694
423.723
423.716
423.672
423.59
423.472
423.316
423.127
422.903
422.649
422.364
422.05
421.706
421.334
420.931
420.498
420.029
419.53
418.989
418.425
417.81
417.194
416.524
415.905
415.177
414.469
413.404
404.232
21.9693
21.9756
21.9823
21.9895
21.9969
22.0047
22.0128
22.0211
22.0295
35.1178
36.1269
37.2093
38.369
39.6104
40.9386
42.3601
43.8827
45.5164
47.2739
49.171
51.2267
53.4643
55.911
58.5981
61.5616
64.8413
68.4808
72.5268
77.0282
82.0351
87.5969
93.7612
100.571
108.064
116.268
125.2
134.861
145.237
156.297
167.987
180.233
192.943
206.007
219.302
232.698
246.058
259.246
272.131
284.603
296.54
307.822
318.347
328.034
336.823
344.684
351.608
357.618
362.759
367.101
370.738
373.784
376.363
378.588
380.565
382.382
384.351
386.22
387.913
389.489
390.98
392.431
393.893
395.391
396.935
398.529
400.164
401.824
403.494
405.152
406.767
408.316
409.762
411.086
412.254
412.822
413.272
413.687
414.13
414.666
415.299
416.018
416.806
417.644
418.509
419.375
420.213
420.995
421.691
422.275
422.719
423.003
423.136
423.112
422.955
422.852
422.892
423.066
423.316
423.61
423.925
424.242
424.539
424.798
425.005
425.148
425.221
425.221
425.152
425.025
424.855
424.665
424.485
424.345
424.276
424.294
424.375
424.476
424.564
424.625
424.653
424.643
424.593
424.503
424.378
424.223
424.048
423.864
423.681
423.512
423.367
423.255
423.181
423.148
423.152
423.185
423.233
423.277
423.307
423.322
423.322
423.311
423.29
423.263
423.234
423.204
423.178
423.155
423.139
423.127
423.118
423.108
423.093
423.067
423.022
422.95
422.845
422.698
422.504
422.261
421.968
421.629
421.246
420.824
420.367
419.877
419.36
418.822
418.266
417.7
417.129
416.561
416
415.454
414.928
414.428
413.963
413.533
413.154
412.817
412.551
412.33
412.204
412.139
412.179
412.292
412.44
412.265
410.935
401.664
22.1603
22.1877
77.0418
81.783
87.0278
92.8224
99.2104
106.231
113.919
122.298
131.383
141.175
151.661
162.81
174.572
186.879
199.642
212.753
226.091
239.525
252.916
266.123
279.004
291.431
303.292
314.464
324.841
334.342
342.91
350.518
357.167
362.885
367.73
371.782
375.147
377.945
380.307
382.343
384.161
385.836
387.589
389.295
390.851
392.319
393.739
395.141
396.561
398.023
399.531
401.08
402.656
404.246
405.825
407.361
408.827
410.186
411.41
412.534
413.252
413.754
414.235
414.711
415.252
415.886
416.6
417.376
418.193
419.027
419.851
420.636
421.353
421.975
422.477
422.839
423.073
423.177
423.138
423.063
423.082
423.226
423.464
423.748
424.054
424.36
424.646
424.896
425.094
425.23
425.299
425.3
425.24
425.131
424.993
424.851
424.732
424.662
424.668
424.744
424.859
424.972
425.062
425.121
425.143
425.126
425.069
424.977
424.855
424.711
424.556
424.399
424.252
424.124
424.022
423.949
423.904
423.88
423.866
423.845
423.803
423.739
423.655
423.556
423.445
423.33
423.216
423.108
423.013
422.936
422.879
422.845
422.834
422.843
422.869
422.907
422.95
422.991
423.023
423.039
423.036
423.012
422.969
422.908
422.828
422.73
422.612
422.474
422.316
422.134
421.927
421.694
421.433
421.141
420.818
420.463
420.076
419.659
419.214
418.745
418.258
417.76
417.26
416.766
416.288
415.833
415.41
415.024
414.683
414.389
414.148
413.961
413.833
413.763
413.752
413.801
413.906
414.067
414.277
414.538
414.839
415.179
415.552
415.952
416.384
416.826
417.315
417.791
418.348
418.823
419.154
418.612
416.464
405.103
250.829
264.115
277.151
289.794
301.907
313.378
324.096
333.958
342.896
350.868
357.863
363.9
369.025
373.311
376.856
379.778
382.208
384.268
386.066
387.698
389.219
390.832
392.355
393.765
395.13
396.485
397.85
399.249
400.69
402.17
403.677
405.196
406.7
408.155
409.529
410.783
411.9
412.915
413.652
414.181
414.707
415.234
415.801
416.449
417.168
417.939
418.737
419.535
420.307
421.023
421.658
422.186
422.592
422.891
423.083
423.154
423.14
423.173
423.3
423.523
423.801
424.099
424.395
424.67
424.907
425.093
425.218
425.28
425.28
425.227
425.136
425.03
424.93
424.858
424.84
424.89
424.99
425.108
425.211
425.286
425.327
425.332
425.302
425.239
425.149
425.042
424.925
424.811
424.709
424.626
424.569
424.537
424.528
424.531
424.533
424.517
424.476
424.408
424.318
424.21
424.088
423.958
423.827
423.7
423.581
423.476
423.386
423.312
423.253
423.208
423.171
423.138
423.105
423.067
423.023
422.972
422.919
422.866
422.816
422.772
422.733
422.701
422.674
422.652
422.631
422.608
422.579
422.541
422.488
422.416
422.32
422.199
422.048
421.868
421.657
421.418
421.152
420.863
420.552
420.222
419.877
419.519
419.152
418.779
418.403
418.03
417.663
417.306
416.966
416.646
416.351
416.087
415.857
415.667
415.518
415.415
415.359
415.351
415.392
415.48
415.613
415.787
415.997
416.239
416.506
416.795
417.099
417.414
417.734
418.051
418.362
418.655
418.93
419.165
419.36
419.502
419.581
419.598
419.53
419.431
419.267
419.102
418.868
418.667
418.443
417.988
417.411
415.408
411.68
398.795
386.572
388.281
389.822
391.252
392.68
394.113
395.445