/*--------------------------------*- C++ -*----------------------------------*\
| =========                 |                                                 |
| \\      /  F ield         | OpenFOAM: The Open Source CFD Toolbox           |
|  \\    /   O peration     | Version:  v1706                                 |
|   \\  /    A nd           | Web:      www.OpenFOAM.com                      |
|    \\/     M anipulation  |                                                 |
\*---------------------------------------------------------------------------*/
FoamFile
{
    version     2.0;
    format      ascii;
    class       volScalarField;
    location    "5e-06";
    object      rho;
}
// * * * * * * * * * * * * * * * * * * * * * * * * * * * * * * * * * * * * * //

dimensions      [1 -3 0 0 0 0 0];


internalField   nonuniform List<scalar> 
30104
(
0.000511309
0.000511309
0.000511309
0.000511309
0.000511309
0.000511309
0.000511309
0.000511309
0.000511309
0.000511309
0.000511309
0.000511309
0.000511309
0.000511309
0.000511309
0.000511309
0.000511309
0.000511309
0.000511309
0.000511309
0.000511309
0.000511309
0.000511309
0.000511309
0.000511309
0.000511309
0.000511309
0.000511309
0.000511309
0.000511309
0.000511309
0.000511309
0.000511309
0.000511309
0.000511309
0.000511309
0.000511309
0.000511309
0.000511309
0.000511309
0.000511309
0.000511309
0.000511309
0.000511309
0.000511309
0.000511309
0.000511309
0.000511309
0.000511309
0.000511309
0.000511309
0.000511309
0.000511309
0.000511309
0.000511309
0.000511309
0.000511309
0.000511309
0.000511309
0.000511309
0.000511309
0.000511309
0.000511309
0.000511309
0.000511309
0.000511309
0.000511309
0.000511309
0.000511309
0.000511309
0.000511309
0.000511309
0.000511309
0.000511309
0.000511309
0.000511309
0.000511309
0.000511309
0.000511309
0.000511309
0.000511309
0.000511309
0.000511309
0.000511309
0.000511309
0.000511309
0.000511309
0.000511309
0.000511309
0.000511309
0.000511309
0.000511309
0.000511309
0.000511309
0.000511309
0.000511309
0.000511309
0.000511309
0.000511309
0.000511309
0.000511309
0.000511309
0.000511309
0.000511309
0.000511309
0.000511309
0.000511309
0.000511309
0.000511309
0.000511309
0.000511309
0.000511309
0.000511309
0.000511309
0.000511309
0.000511309
0.000511309
0.000511309
0.000511309
0.000511309
0.000511309
0.000511309
0.000511309
0.000511309
0.000511309
0.000511309
0.000511309
0.000511309
0.000511309
0.000511309
0.000511309
0.000511309
0.000511309
0.000511309
0.000511309
0.000511309
0.000511309
0.000511309
0.000511309
0.000511309
0.000511309
0.000511309
0.000511309
0.000511309
0.000511309
0.000511309
0.000511309
0.000511309
0.000511309
0.000511309
0.000511309
0.000511309
0.000511309
0.000511309
0.000511309
0.000511309
0.000511309
0.000511309
0.000511309
0.000511309
0.000511309
0.000511309
0.000511309
0.000511309
0.000511309
0.000511309
0.000511309
0.000511309
0.000511309
0.000511309
0.000511309
0.000511309
0.000511309
0.000511309
0.000511309
0.000511309
0.000511309
0.000511309
0.000511309
0.000511309
0.000511309
0.000511309
0.000511309
0.000511309
0.000511309
0.000511309
0.000511309
0.000511309
0.000511309
0.000511309
0.000511309
0.000511309
0.000511309
0.000511309
0.000511309
0.000511309
0.000511309
0.000511309
0.000511309
0.000511309
0.000511309
0.000511309
0.000511309
0.000511309
0.000511309
0.000511309
0.000511309
0.000511309
0.000511309
0.000511309
0.000511309
0.000511309
0.000511309
0.000511309
0.000511309
0.000511309
0.000511309
0.000511309
0.000511309
0.000511309
0.000511309
0.000511309
0.000511309
0.000511309
0.000511309
0.000511309
0.000511309
0.000511309
0.000511309
0.000511309
0.000511309
0.000511309
0.000511309
0.000511309
0.000511309
0.000511309
0.000511309
0.000511309
0.000511309
0.000511309
0.000511309
0.000511309
0.000511309
0.000511309
0.000511309
0.000511309
0.000511309
0.000511309
0.000511309
0.000511309
0.000511309
0.000511309
0.000511309
0.000511309
0.000511309
0.000511309
0.000511309
0.000511309
0.000511309
0.000511309
0.000511309
0.000511309
0.000511309
0.000511309
0.000511309
0.000511309
0.000511309
0.000511309
0.000511309
0.000511309
0.000511309
0.000511309
0.000511309
0.000511309
0.000511309
0.000511309
0.000511309
0.000511309
0.000511309
0.000511309
0.000511309
0.000511309
0.000511309
0.000511309
0.000511309
0.000511309
0.000511309
0.000511309
0.000511309
0.000511309
0.000511309
0.000511309
0.000511309
0.000511309
0.000511309
0.000511309
0.000511309
0.000511309
0.000511309
0.000511309
0.000511309
0.000511309
0.000511309
0.000511309
0.000511309
0.000511309
0.000511309
0.000511309
0.000511309
0.000511309
0.000511309
0.000511309
0.000511309
0.000511309
0.000511309
0.000511309
0.000511309
0.000511309
0.000511309
0.000511309
0.000511309
0.000511309
0.000511309
0.000511309
0.000511309
0.000511309
0.000511309
0.000511309
0.000511309
0.000511309
0.000511309
0.000511309
0.000511309
0.000511309
0.000511309
0.000511309
0.000511309
0.000511309
0.000511309
0.000511309
0.000511309
0.000511309
0.000511309
0.000511309
0.000511309
0.000511309
0.000511309
0.000511309
0.000511309
0.000511309
0.000511309
0.000511309
0.000511309
0.000511309
0.000511309
0.000511309
0.000511309
0.000511309
0.000511309
0.000511309
0.000511309
0.000511309
0.000511309
0.000511309
0.000511309
0.000511309
0.000511309
0.000511309
0.000511309
0.000511309
0.000511309
0.000511309
0.000511309
0.000511309
0.000511309
0.000511309
0.000511309
0.000511309
0.000511309
0.000511309
0.000511309
0.000511309
0.000511309
0.000511309
0.000511309
0.000511309
0.000511309
0.000511309
0.000511309
0.000511309
0.000511309
0.000511309
0.000511309
0.000511309
0.000511309
0.000511309
0.000511309
0.000511309
0.000511309
0.000511309
0.000511309
0.000511309
0.000511309
0.000511309
0.000511309
0.000511309
0.000511309
0.000511309
0.000511309
0.000511309
0.000511309
0.000511309
0.000511309
0.000511309
0.000511309
0.000511309
0.000511309
0.000511309
0.000511309
0.000511309
0.000511309
0.000511309
0.000511309
0.000511309
0.000511309
0.000511309
0.000511309
0.000511309
0.000511309
0.000511309
0.000511309
0.000511309
0.000511309
0.000511309
0.000511309
0.000511309
0.000511309
0.000511309
0.000511309
0.000511309
0.000511309
0.000511309
0.000511309
0.000511309
0.000511309
0.000511309
0.000511309
0.000511309
0.000511309
0.000511309
0.000511309
0.000511309
0.000511309
0.000511309
0.000511309
0.000511309
0.000511309
0.000511309
0.000511309
0.000511309
0.000511309
0.000511309
0.000511309
0.000511309
0.000511309
0.000511309
0.000511309
0.000511309
0.000511309
0.000511309
0.000511309
0.000511309
0.000511309
0.000511309
0.000511309
0.000511309
0.000511309
0.000511309
0.000511309
0.000511309
0.000511309
0.000511309
0.000511309
0.000511309
0.000511309
0.000511309
0.000511309
0.000511309
0.000511309
0.000511309
0.000511309
0.000511309
0.000511309
0.000511309
0.000511309
0.000511309
0.000511309
0.000511309
0.000511309
0.000511309
0.000511309
0.000511309
0.000511309
0.000511309
0.000511309
0.000511309
0.000511309
0.000511309
0.000511309
0.000511309
0.000511309
0.000511309
0.000511309
0.000511309
0.000511309
0.000511309
0.000511309
0.000511309
0.000511309
0.000511309
0.000511309
0.000511309
0.000511309
0.000511309
0.000511309
0.000511309
0.000511309
0.000511309
0.000511309
0.000511309
0.000511309
0.000511309
0.000511309
0.000511309
0.000511309
0.000511309
0.000511309
0.000511309
0.000511309
0.000511309
0.000511309
0.000511309
0.000511309
0.000511309
0.000511309
0.000511309
0.000511309
0.000511309
0.000511309
0.000511309
0.000511309
0.000511309
0.000511309
0.000511309
0.000511309
0.000511309
0.000511309
0.000511309
0.000511309
0.000511309
0.000511309
0.000511309
0.000511309
0.000511309
0.000511309
0.000511309
0.000511309
0.000511309
0.000511309
0.000511309
0.000511309
0.000511309
0.000511309
0.000511309
0.000511309
0.000511309
0.000511309
0.000511309
0.000511309
0.000511309
0.000511309
0.000511309
0.000511309
0.000511309
0.000511309
0.000511309
0.000511309
0.000511309
0.000511309
0.000511309
0.000511309
0.000511309
0.000511309
0.000511309
0.000511309
0.00051131
0.00051131
0.00051131
0.00051131
0.00051131
0.00051131
0.00051131
0.00051131
0.00051131
0.00051131
0.00051131
0.00051131
0.00051131
0.00051131
0.00051131
0.00051131
0.00051131
0.00051131
0.00051131
0.00051131
0.00051131
0.00051131
0.00051131
0.00051131
0.00051131
0.00051131
0.00051131
0.00051131
0.00051131
0.00051131
0.00051131
0.00051131
0.00051131
0.00051131
0.000511309
0.000511309
0.000511309
0.000511309
0.000511309
0.000511309
0.000511309
0.000511309
0.000511309
0.000511309
0.000511309
0.000511309
0.000511309
0.000511309
0.000511309
0.000511309
0.000511309
0.000511309
0.000511309
0.000511309
0.000511309
0.000511309
0.000511309
0.000511309
0.000511309
0.000511309
0.000511309
0.000511309
0.000511309
0.000511309
0.000511309
0.000511309
0.000511309
0.000511309
0.000511309
0.000511309
0.000511309
0.000511309
0.000511309
0.000511309
0.000511309
0.000511309
0.000511309
0.000511309
0.000511309
0.000511309
0.000511309
0.000511309
0.000511309
0.000511309
0.000511309
0.000511309
0.000511309
0.000511309
0.000511309
0.000511309
0.000511309
0.000511309
0.000511309
0.000511309
0.000511309
0.000511309
0.000511309
0.000511309
0.000511309
0.000511309
0.000511309
0.000511309
0.000511309
0.000511309
0.000511309
0.000511309
0.000511309
0.000511309
0.000511309
0.000511309
0.000511309
0.000511309
0.000511309
0.000511309
0.000511309
0.000511309
0.000511309
0.000511309
0.000511309
0.000511309
0.000511309
0.000511309
0.000511309
0.000511309
0.000511309
0.000511309
0.000511309
0.000511309
0.000511309
0.000511309
0.000511309
0.000511309
0.000511309
0.000511309
0.000511309
0.000511309
0.000511309
0.000511309
0.000511309
0.000511309
0.000511309
0.000511309
0.000511309
0.000511309
0.000511309
0.000511309
0.000511309
0.000511309
0.000511309
0.000511309
0.000511309
0.000511309
0.000511309
0.000511309
0.000511309
0.000511309
0.000511309
0.000511309
0.000511309
0.000511309
0.000511309
0.000511309
0.000511309
0.000511309
0.000511309
0.000511309
0.000511309
0.000511309
0.000511309
0.000511309
0.000511309
0.000511309
0.000511309
0.000511309
0.000511309
0.000511309
0.00051131
0.00051131
0.00051131
0.00051131
0.00051131
0.00051131
0.00051131
0.00051131
0.00051131
0.00051131
0.00051131
0.00051131
0.00051131
0.00051131
0.00051131
0.00051131
0.00051131
0.00051131
0.00051131
0.00051131
0.00051131
0.00051131
0.00051131
0.00051131
0.00051131
0.00051131
0.00051131
0.00051131
0.00051131
0.00051131
0.00051131
0.00051131
0.00051131
0.00051131
0.00051131
0.000511311
0.000511311
0.000511311
0.000511311
0.000511311
0.000511311
0.000511311
0.000511311
0.000511311
0.000511311
0.000511311
0.000511311
0.000511311
0.000511311
0.000511312
0.000511312
0.000511312
0.000511312
0.000511312
0.000511313
0.000511313
0.000511313
0.000511314
0.000511314
0.000511315
0.000511315
0.000511316
0.000511316
0.000511317
0.000511318
0.000511318
0.000511319
0.000511309
0.000511309
0.000511309
0.000511309
0.000511309
0.000511309
0.000511309
0.000511309
0.000511309
0.000511309
0.000511309
0.000511309
0.000511309
0.000511309
0.000511309
0.000511309
0.000511309
0.000511309
0.000511309
0.000511309
0.000511309
0.000511309
0.000511309
0.000511309
0.000511309
0.000511309
0.000511309
0.000511309
0.000511309
0.000511309
0.000511309
0.000511309
0.000511309
0.000511309
0.000511309
0.000511309
0.000511309
0.000511309
0.000511309
0.000511309
0.000511309
0.000511309
0.000511309
0.000511309
0.000511309
0.000511309
0.000511309
0.000511309
0.000511309
0.000511309
0.000511309
0.000511309
0.000511309
0.000511309
0.000511309
0.000511309
0.000511309
0.000511309
0.000511309
0.000511309
0.000511309
0.000511309
0.000511309
0.000511309
0.000511309
0.000511309
0.000511309
0.000511309
0.000511309
0.000511309
0.000511309
0.000511309
0.000511309
0.000511309
0.000511309
0.000511309
0.000511309
0.000511309
0.000511309
0.000511309
0.000511309
0.000511309
0.000511309
0.000511309
0.000511309
0.000511309
0.000511309
0.000511309
0.000511309
0.000511309
0.000511309
0.000511309
0.000511309
0.000511309
0.000511309
0.000511309
0.000511309
0.000511309
0.000511309
0.000511309
0.000511309
0.000511309
0.000511309
0.000511309
0.000511309
0.000511309
0.000511309
0.000511309
0.000511309
0.000511309
0.00051131
0.00051131
0.00051131
0.00051131
0.00051131
0.00051131
0.00051131
0.00051131
0.00051131
0.00051131
0.00051131
0.00051131
0.00051131
0.00051131
0.00051131
0.00051131
0.00051131
0.00051131
0.00051131
0.00051131
0.00051131
0.00051131
0.00051131
0.00051131
0.00051131
0.00051131
0.00051131
0.00051131
0.000511311
0.000511311
0.000511311
0.000511311
0.000511311
0.000511311
0.000511311
0.000511311
0.000511311
0.000511311
0.000511311
0.000511311
0.000511311
0.000511312
0.000511312
0.000511312
0.000511312
0.000511312
0.000511312
0.000511312
0.000511312
0.000511313
0.000511313
0.000511313
0.000511313
0.000511313
0.000511314
0.000511314
0.000511314
0.000511315
0.000511315
0.000511316
0.000511316
0.000511317
0.000511318
0.000511318
0.000511319
0.00051132
0.000511321
0.000511322
0.000511323
0.000511324
0.000511326
0.000511327
0.000511329
0.00051133
0.000511332
0.000511333
0.000511335
0.000511336
0.000511338
0.000511339
0.000511341
0.000511342
0.000511344
0.000511345
0.000511347
0.000511348
0.00051135
0.000511352
0.000511354
0.000511356
0.000511358
0.000511361
0.000511363
0.000511366
0.000511369
0.000511372
0.000511375
0.000511378
0.000511309
0.000511309
0.000511309
0.000511309
0.000511309
0.000511309
0.000511309
0.000511309
0.000511309
0.000511309
0.000511309
0.000511309
0.000511309
0.000511309
0.000511309
0.000511309
0.000511309
0.000511309
0.000511309
0.000511309
0.000511309
0.000511309
0.000511309
0.000511309
0.000511309
0.000511309
0.000511309
0.000511309
0.000511309
0.000511309
0.000511309
0.000511309
0.000511309
0.000511309
0.000511309
0.000511309
0.000511309
0.000511309
0.000511309
0.000511309
0.000511309
0.000511309
0.000511309
0.000511309
0.000511309
0.000511309
0.000511309
0.000511309
0.000511309
0.000511309
0.000511309
0.000511309
0.000511309
0.000511309
0.000511309
0.000511309
0.000511309
0.000511309
0.000511309
0.000511309
0.000511309
0.000511309
0.000511309
0.000511309
0.000511309
0.000511309
0.000511309
0.000511309
0.000511309
0.000511309
0.000511309
0.000511309
0.000511309
0.000511309
0.000511309
0.000511309
0.000511309
0.000511309
0.00051131
0.00051131
0.00051131
0.00051131
0.00051131
0.00051131
0.00051131
0.00051131
0.00051131
0.00051131
0.00051131
0.00051131
0.00051131
0.00051131
0.00051131
0.00051131
0.00051131
0.00051131
0.00051131
0.00051131
0.00051131
0.00051131
0.00051131
0.00051131
0.00051131
0.00051131
0.00051131
0.00051131
0.00051131
0.00051131
0.000511311
0.000511311
0.000511311
0.000511311
0.000511311
0.000511311
0.000511311
0.000511311
0.000511311
0.000511311
0.000511312
0.000511312
0.000511312
0.000511312
0.000511312
0.000511312
0.000511312
0.000511313
0.000511313
0.000511313
0.000511313
0.000511313
0.000511313
0.000511314
0.000511314
0.000511314
0.000511314
0.000511315
0.000511315
0.000511315
0.000511316
0.000511316
0.000511317
0.000511317
0.000511318
0.000511318
0.000511319
0.00051132
0.000511321
0.000511322
0.000511323
0.000511324
0.000511325
0.000511327
0.000511328
0.00051133
0.000511332
0.000511334
0.000511336
0.000511338
0.00051134
0.000511343
0.000511345
0.000511348
0.00051135
0.000511353
0.000511356
0.000511358
0.000511361
0.000511364
0.000511366
0.000511369
0.000511372
0.000511375
0.000511379
0.000511382
0.000511386
0.00051139
0.000511395
0.000511399
0.000511404
0.000511409
0.000511414
0.00051142
0.000511426
0.000511431
0.000511438
0.000511444
0.00051145
0.000511457
0.000511464
0.000511472
0.00051148
0.000511489
0.000511498
0.000511509
0.00051152
0.000511533
0.000511548
0.000511564
0.000511583
0.000511604
0.000511627
0.000511653
0.000511683
0.000511715
0.00051175
0.00051179
0.000511832
0.00051188
0.000511945
0.000511309
0.000511309
0.000511309
0.000511309
0.000511309
0.000511309
0.000511309
0.000511309
0.000511309
0.000511309
0.000511309
0.000511309
0.000511309
0.000511309
0.000511309
0.000511309
0.000511309
0.000511309
0.000511309
0.000511309
0.000511309
0.000511309
0.000511309
0.000511309
0.000511309
0.000511309
0.000511309
0.000511309
0.000511309
0.000511309
0.000511309
0.000511309
0.000511309
0.000511309
0.000511309
0.000511309
0.000511309
0.000511309
0.000511309
0.000511309
0.000511309
0.000511309
0.000511309
0.000511309
0.000511309
0.000511309
0.00051131
0.00051131
0.00051131
0.00051131
0.00051131
0.00051131
0.00051131
0.00051131
0.00051131
0.00051131
0.00051131
0.00051131
0.00051131
0.00051131
0.00051131
0.00051131
0.00051131
0.00051131
0.00051131
0.00051131
0.00051131
0.00051131
0.00051131
0.00051131
0.00051131
0.00051131
0.00051131
0.00051131
0.00051131
0.00051131
0.00051131
0.000511311
0.000511311
0.000511311
0.000511311
0.000511311
0.000511311
0.000511311
0.000511311
0.000511311
0.000511312
0.000511312
0.000511312
0.000511312
0.000511312
0.000511312
0.000511313
0.000511313
0.000511313
0.000511313
0.000511314
0.000511314
0.000511314
0.000511314
0.000511315
0.000511315
0.000511315
0.000511316
0.000511316
0.000511316
0.000511317
0.000511317
0.000511318
0.000511318
0.000511319
0.000511319
0.00051132
0.00051132
0.000511321
0.000511322
0.000511323
0.000511324
0.000511325
0.000511326
0.000511328
0.000511329
0.000511331
0.000511333
0.000511335
0.000511337
0.00051134
0.000511342
0.000511345
0.000511348
0.000511351
0.000511355
0.000511359
0.000511362
0.000511366
0.00051137
0.000511375
0.000511379
0.000511383
0.000511388
0.000511392
0.000511397
0.000511402
0.000511407
0.000511413
0.000511418
0.000511424
0.000511431
0.000511438
0.000511445
0.000511453
0.000511461
0.00051147
0.000511479
0.000511489
0.000511499
0.000511509
0.00051152
0.000511532
0.000511544
0.000511557
0.000511571
0.000511586
0.000511603
0.00051162
0.00051164
0.000511662
0.000511687
0.000511714
0.000511745
0.000511779
0.000511817
0.00051186
0.000511907
0.000511959
0.000512016
0.000512079
0.000512148
0.000512223
0.000512305
0.000512394
0.00051249
0.000512593
0.000512704
0.000512823
0.000512949
0.000513081
0.000513221
0.000513366
0.000513516
0.000513671
0.000513829
0.00051399
0.000514153
0.000514317
0.000514483
0.000514651
0.000514821
0.000514996
0.000515176
0.000515366
0.000515562
0.000515777
0.000515997
0.000516242
0.000516557
0.000511309
0.000511309
0.000511309
0.000511309
0.000511309
0.000511309
0.000511309
0.000511309
0.000511309
0.000511309
0.000511309
0.000511309
0.000511309
0.000511309
0.000511309
0.000511309
0.000511309
0.000511309
0.000511309
0.000511309
0.00051131
0.00051131
0.00051131
0.00051131
0.00051131
0.00051131
0.00051131
0.00051131
0.00051131
0.00051131
0.00051131
0.00051131
0.00051131
0.00051131
0.00051131
0.00051131
0.00051131
0.00051131
0.00051131
0.00051131
0.00051131
0.00051131
0.00051131
0.00051131
0.00051131
0.00051131
0.00051131
0.00051131
0.00051131
0.00051131
0.00051131
0.000511311
0.000511311
0.000511311
0.000511311
0.000511311
0.000511311
0.000511311
0.000511311
0.000511312
0.000511312
0.000511312
0.000511312
0.000511312
0.000511313
0.000511313
0.000511313
0.000511313
0.000511314
0.000511314
0.000511314
0.000511314
0.000511315
0.000511315
0.000511315
0.000511316
0.000511316
0.000511317
0.000511317
0.000511318
0.000511318
0.000511319
0.000511319
0.00051132
0.00051132
0.000511321
0.000511322
0.000511323
0.000511323
0.000511324
0.000511325
0.000511326
0.000511328
0.000511329
0.00051133
0.000511332
0.000511334
0.000511336
0.000511338
0.00051134
0.000511343
0.000511345
0.000511348
0.000511352
0.000511355
0.000511359
0.000511364
0.000511368
0.000511373
0.000511378
0.000511384
0.000511389
0.000511395
0.000511402
0.000511408
0.000511415
0.000511422
0.000511429
0.000511437
0.000511444
0.000511453
0.000511461
0.00051147
0.00051148
0.00051149
0.000511501
0.000511513
0.000511525
0.000511538
0.000511552
0.000511567
0.000511583
0.000511599
0.000511617
0.000511635
0.000511655
0.000511676
0.000511698
0.000511722
0.000511749
0.000511778
0.00051181
0.000511845
0.000511884
0.000511927
0.000511975
0.000512028
0.000512088
0.000512154
0.000512227
0.000512307
0.000512395
0.000512492
0.000512598
0.000512713
0.000512838
0.000512973
0.000513119
0.000513275
0.000513443
0.000513621
0.000513809
0.000514006
0.000514213
0.000514427
0.000514648
0.000514876
0.000515109
0.000515348
0.000515593
0.000515843
0.000516102
0.000516369
0.000516648
0.000516942
0.000517253
0.000517584
0.00051794
0.000518321
0.000518731
0.000519171
0.000519644
0.000520149
0.000520688
0.000521261
0.000521868
0.00052251
0.000523185
0.000523896
0.000524643
0.000525431
0.000526261
0.000527142
0.000528078
0.000529085
0.000530169
0.000531357
0.000532654
0.000534106
0.000535713
0.000537549
0.000539593
0.000541976
0.000544648
0.000547653
0.000552745
0.000511309
0.000511309
0.000511309
0.000511309
0.000511309
0.000511309
0.000511309
0.000511309
0.000511309
0.000511309
0.000511309
0.000511309
0.000511309
0.000511309
0.00051131
0.00051131
0.00051131
0.00051131
0.00051131
0.00051131
0.00051131
0.00051131
0.00051131
0.00051131
0.00051131
0.00051131
0.000511311
0.000511311
0.000511311
0.000511311
0.000511311
0.000511311
0.000511311
0.000511311
0.000511311
0.000511312
0.000511312
0.000511312
0.000511312
0.000511312
0.000511313
0.000511313
0.000511313
0.000511313
0.000511314
0.000511314
0.000511314
0.000511315
0.000511315
0.000511315
0.000511316
0.000511316
0.000511317
0.000511317
0.000511318
0.000511318
0.000511319
0.00051132
0.00051132
0.000511321
0.000511322
0.000511323
0.000511323
0.000511324
0.000511325
0.000511326
0.000511327
0.000511329
0.00051133
0.000511331
0.000511333
0.000511334
0.000511336
0.000511338
0.00051134
0.000511343
0.000511345
0.000511348
0.000511351
0.000511355
0.000511358
0.000511362
0.000511367
0.000511372
0.000511377
0.000511382
0.000511389
0.000511395
0.000511402
0.00051141
0.000511418
0.000511426
0.000511435
0.000511444
0.000511454
0.000511464
0.000511475
0.000511486
0.000511498
0.00051151
0.000511523
0.000511536
0.000511551
0.000511566
0.000511583
0.0005116
0.000511619
0.000511639
0.00051166
0.000511682
0.000511706
0.000511731
0.000511759
0.000511788
0.000511819
0.000511852
0.000511888
0.000511927
0.00051197
0.000512016
0.000512068
0.000512124
0.000512187
0.000512256
0.000512333
0.000512418
0.000512512
0.000512615
0.000512729
0.000512854
0.000512991
0.00051314
0.000513303
0.000513479
0.000513669
0.000513874
0.000514093
0.000514327
0.000514575
0.000514837
0.000515112
0.000515399
0.000515698
0.000516008
0.000516329
0.000516661
0.000517004
0.00051736
0.000517731
0.00051812
0.000518529
0.000518963
0.000519424
0.000519918
0.000520447
0.000521015
0.000521624
0.000522277
0.000522977
0.000523723
0.000524519
0.000525365
0.000526262
0.000527213
0.000528222
0.000529293
0.000530432
0.000531649
0.000532957
0.000534371
0.000535911
0.000537601
0.000539471
0.000541557
0.000543898
0.000546545
0.000549552
0.000552984
0.000556915
0.000561431
0.000566626
0.000572607
0.000579491
0.000587409
0.000596497
0.000606905
0.000618781
0.000632289
0.00064757
0.000664795
0.000684077
0.000705586
0.000729363
0.000755581
0.00078416
0.000815295
0.000848713
0.000884685
0.000922657
0.000963042
0.00100493
0.00104901
0.00109399
0.00114081
0.001189
0.00123364
0.00130738
0.000511309
0.000511309
0.000511309
0.000511309
0.000511309
0.000511309
0.000511309
0.000511309
0.000511309
0.000511309
0.000511309
0.000511309
0.000511309
0.000511309
0.000511312
0.000511312
0.000511313
0.000511313
0.000511313
0.000511313
0.000511314
0.000511314
0.000511314
0.000511315
0.000511315
0.000511316
0.000511316
0.000511317
0.000511317
0.000511318
0.000511318
0.000511319
0.00051132
0.00051132
0.000511321
0.000511322
0.000511323
0.000511324
0.000511325
0.000511326
0.000511327
0.000511328
0.000511329
0.000511331
0.000511332
0.000511334
0.000511335
0.000511337
0.000511339
0.000511341
0.000511343
0.000511346
0.000511348
0.000511351
0.000511354
0.000511358
0.000511361
0.000511365
0.00051137
0.000511375
0.00051138
0.000511386
0.000511392
0.000511399
0.000511406
0.000511414
0.000511423
0.000511432
0.000511442
0.000511453
0.000511464
0.000511476
0.000511489
0.000511503
0.000511517
0.000511532
0.000511548
0.000511564
0.000511582
0.0005116
0.00051162
0.000511641
0.000511663
0.000511686
0.000511712
0.000511738
0.000511767
0.000511798
0.000511831
0.000511866
0.000511903
0.000511944
0.000511987
0.000512033
0.000512083
0.000512138
0.000512197
0.000512262
0.000512332
0.00051241
0.000512496
0.00051259
0.000512694
0.000512809
0.000512936
0.000513075
0.000513228
0.000513396
0.000513579
0.000513779
0.000513997
0.000514233
0.000514487
0.000514761
0.000515055
0.000515368
0.0005157
0.000516051
0.000516421
0.000516808
0.000517214
0.000517637
0.000518078
0.000518538
0.000519019
0.000519523
0.000520055
0.000520616
0.000521213
0.000521849
0.000522529
0.000523257
0.000524038
0.000524875
0.000525771
0.00052673
0.000527754
0.000528845
0.000530008
0.000531246
0.000532566
0.000533975
0.000535484
0.000537108
0.000538864
0.000540776
0.000542872
0.000545187
0.000547764
0.00055065
0.000553903
0.000557591
0.000561789
0.000566585
0.000572078
0.000578379
0.000585615
0.000593921
0.00060345
0.00061436
0.000626822
0.000641012
0.000657107
0.000675284
0.000695711
0.000718543
0.000743913
0.000771928
0.000802659
0.000836138
0.000872348
0.000911218
0.000952621
0.000996377
0.00104225
0.00108997
0.00113922
0.00118974
0.00124129
0.00129349
0.00134592
0.00139815
0.00144977
0.00150033
0.00154945
0.0015968
0.00164205
0.00168497
0.00172534
0.00176301
0.00179788
0.00182984
0.00185893
0.00188505
0.00190839
0.00192882
0.00194672
0.00196189
0.00197492
0.00198554
0.00199461
0.00200194
0.00201141
0.00201884
0.00202507
0.00202857
0.00203065
0.000511309
0.000511309
0.000511309
0.000511309
0.000511309
0.000511309
0.000511309
0.00051131
0.00051131
0.00051131
0.00051131
0.00051131
0.00051131
0.00051131
0.000511325
0.000511326
0.000511327
0.000511328
0.000511329
0.000511331
0.000511332
0.000511334
0.000511336
0.000511337
0.000511339
0.000511341
0.000511344
0.000511346
0.000511349
0.000511351
0.000511354
0.000511358
0.000511361
0.000511365
0.000511369
0.000511374
0.000511378
0.000511384
0.00051139
0.000511396
0.000511403
0.00051141
0.000511419
0.000511428
0.000511437
0.000511448
0.000511459
0.000511471
0.000511484
0.000511499
0.000511514
0.00051153
0.000511547
0.000511565
0.000511584
0.000511605
0.000511626
0.000511649
0.000511674
0.000511699
0.000511727
0.000511756
0.000511787
0.00051182
0.000511856
0.000511894
0.000511934
0.000511978
0.000512024
0.000512074
0.000512128
0.000512186
0.000512248
0.000512316
0.000512388
0.000512468
0.000512554
0.000512648
0.000512751
0.000512864
0.000512989
0.000513126
0.000513276
0.000513442
0.000513624
0.000513823
0.000514041
0.00051428
0.00051454
0.000514822
0.000515128
0.000515459
0.000515814
0.000516195
0.000516602
0.000517035
0.000517494
0.000517978
0.000518488
0.000519024
0.000519586
0.000520177
0.000520798
0.000521453
0.000522145
0.000522878
0.000523658
0.000524489
0.000525379
0.000526331
0.000527351
0.000528445
0.000529616
0.000530869
0.000532209
0.000533642
0.000535173
0.000536811
0.000538567
0.000540454
0.000542491
0.000544701
0.000547112
0.00054976
0.000552689
0.000555948
0.000559599
0.000563711
0.000568366
0.000573655
0.000579682
0.000586565
0.000594434
0.000603434
0.000613722
0.000625467
0.000638847
0.00065405
0.000671263
0.000690677
0.000712472
0.000736819
0.000763866
0.000793736
0.000826516
0.000862248
0.000900926
0.000942485
0.000986796
0.00103367
0.00108284
0.00113399
0.00118675
0.00124074
0.00129562
0.00135103
0.00140648
0.00146148
0.00151554
0.00156815
0.0016189
0.00166738
0.00171329
0.00175634
0.00179635
0.00183315
0.00186667
0.00189686
0.00192374
0.00194736
0.00196783
0.0019853
0.00199996
0.00201207
0.00202189
0.00202976
0.00203628
0.00204424
0.00205063
0.00205505
0.00205775
0.00205896
0.00205893
0.00205794
0.00205633
0.00205436
0.00205225
0.00205015
0.00204821
0.00204652
0.00204512
0.002044
0.00204319
0.00204261
0.00204228
0.00204203
0.00204193
0.00204173
0.0020416
0.00204118
0.00204077
0.00203962
0.00203458
0.00202745
0.00201993
0.00201267
0.00200034
0.00051131
0.00051131
0.00051131
0.00051131
0.00051131
0.00051131
0.00051131
0.00051131
0.00051131
0.00051131
0.00051131
0.00051131
0.000511311
0.000511384
0.000511389
0.000511395
0.000511402
0.000511409
0.000511417
0.000511425
0.000511434
0.000511444
0.000511455
0.000511467
0.000511479
0.000511493
0.000511508
0.000511524
0.000511541
0.00051156
0.00051158
0.000511601
0.000511624
0.000511648
0.000511674
0.000511702
0.000511731
0.000511763
0.000511796
0.000511831
0.000511869
0.000511909
0.000511952
0.000511998
0.000512047
0.0005121
0.000512157
0.000512218
0.000512283
0.000512353
0.000512429
0.000512511
0.000512599
0.000512695
0.000512799
0.000512912
0.000513036
0.00051317
0.000513318
0.00051348
0.000513657
0.000513852
0.000514065
0.000514299
0.000514555
0.000514836
0.000515141
0.000515474
0.000515835
0.000516226
0.000516648
0.000517103
0.00051759
0.00051811
0.000518665
0.000519254
0.000519878
0.000520538
0.000521234
0.000521969
0.000522746
0.000523567
0.000524437
0.000525362
0.000526347
0.000527397
0.000528521
0.000529725
0.000531014
0.000532397
0.000533878
0.000535465
0.000537165
0.000538987
0.00054094
0.000543038
0.000545297
0.000547737
0.000550386
0.000553275
0.000556447
0.000559948
0.000563838
0.000568185
0.000573067
0.000578576
0.000584814
0.000591899
0.00059996
0.00060914
0.000619597
0.0006315
0.000645032
0.000660384
0.000677755
0.000697344
0.000719347
0.000743952
0.000771332
0.000801633
0.000834971
0.000871416
0.00091099
0.00095365
0.000999288
0.00104772
0.00109869
0.00115186
0.00120684
0.00126318
0.0013204
0.00137808
0.00143578
0.00149298
0.00154912
0.00160366
0.0016561
0.001706
0.00175301
0.00179683
0.00183725
0.00187411
0.00190735
0.00193694
0.00196294
0.00198543
0.00200458
0.00202059
0.00203373
0.00204431
0.00205267
0.00205917
0.00206482
0.00207144
0.00207612
0.00207908
0.00208056
0.0020808
0.00208011
0.00207883
0.00207726
0.00207561
0.00207402
0.00207264
0.00207151
0.00207069
0.00207014
0.00206985
0.00206975
0.00206978
0.00206985
0.0020699
0.00206983
0.00206957
0.00206907
0.00206804
0.00206292
0.00205626
0.00204929