/*--------------------------------*- C++ -*----------------------------------*\
| =========                 |                                                 |
| \\      /  F ield         | OpenFOAM: The Open Source CFD Toolbox           |
|  \\    /   O peration     | Version:  v1706                                 |
|   \\  /    A nd           | Web:      www.OpenFOAM.com                      |
|    \\/     M anipulation  |                                                 |
\*---------------------------------------------------------------------------*/
FoamFile
{
    version     2.0;
    format      ascii;
    class       volScalarField;
    location    "5e-06";
    object      Tt;
}
// * * * * * * * * * * * * * * * * * * * * * * * * * * * * * * * * * * * * * //

dimensions      [0 0 0 1 0 0 0];


internalField   nonuniform List<scalar> 
30104
(
144.4
144.4
144.4
144.4
144.4
144.4
144.4
144.4
144.4
144.4
144.4
144.4
144.4
144.4
144.4
144.4
144.4
144.4
144.4
144.4
144.4
144.4
144.4
144.4
144.4
144.4
144.4
144.4
144.4
144.4
144.4
144.4
144.4
144.4
144.4
144.4
144.4
144.4
144.4
144.4
144.4
144.4
144.4
144.4
144.4
144.4
144.4
144.4
144.4
144.4
144.4
144.4
144.4
144.4
144.4
144.4
144.4
144.4
144.4
144.4
144.4
144.4
144.4
144.4
144.4
144.4
144.4
144.4
144.4
144.4
144.4
144.4
144.4
144.4
144.4
144.4
144.4
144.4
144.4
144.4
144.4
144.4
144.4
144.4
144.4
144.4
144.4
144.4
144.4
144.4
144.4
144.4
144.4
144.4
144.4
144.4
144.4
144.4
144.4
144.4
144.4
144.4
144.4
144.4
144.4
144.4
144.4
144.4
144.4
144.4
144.4
144.4
144.4
144.4
144.4
144.4
144.4
144.4
144.4
144.4
144.4
144.4
144.4
144.4
144.4
144.4
144.4
144.4
144.4
144.4
144.4
144.4
144.4
144.4
144.4
144.4
144.4
144.4
144.4
144.4
144.4
144.4
144.4
144.4
144.4
144.4
144.4
144.4
144.4
144.4
144.4
144.4
144.4
144.4
144.4
144.4
144.4
144.4
144.4
144.4
144.4
144.4
144.4
144.4
144.4
144.4
144.4
144.4
144.4
144.4
144.4
144.4
144.4
144.4
144.4
144.4
144.4
144.4
144.4
144.4
144.4
144.4
144.4
144.4
144.4
144.4
144.4
144.4
144.4
144.4
144.4
144.4
144.4
144.4
144.4
144.4
144.4
144.4
144.4
144.4
144.4
144.4
144.4
144.4
144.4
144.4
144.4
144.4
144.4
144.4
144.4
144.4
144.4
144.4
144.4
144.4
144.4
144.4
144.4
144.4
144.4
144.4
144.4
144.4
144.4
144.4
144.4
144.4
144.4
144.4
144.4
144.4
144.4
144.4
144.4
144.4
144.4
144.4
144.4
144.4
144.4
144.4
144.4
144.4
144.4
144.4
144.4
144.4
144.4
144.4
144.4
144.4
144.4
144.4
144.4
144.4
144.4
144.4
144.4
144.4
144.4
144.4
144.4
144.4
144.4
144.4
144.4
144.4
144.4
144.4
144.4
144.4
144.4
144.4
144.4
144.4
144.4
144.4
144.4
144.4
144.4
144.4
144.4
144.4
144.4
144.4
144.4
144.4
144.4
144.4
144.4
144.4
144.4
144.4
144.4
144.4
144.4
144.4
144.4
144.4
144.4
144.4
144.4
144.4
144.4
144.4
144.4
144.4
144.4
144.4
144.4
144.4
144.4
144.4
144.4
144.4
144.4
144.4
144.4
144.4
144.4
144.4
144.4
144.4
144.4
144.4
144.4
144.4
144.4
144.4
144.4
144.4
144.4
144.4
144.4
144.4
144.4
144.4
144.4
144.4
144.4
144.4
144.4
144.4
144.4
144.4
144.4
144.4
144.4
144.4
144.4
144.4
144.4
144.4
144.4
144.4
144.4
144.4
144.4
144.4
144.4
144.4
144.4
144.4
144.4
144.4
144.4
144.4
144.4
144.4
144.4
144.4
144.4
144.4
144.4
144.4
144.4
144.4
144.4
144.4
144.4
144.4
144.4
144.4
144.4
144.4
144.4
144.4
144.4
144.4
144.4
144.4
144.4
144.4
144.4
144.4
144.4
144.4
144.4
144.4
144.4
144.4
144.4
144.4
144.4
144.4
144.4
144.4
144.4
144.4
144.4
144.4
144.4
144.4
144.4
144.4
144.4
144.4
144.4
144.4
144.4
144.4
144.4
144.4
144.4
144.4
144.4
144.4
144.4
144.4
144.4
144.4
144.4
144.4
144.4
144.4
144.4
144.4
144.4
144.4
144.4
144.4
144.4
144.4
144.4
144.4
144.4
144.4
144.4
144.4
144.4
144.4
144.4
144.4
144.4
144.4
144.4
144.4
144.4
144.4
144.4
144.4
144.4
144.4
144.4
144.4
144.4
144.4
144.4
144.4
144.4
144.4
144.4
144.4
144.4
144.4
144.4
144.4
144.4
144.4
144.4
144.4
144.4
144.4
144.4
144.4
144.4
144.4
144.4
144.4
144.4
144.4
144.4
144.4
144.4
144.4
144.4
144.4
144.4
144.4
144.4
144.4
144.4
144.4
144.4
144.4
144.4
144.4
144.4
144.4
144.4
144.4
144.4
144.4
144.4
144.4
144.4
144.4
144.4
144.4
144.4
144.4
144.4
144.4
144.4
144.4
144.4
144.4
144.4
144.4
144.4
144.4
144.4
144.4
144.4
144.4
144.4
144.4
144.4
144.4
144.4
144.4
144.4
144.4
144.4
144.4
144.4
144.4
144.4
144.4
144.4
144.4
144.4
144.4
144.4
144.4
144.4
144.4
144.4
144.4
144.4
144.4
144.4
144.4
144.4
144.4
144.4
144.4
144.4
144.4
144.4
144.4
144.4
144.4
144.4
144.4
144.4
144.4
144.4
144.4
144.4
144.4
144.4
144.4
144.4
144.4
144.4
144.4
144.4
144.4
144.4
144.4
144.4
144.4
144.4
144.4
144.4
144.4
144.4
144.4
144.4
144.4
144.4
144.4
144.4
144.4
144.4
144.4
144.4
144.4
144.4
144.4
144.4
144.4
144.4
144.4
144.4
144.4
144.4
144.401
144.401
144.401
144.401
144.401
144.401
144.401
144.401
144.401
144.401
144.4
144.4
144.4
144.4
144.4
144.4
144.4
144.4
144.4
144.4
144.4
144.4
144.4
144.4
144.4
144.4
144.4
144.4
144.4
144.4
144.4
144.4
144.4
144.4
144.4
144.4
144.4
144.4
144.4
144.4
144.4
144.4
144.4
144.4
144.4
144.4
144.4
144.4
144.4
144.4
144.4
144.4
144.4
144.4
144.4
144.4
144.4
144.4
144.4
144.4
144.4
144.4
144.4
144.4
144.4
144.4
144.4
144.4
144.4
144.4
144.4
144.4
144.4
144.4
144.4
144.4
144.4
144.4
144.4
144.4
144.4
144.4
144.4
144.4
144.4
144.4
144.4
144.4
144.4
144.4
144.4
144.4
144.4
144.4
144.4
144.4
144.4
144.4
144.4
144.4
144.4
144.4
144.4
144.4
144.4
144.4
144.4
144.4
144.4
144.4
144.4
144.4
144.4
144.4
144.4
144.4
144.4
144.4
144.4
144.4
144.4
144.4
144.4
144.4
144.4
144.4
144.4
144.4
144.4
144.4
144.4
144.4
144.4
144.4
144.4
144.4
144.4
144.4
144.4
144.4
144.4
144.4
144.4
144.4
144.4
144.4
144.4
144.4
144.4
144.4
144.4
144.4
144.4
144.4
144.4
144.4
144.4
144.4
144.4
144.4
144.4
144.4
144.4
144.4
144.4
144.4
144.4
144.4
144.4
144.4
144.4
144.401
144.401
144.401
144.401
144.401
144.401
144.401
144.401
144.401
144.401
144.401
144.401
144.401
144.401
144.401
144.401
144.401
144.401
144.401
144.402
144.402
144.402
144.402
144.402
144.402
144.402
144.402
144.402
144.403
144.403
144.403
144.403
144.403
144.403
144.404
144.404
144.404
144.404
144.405
144.405
144.405
144.406
144.406
144.406
144.407
144.407
144.408
144.408
144.4
144.4
144.4
144.4
144.4
144.4
144.4
144.4
144.4
144.4
144.4
144.4
144.4
144.4
144.4
144.4
144.4
144.4
144.4
144.4
144.4
144.4
144.4
144.4
144.4
144.4
144.4
144.4
144.4
144.4
144.4
144.4
144.4
144.4
144.4
144.4
144.4
144.4
144.4
144.4
144.4
144.4
144.4
144.4
144.4
144.4
144.4
144.4
144.4
144.4
144.4
144.4
144.4
144.4
144.4
144.4
144.4
144.4
144.4
144.4
144.4
144.4
144.4
144.4
144.4
144.4
144.4
144.4
144.4
144.4
144.4
144.4
144.4
144.4
144.4
144.4
144.4
144.4
144.4
144.4
144.4
144.4
144.4
144.4
144.4
144.4
144.4
144.4
144.4
144.4
144.4
144.4
144.4
144.4
144.4
144.4
144.4
144.4
144.4
144.4
144.4
144.4
144.4
144.4
144.4
144.4
144.4
144.4
144.4
144.4
144.4
144.4
144.4
144.4
144.4
144.4
144.4
144.4
144.4
144.4
144.4
144.4
144.4
144.4
144.4
144.4
144.401
144.401
144.401
144.401
144.401
144.401
144.401
144.401
144.401
144.401
144.401
144.401
144.401
144.401
144.401
144.401
144.401
144.401
144.402
144.402
144.402
144.402
144.402
144.402
144.402
144.402
144.403
144.403
144.403
144.403
144.403
144.403
144.404
144.404
144.404
144.404
144.405
144.405
144.405
144.406
144.406
144.406
144.407
144.407
144.408
144.408
144.409
144.409
144.41
144.411
144.411
144.412
144.413
144.414
144.415
144.415
144.416
144.418
144.419
144.42
144.421
144.422
144.424
144.425
144.427
144.428
144.43
144.432
144.434
144.436
144.438
144.441
144.443
144.446
144.449
144.452
144.455
144.459
144.463
144.467
144.472
144.471
144.4
144.4
144.4
144.4
144.4
144.4
144.4
144.4
144.4
144.4
144.4
144.4
144.4
144.4
144.4
144.4
144.4
144.4
144.4
144.4
144.4
144.4
144.4
144.4
144.4
144.4
144.4
144.4
144.4
144.4
144.4
144.4
144.4
144.4
144.4
144.4
144.4
144.4
144.4
144.4
144.4
144.4
144.4
144.4
144.4
144.4
144.4
144.4
144.4
144.4
144.4
144.4
144.4
144.4
144.4
144.4
144.4
144.4
144.4
144.4
144.4
144.4
144.4
144.4
144.4
144.4
144.4
144.4
144.4
144.4
144.4
144.4
144.4
144.4
144.4
144.4
144.4
144.4
144.4
144.4
144.4
144.4
144.4
144.4
144.4
144.4
144.4
144.4
144.4
144.4
144.4
144.4
144.4
144.4
144.4
144.4
144.401
144.401
144.401
144.401
144.401
144.401
144.401
144.401
144.401
144.401
144.401
144.401
144.401
144.401
144.401
144.401
144.401
144.402
144.402
144.402
144.402
144.402
144.402
144.402
144.402
144.403
144.403
144.403
144.403
144.403
144.403
144.404
144.404
144.404
144.404
144.405
144.405
144.405
144.406
144.406
144.407
144.407
144.407
144.408
144.408
144.409
144.41
144.41
144.411
144.412
144.412
144.413
144.414
144.415
144.416
144.417
144.419
144.42
144.421
144.423
144.424
144.426
144.428
144.43
144.432
144.434
144.436
144.438
144.441
144.444
144.446
144.449
144.453
144.456
144.46
144.464
144.468
144.472
144.477
144.482
144.488
144.494
144.5
144.507
144.514
144.522
144.531
144.539
144.549
144.559
144.569
144.58
144.592
144.605
144.618
144.632
144.647
144.662
144.679
144.696
144.715
144.735
144.756
144.779
144.803
144.83
144.858
144.888
144.921
144.957
144.994
145.049
145.043
144.4
144.4
144.4
144.4
144.4
144.4
144.4
144.4
144.4
144.4
144.4
144.4
144.4
144.4
144.4
144.4
144.4
144.4
144.4
144.4
144.4
144.4
144.4
144.4
144.4
144.4
144.4
144.4
144.4
144.4
144.4
144.4
144.4
144.4
144.4
144.4
144.4
144.4
144.4
144.4
144.4
144.4
144.4
144.4
144.4
144.4
144.4
144.4
144.4
144.4
144.4
144.4
144.4
144.4
144.4
144.4
144.4
144.4
144.4
144.4
144.4
144.4
144.4
144.4
144.401
144.401
144.401
144.401
144.401
144.401
144.401
144.401
144.401
144.401
144.401
144.401
144.401
144.401
144.401
144.401
144.401
144.402
144.402
144.402
144.402
144.402
144.402
144.402
144.402
144.403
144.403
144.403
144.403
144.403
144.404
144.404
144.404
144.404
144.405
144.405
144.405
144.406
144.406
144.407
144.407
144.408
144.408
144.409
144.409
144.41
144.41
144.411
144.412
144.413
144.414
144.415
144.416
144.417
144.418
144.419
144.42
144.422
144.423
144.425
144.427
144.429
144.431
144.433
144.435
144.438
144.441
144.444
144.447
144.45
144.453
144.457
144.461
144.465
144.469
144.474
144.479
144.485
144.49
144.496
144.503
144.51
144.518
144.526
144.535
144.544
144.555
144.566
144.577
144.59
144.603
144.618
144.633
144.649
144.667
144.685
144.705
144.726
144.748
144.771
144.796
144.823
144.851
144.881
144.914
144.948
144.986
145.026
145.069
145.115
145.166
145.22
145.279
145.343
145.412
145.487
145.568
145.655
145.749
145.85
145.958
146.074
146.197
146.329
146.468
146.615
146.771
146.934
147.105
147.284
147.471
147.666
147.871
148.085
148.31
148.547
148.799
149.065
149.352
149.654
150.046
150.078
144.4
144.4
144.4
144.4
144.4
144.4
144.4
144.4
144.4
144.4
144.4
144.4
144.4
144.4
144.4
144.4
144.4
144.4
144.4
144.4
144.4
144.4
144.4
144.4
144.4
144.4
144.4
144.4
144.4
144.4
144.4
144.4
144.4
144.4
144.4
144.4
144.4
144.401
144.401
144.401
144.401
144.401
144.401
144.401
144.401
144.401
144.401
144.401
144.401
144.401
144.401
144.401
144.401
144.401
144.402
144.402
144.402
144.402
144.402
144.402
144.402
144.403
144.403
144.403
144.403
144.403
144.404
144.404
144.404
144.404
144.405
144.405
144.405
144.406
144.406
144.407
144.407
144.408
144.408
144.409
144.409
144.41
144.411
144.411
144.412
144.413
144.414
144.415
144.416
144.417
144.418
144.42
144.421
144.423
144.424
144.426
144.428
144.43
144.432
144.434
144.437
144.439
144.442
144.445
144.449
144.452
144.456
144.46
144.464
144.469
144.474
144.479
144.485
144.491
144.498
144.504
144.512
144.52
144.528
144.537
144.547
144.557
144.569
144.581
144.594
144.608
144.623
144.639
144.657
144.675
144.695
144.717
144.74
144.765
144.791
144.819
144.849
144.881
144.915
144.951
144.989
145.031
145.075
145.122
145.172
145.227
145.285
145.349
145.417
145.491
145.571
145.658
145.753
145.855
145.966
146.086
146.216
146.356
146.507
146.669
146.842
147.027
147.225
147.434
147.656
147.89
148.136
148.396
148.668
148.955
149.256
149.574
149.91
150.266
150.646
151.053
151.49
151.962
152.474
153.031
153.637
154.299
155.022
155.812
156.675
157.614
158.636
159.743
160.938
162.222
163.597
165.058
166.605
168.229
169.928
171.689
173.512
175.378
177.298
179.244
181.245
183.261
185.351
187.443
189.873
190.528
144.4
144.4
144.4
144.4
144.4
144.4
144.4
144.4
144.4
144.4
144.4
144.4
144.4
144.4
144.401
144.401
144.401
144.401
144.401
144.401
144.401
144.401
144.401
144.401
144.401
144.401
144.401
144.401
144.402
144.402
144.402
144.402
144.402
144.402
144.402
144.402
144.403
144.403
144.403
144.403
144.403
144.404
144.404
144.404
144.405
144.405
144.405
144.406
144.406
144.406
144.407
144.407
144.408
144.408
144.409
144.41
144.41
144.411
144.412
144.413
144.414
144.415
144.416
144.417
144.418
144.419
144.421
144.422
144.424
144.426
144.427
144.429
144.432
144.434
144.436
144.439
144.442
144.445
144.448
144.452
144.455
144.46
144.464
144.469
144.474
144.479
144.485
144.492
144.498
144.506
144.514
144.522
144.531
144.54
144.551
144.562
144.573
144.586
144.599
144.614
144.63
144.646
144.665
144.684
144.705
144.728
144.753
144.779
144.808
144.838
144.871
144.906
144.944
144.984
145.027
145.073
145.122
145.175
145.231
145.291
145.356
145.425
145.499
145.58
145.666
145.76
145.861
145.97
146.089
146.219
146.359
146.511
146.675
146.853
147.046
147.254
147.477
147.716
147.972
148.245
148.536
148.845
149.171
149.517
149.882
150.267
150.674
151.104
151.562
152.048
152.568
153.126
153.727
154.376
155.082
155.849
156.686
157.599
158.597
159.686
160.872
162.163
163.562
165.073
166.697
168.435
170.282
172.236
174.288
176.43
178.654
180.949
183.309
185.726
188.199
190.728
193.322
195.992
198.756
201.636
204.662
207.868
211.294
214.985
218.992
223.371
228.182
233.488
239.35
245.836
252.99
260.873
269.49
278.881
288.974
299.798
311.163
323.122
335.337
347.943
360.428
373.122
385.296
397.545
409.037
420.285
431.837
144.4
144.4
144.4
144.4
144.4
144.4
144.4
144.4
144.4
144.4
144.4
144.4
144.4
144.4
144.403
144.403
144.404
144.404
144.404
144.405
144.405
144.405
144.406
144.406
144.406
144.407
144.407
144.408
144.409
144.409
144.41
144.411
144.411
144.412
144.413
144.414
144.415
144.416
144.417
144.419
144.42
144.421
144.423
144.425
144.426
144.428
144.43
144.433
144.435
144.438
144.44
144.443
144.446
144.45
144.453
144.457
144.462
144.466
144.471
144.477
144.482
144.489
144.495
144.502
144.51
144.518
144.527
144.537
144.547
144.558
144.57
144.583
144.597
144.611
144.627
144.644
144.662
144.682
144.703
144.726
144.75
144.776
144.805
144.836
144.869
144.904
144.943
144.984
145.029
145.077
145.129
145.184
145.244
145.307
145.376
145.449
145.527
145.611
145.702
145.799
145.903
146.016
146.137
146.269
146.411
146.565
146.733
146.914
147.111
147.325
147.557
147.808
148.079
148.371
148.685
149.022
149.383
149.768
150.178
150.613
151.076
151.566
152.085
152.637
153.222
153.846
154.512
155.226
155.993
156.822
157.719
158.693
159.753
160.908
162.165
163.535
165.025
166.64
168.387
170.268
172.285
174.437
176.719
179.126
181.649
184.28
187.01
189.83
192.734
195.72
198.79
201.952
205.221
208.619
212.175
215.925
219.911
224.183
228.796
233.81
239.289
245.301
251.91
259.178
267.158
275.887
285.383
295.637
306.612
318.238
330.415
343.015
355.89
368.881
381.825
394.571
406.983
418.961
430.432
441.339
451.641
461.319
470.375
478.826
486.704
494.057
500.934
507.395
513.492
519.282
524.81
530.116
535.23
540.169
544.954
549.574
554.053
558.363
562.541
566.559
570.476
574.309
578.587
582.82
586.915
591.092
594.084
144.4
144.4
144.4
144.4
144.4
144.4
144.4
144.4
144.4
144.4
144.4
144.4
144.4
144.4
144.418
144.419
144.42
144.422
144.423
144.425
144.427
144.429
144.431
144.433
144.436
144.438
144.441
144.444
144.447
144.451
144.455
144.459
144.463
144.468
144.473
144.478
144.484
144.491
144.497
144.505
144.513
144.521
144.53
144.54
144.551
144.563
144.575
144.589
144.603
144.618
144.635
144.653
144.672
144.693
144.715
144.739
144.765
144.793
144.822
144.855
144.889
144.927
144.967
145.011
145.058
145.109
145.164
145.224
145.287
145.356
145.43
145.51
145.596
145.688
145.786
145.892
146.006
146.129
146.261
146.403
146.556
146.721
146.9
147.094
147.304
147.532
147.779
148.047
148.338
148.653
148.994
149.363
149.76
150.187
150.645
151.136
151.66
152.22
152.815
153.449
154.122
154.839
155.602
156.416
157.287
158.221
159.227
160.312
161.486
162.759
164.142
165.645
167.278
169.05
170.969
173.041
175.272
177.661
180.209
182.912
185.764
188.757
191.881
195.128
198.489
201.961
205.543
209.241
213.066
217.04
221.191
225.556
230.179
235.112
240.412
246.139
252.36
259.137
266.533
274.602
283.385
292.907
303.169
314.144
325.776
337.977
350.632
363.603
376.733
389.86
402.826
415.484
427.705
439.392
450.492
460.974
470.821
480.035
488.636
496.656
504.14
511.139
517.709
523.902
529.765
535.336
540.646
545.714
550.553
555.169
559.564
563.742
567.709
571.482
575.085
578.549
581.951
585.738
589.498
593.153
596.682
600.105
603.448
606.74
610.039
613.362
616.718
620.12
623.575
627.082
630.639
634.238
637.878
641.544
645.24
648.947
652.679
656.406
660.165
663.908
667.698
671.42
674.67
677.609
680.403
683.381
685.837
144.401
144.401
144.401
144.401
144.401
144.401
144.401
144.401
144.401
144.401
144.401
144.402
144.402
144.493
144.5
144.507
144.516
144.524
144.534
144.544
144.555
144.567
144.579
144.593
144.608
144.624
144.641
144.66
144.68
144.701
144.725
144.75
144.777
144.805
144.837
144.87
144.906
144.945
144.987
145.033
145.082
145.135
145.192
145.253
145.32
145.392
145.47
145.554
145.644
145.742
145.847
145.961
146.083
146.214
146.355
146.507
146.67
146.846
147.036
147.241
147.462
147.701
147.96
148.241
148.545
148.876
149.234
149.622
150.042
150.496
150.987
151.516
152.085
152.695
153.349
154.049
154.795
155.592
156.44
157.345
158.31
159.342
160.445
161.629
162.903
164.275
165.758
167.363
169.101
170.985
173.024
175.229
177.608
180.166
182.906
185.829
188.931
192.209
195.654
199.259
203.014
206.913
210.951
215.13
219.456
223.944
228.616
233.504
238.649
244.098
249.907
256.134
262.841
270.089
277.936
286.431
295.611
305.495
316.08
327.334
339.197
351.58
364.367
377.42
390.585
403.702
416.618
429.188
441.291
452.834
463.75
474.019
483.648
492.647
501.045
508.876
516.184
523.016
529.423
535.447
541.125
546.486
551.549
556.328
560.831
565.064
569.036
572.762
576.263
579.57
582.726
585.772
588.845
592.26
595.614
598.904
602.11
605.252
608.351
611.459
614.598
617.769
620.98
624.232
627.523
630.847
634.198
637.568
640.954
644.351
647.754
651.165
654.581
658.004
661.441
664.855
667.78
670.473
673.08
675.762
678.566
681.489
684.531
687.691
690.96
694.331
697.797
701.348
704.975
708.668
712.417
716.214
720.048
723.911
727.792
731.686
735.575
739.46
743.311
747.139
750.915
754.756
758.773
763.022
767.578
771.288
144.402
144.403
144.403
144.404
144.404
144.404
144.405
144.405
144.406
144.406
144.407
144.407
144.408
144.966
145.01
145.058
145.109
145.164
145.223
145.287
145.357
145.432
145.512
145.6
145.694
145.796
145.907
146.026
146.154
146.293
146.442
146.603
146.776
146.963
147.164
147.381
147.615
147.867
148.139
148.433
148.751
149.095
149.468
149.873
150.311
150.785
151.299
151.855
152.456
153.104
153.802
154.553
155.358
156.22
157.143
158.128
159.181
160.304
161.504
162.786
164.159
165.631
167.212
168.914
170.748
172.729
174.867
177.176
179.667
182.348
185.229
188.313
191.603
195.096
198.79
202.678
206.752
211.005
215.431
220.026
224.79
229.732
234.866
240.215
245.81
251.692
257.908
264.51
271.557
279.104
287.206
295.907
305.243
315.232
325.87
337.132
348.962
361.279
373.977
386.926
399.984
413
425.824
438.319
450.363
461.862
472.749
482.985
492.564
501.515
509.87
517.663
524.932
531.716
538.055
543.985
549.536
554.731
559.585
564.112
568.322
572.227
575.846
579.202
582.33
585.273
588.083
590.806
593.519
596.568
599.612
602.628
605.594
608.51
611.402
614.315
617.253
620.216
623.208
626.227
629.268
632.327
635.4
638.483
641.576
644.676
647.788
650.908
654.037
657.182
660.254
662.876
665.367
667.821
670.375
673.049
675.837
678.738
681.744
684.846
688.036
691.306
694.647
698.048
701.501
704.997
708.527
712.08
715.647
719.217
722.777
726.315
729.818
733.292
736.811
740.511
744.419
748.447
752.567
756.782
761.088
765.479
769.951
774.498
779.115
783.797
788.538
793.336
798.187
803.089
808.042
813.048
818.105
823.227
828.41
833.681
839.029
844.508
850.084
855.851
861.689
867.621
874.27
877.65
144.413
144.415
144.417
144.418
144.42
144.423
144.425
144.427
144.43
144.432
144.435
144.437
147.32
147.551
147.8
148.068
148.357
148.669
149.006
149.37
149.762
150.187
150.647
151.144
151.683
152.266
152.897
153.579
154.316
155.11
155.966
156.887
157.876
158.935
160.069
161.282
162.578
163.962
165.441
167.023
168.715
170.528
172.474
174.565
176.813
179.233
181.837
184.638
187.646
190.871
194.318
197.99
201.888
206.009
210.348
214.898
219.652
224.605
229.754
235.099
240.649
246.416
252.425
258.704
265.292
272.232
279.573
287.365
295.657
304.491
313.9
323.9
334.492
345.652
357.335
369.468
381.958
394.689
407.532
420.349
433.001
445.358
457.301
468.736
479.59
489.821
499.408
508.356
516.698
524.477
531.724
538.475
544.759
550.606
556.04
561.081
565.747
570.052
574.012
577.646
580.98
584.045
586.885
589.548
592.092
594.568
597.025
599.684
602.477
605.262
608.033
610.767
613.474
616.194
618.933
621.688
624.459
627.245
630.045
632.855
635.674
638.501
641.337
644.184
647.04
649.903
652.775
655.633
658.114
660.461
662.758
665.127
667.608
670.197
672.887
675.67
678.54
681.489
684.509
687.592
690.73
693.915
697.137
700.387
703.655
706.93
710.199
713.45
716.679
719.89
723.175
726.638
730.28
734.027
737.863
741.789
745.801
749.893
754.059
758.295
762.594
766.952
771.363
775.825
780.336
784.896
789.505
794.168
798.892
803.687
808.566
813.548
818.654
823.897
829.266
834.73
840.268
845.877
851.556
857.302
863.111
868.982
874.912
880.899
886.944
893.046
899.206
905.424
911.705
918.045
924.453
930.922
937.463
944.063
950.737
957.455
964.251
971.048
977.942
984.747
991.569
999.578
999.432
144.461
144.469
144.477
144.485
144.494
144.504
144.514
144.524
144.535
144.546
158.834
159.975
161.198
162.508
163.91
165.409
167.01
168.72
170.546
172.498
174.584
176.817
179.209
181.772
184.522
187.471
190.632
194.016
197.633
201.489
205.588
209.93
214.514
219.336
224.388
229.665
235.163
240.878
246.814
252.977
259.382
266.05
273.009
280.295
287.945
296.001
304.504
313.491
322.99
333.016
343.568
354.627
366.151
378.077
390.319
402.776
415.33
427.86
440.238
452.346
464.074
475.33
486.045
496.169
505.678
514.568
522.851
530.556
537.726
544.389
550.573
556.299
561.588
566.458
570.929
575.017
578.745
582.137
585.225
588.047
590.649
593.084
595.411
597.682
599.945
602.268
604.832
607.404
609.979
612.537
615.067
617.592
620.13
622.677
625.233
627.798
630.372
632.955
635.548
638.151
640.766
643.393
646.025
648.658
651.292
653.747
655.991
658.174
660.365
662.652
665.042
667.527
670.099
672.752
675.479
678.273
681.126
684.029
686.974
689.951
692.949
695.957
698.963
701.956
704.937
707.902
710.906
714.057
717.381
720.816
724.339
727.948
731.638
735.406
739.246
743.152
747.12
751.144
755.221
759.348
763.523
767.749
772.028
776.368
780.778
785.274
789.872
794.593
799.446
804.416
809.474
814.604
819.804
825.073
830.407
835.806
841.268
846.791
852.376
858.024
863.737
869.517
875.37
881.297
887.304
893.393
899.567
905.825
912.165
918.583
925.067
931.605
938.187
944.807
951.465
958.156
964.879
971.629
978.404
985.199
992.013
998.844
1005.69
1012.55
1019.41
1026.28
1033.16
1040.03
1046.89
1053.74
1060.57
1067.36
1074.13
1080.84
1087.52
1094.13
1100.73
1107.15
1113.45
1119.18
1115.95
144.714
144.749
144.787
144.827
144.869
144.912
144.957
145.003
145.05
210.557
215.163
220.027
225.145
230.514
236.126
241.977
248.063
254.382
260.938
267.74
274.803
282.146
289.798
297.787
306.147
314.91
324.104
333.751
343.86
354.427
365.43
376.828
388.562
400.552
412.707
424.92
437.082
449.082
460.814
472.18
483.101
493.509
503.361
512.629
521.305
529.395
536.915
543.891
550.357
556.339
561.855
566.922
571.56
575.788
579.626
583.102
586.244
589.09
591.681
594.065
596.298
598.438
600.533
602.628
604.755
607.067
609.441
611.815
614.192
616.549
618.892
621.237
623.586
625.942
628.307
630.682
633.067
635.465
637.877
640.3
642.731
645.156
647.576
649.969
652.118
654.207
656.267
658.375
660.577
662.871
665.249
667.704
670.23
672.82
675.465
678.156
680.885
683.641
686.412
689.186
691.954
694.719
697.476
700.233
703.086
706.09
709.232
712.465
715.781
719.176
722.648
726.19
729.797
733.462
737.183
740.953
744.772
748.638
752.554
756.525
760.56
764.672
768.879
773.197
777.641
782.203
786.858
791.588
796.387
801.253
806.186
811.182
816.241
821.361
826.544
831.79
837.104
842.488
847.947
853.486
859.109
864.821
870.623
876.514
882.491
888.544
894.662
900.835
907.06
913.338
919.665
926.042
932.468
938.941
945.463
952.031
958.647
965.309
972.017
978.768
985.56
992.389
999.249
1006.13
1013.03
1019.94
1026.85
1033.75
1040.63
1047.48
1054.32
1061.12
1067.9
1074.64
1081.34
1088.01
1094.63
1101.2
1107.72
1114.19
1120.59
1126.94
1133.22
1139.43
1145.56
1151.61
1157.58
1163.47
1169.26
1174.96
1180.56
1186.07
1191.5
1196.85
1202.1
1207.11
1211.68
1213.57
1207.83
145.802
145.956
347.343
357.612
368.264
379.271
390.589
402.155
413.893
425.715
437.527
449.229
460.727
471.929
482.757
493.144
503.037
512.398
521.207
529.455
537.147
544.293
550.911
557.023
562.656
567.829
572.556
576.858
580.756
584.275
587.445
590.301
592.881
595.231
597.4
599.442
601.411
603.352
605.304
607.29
609.407
611.596
613.78
615.97
618.154
620.325
622.494
624.667
626.849
629.041
631.244
633.462
635.696
637.942
640.195
642.437
644.669
646.9
648.98
650.97
652.939
654.907
656.949
659.079
661.29
663.574
665.926
668.338
670.801
673.306
675.842
678.398
680.963
683.527
686.094
688.664
691.225
693.828
696.547
699.406
702.375
705.425
708.553
711.754
715.023
718.354
721.742
725.181
728.668
732.201
735.78
739.41
743.096
746.851
750.689
754.624
758.675
762.846
767.122
771.481
775.91
780.408
784.973
789.603
794.297
799.053
803.872
808.756
813.708
818.732
823.832
829.013
834.28
839.635
845.079
850.611
856.223
861.906
867.649
873.447
879.301
885.209
891.171
897.188
903.259
909.385
915.569
921.81
928.11
934.47
940.889
947.365
953.897
960.48
967.109
973.778
980.479
987.205
993.951
1000.71
1007.49
1014.27
1021.07
1027.87
1034.68
1041.48
1048.29
1055.08
1061.87
1068.64
1075.39
1082.11
1088.8
1095.45
1102.05
1108.6
1115.08
1121.5
1127.84
1134.1
1140.29
1146.39
1152.41
1158.34
1164.19
1169.95
1175.62
1181.2
1186.68
1192.06
1197.33
1202.5
1207.56
1212.5
1217.32
1222.03
1226.61
1231.06
1235.39
1239.59
1243.67
1247.62
1251.46
1255.18
1258.8
1262.3
1265.73
1268.92
1271.78
1273.23
1272.05
1264.02
539.505
546.582
553.142
559.2
564.772
569.882
574.548
578.788
582.623
586.078
589.185
591.975
594.488
596.766
598.852
600.799
602.656
604.471
606.279
608.112
609.979
611.967
613.984
615.993
618.01
620.029
622.042
624.057
626.08
628.113
630.159
632.223
634.303
636.394
638.488
640.565
642.63
644.69
646.658
648.543
650.42
652.293
654.212
656.212
658.29
660.438
662.647
664.911
667.218
669.559
671.923
674.298
676.677
679.066
681.463
683.859
686.27
688.764
691.374
694.108
696.93
699.825
702.791
705.821
708.909
712.05
715.238
718.472
721.748
725.071
728.444
731.878
735.384
738.973
742.663
746.467
750.381
754.388
758.469
762.619
766.835
771.116
775.46
779.867
784.338
788.874
793.479
798.158
802.915
807.756
812.685
817.705
822.814
828.011
833.287
838.632
844.038
849.503
855.027
860.608
866.248
871.945
877.702
883.519
889.398
895.339
901.343
907.411
913.54
919.729
925.974
932.271
938.613
944.995
951.413
957.862
964.342
970.853
977.393
983.963
990.56
997.185
1003.83
1010.51
1017.2
1023.91
1030.63
1037.36
1044.09
1050.81
1057.53
1064.23
1070.91
1077.57
1084.18
1090.77
1097.31
1103.8
1110.25
1116.65
1123
1129.28
1135.5
1141.66
1147.74
1153.75
1159.67
1165.51
1171.26
1176.91
1182.47
1187.91
1193.25
1198.48
1203.59
1208.58
1213.45
1218.2
1222.82
1227.31
1231.68
1235.91
1240.02
1243.99
1247.83
1251.53
1255.11
1258.55
1261.85
1265.01
1268.02
1270.87
1273.56
1276.06
1278.37
1280.47
1282.33
1283.94
1285.28
1286.44
1287.43
1288.29
1288.99
1289.58
1290.02
1290.05
1289.58
1287.33
1282.92
1273.99
606.059
607.746
609.45
611.183
612.978
614.836
616.686
618.539
620.408
622.28
624.155
626.039
627.935
629.847
631.778
633.724
635.676
637.62
639.542
641.456
643.365
645.183
646.967
648.758
650.554
652.388
654.297
656.278
658.32
660.415
662.554
664.726
666.921
669.127
671.341
673.571
675.812
678.059
680.319
682.645
685.07
687.607
690.238
692.941
695.709
698.536
701.417
704.345
707.318
710.331
713.387
716.49
719.647
722.869
726.164
729.545
733.028
736.619
740.308
744.077
747.913
751.814
755.777
759.802
763.888
768.036
772.249
776.532
780.889
785.325
789.845
794.454
799.154
803.942
808.817
813.769
818.789
823.872
829.017
834.223
839.491
844.82
850.213
855.671
861.194
866.785
872.444
878.17
883.964
889.823
895.742
901.718
907.745
913.818
919.932
926.086
932.279
938.511
944.783
951.093
957.441
963.826
970.247
976.702
983.188
989.704
996.244
1002.81
1009.38
1015.97
1022.57
1029.17
1035.77
1042.36
1048.94
1055.52
1062.09
1068.64
1075.17
1081.69
1088.17
1094.63
1101.06
1107.44
1113.78
1120.08
1126.31
1132.49
1138.6
1144.65
1150.61
1156.5
1162.31
1168.03
1173.66
1179.2
1184.65
1190
1195.25
1200.39
1205.43
1210.35
1215.16
1219.84
1224.4
1228.83
1233.12
1237.28
1241.3
1245.17
1248.9
1252.49
1255.94
1259.25
1262.42
1265.43
1268.3
1271.01
1273.55
1275.91
1278.08
1280.03
1281.75
1283.22
1284.43
1285.45
1286.3
1286.99
1287.5
1287.84
1288
1287.97
1287.76
1287.41
1286.95
1286.4
1285.81
1285.19
1284.59
1283.86
1282.94
1281.86
1280.65
1279.32
1277.89
1276.06
1273.75
1269.52
1263.54
1255.35
639.369
641.144
642.888
644.579
646.283
648.003
649.733
651.516
653.367
655.277
657.236
659.235
661.263
663.308
665.363
667.435
669.526
671.63
673.745
675.884
678.09
680.384
682.778
685.261
687.81
690.416
693.075
695.78
698.528
701.316
704.145
707.019
709.945
712.931
715.983
719.113
722.335
725.657
729.074
732.573
736.139
739.766
743.453
747.199
751.004
754.871
758.801
762.801
766.875
771.029
775.266
779.589
784.001
788.499
793.079
797.732
802.451
807.234
812.078
816.987
821.959
826.997
832.102
837.276
842.521
847.838
853.227
858.688
864.217
869.811
875.467
881.178
886.941
892.752
898.609
904.513
910.463
916.46
922.502
928.591
934.724
940.9
947.117
953.374
959.667
965.991
972.345
978.723
985.121