/*--------------------------------*- C++ -*----------------------------------*\
| =========                 |                                                 |
| \\      /  F ield         | OpenFOAM: The Open Source CFD Toolbox           |
|  \\    /   O peration     | Version:  v1706                                 |
|   \\  /    A nd           | Web:      www.OpenFOAM.com                      |
|    \\/     M anipulation  |                                                 |
\*---------------------------------------------------------------------------*/
FoamFile
{
    version     2.0;
    format      ascii;
    class       volScalarField;
    location    "5e-06";
    object      Tv;
}
// * * * * * * * * * * * * * * * * * * * * * * * * * * * * * * * * * * * * * //

dimensions      [0 0 0 1 0 0 0];


internalField   nonuniform List<scalar> 
30104
(
144.4
144.4
144.4
144.4
144.4
144.4
144.4
144.4
144.4
144.4
144.4
144.4
144.4
144.4
144.4
144.4
144.4
144.4
144.4
144.4
144.4
144.4
144.4
144.4
144.4
144.4
144.4
144.4
144.4
144.4
144.4
144.4
144.4
144.4
144.4
144.4
144.4
144.4
144.4
144.4
144.4
144.4
144.4
144.4
144.4
144.4
144.4
144.4
144.4
144.4
144.4
144.4
144.4
144.4
144.4
144.4
144.4
144.4
144.4
144.4
144.4
144.4
144.4
144.4
144.4
144.4
144.4
144.4
144.4
144.4
144.4
144.4
144.4
144.4
144.4
144.4
144.4
144.4
144.4
144.4
144.4
144.4
144.4
144.4
144.4
144.4
144.4
144.4
144.4
144.4
144.4
144.4
144.4
144.4
144.4
144.4
144.4
144.4
144.4
144.4
144.4
144.4
144.4
144.4
144.4
144.4
144.4
144.4
144.4
144.4
144.4
144.4
144.4
144.4
144.4
144.4
144.4
144.4
144.4
144.4
144.4
144.4
144.4
144.4
144.4
144.4
144.4
144.4
144.4
144.4
144.4
144.4
144.4
144.4
144.4
144.4
144.4
144.4
144.4
144.4
144.4
144.4
144.4
144.4
144.4
144.4
144.4
144.4
144.4
144.4
144.4
144.4
144.4
144.4
144.4
144.4
144.4
144.4
144.4
144.4
144.4
144.4
144.4
144.4
144.4
144.4
144.4
144.4
144.4
144.4
144.4
144.4
144.4
144.4
144.4
144.4
144.4
144.4
144.4
144.4
144.4
144.4
144.4
144.4
144.4
144.4
144.4
144.4
144.4
144.4
144.4
144.4
144.4
144.4
144.4
144.4
144.4
144.4
144.4
144.4
144.4
144.4
144.4
144.4
144.4
144.4
144.4
144.4
144.4
144.4
144.4
144.4
144.4
144.4
144.4
144.4
144.4
144.4
144.4
144.4
144.4
144.4
144.4
144.4
144.4
144.4
144.4
144.4
144.4
144.4
144.4
144.4
144.4
144.4
144.4
144.4
144.4
144.4
144.4
144.4
144.4
144.4
144.4
144.4
144.4
144.4
144.4
144.4
144.4
144.4
144.4
144.4
144.4
144.4
144.4
144.4
144.4
144.4
144.4
144.4
144.4
144.4
144.4
144.4
144.4
144.4
144.4
144.4
144.4
144.4
144.4
144.4
144.4
144.4
144.4
144.4
144.4
144.4
144.4
144.4
144.4
144.4
144.4
144.4
144.4
144.4
144.4
144.4
144.4
144.4
144.4
144.4
144.4
144.4
144.4
144.4
144.4
144.4
144.4
144.4
144.4
144.4
144.4
144.4
144.4
144.4
144.4
144.4
144.4
144.4
144.4
144.4
144.4
144.4
144.4
144.4
144.4
144.4
144.4
144.4
144.4
144.4
144.4
144.4
144.4
144.4
144.4
144.4
144.4
144.4
144.4
144.4
144.4
144.4
144.4
144.4
144.4
144.4
144.4
144.4
144.4
144.4
144.4
144.4
144.4
144.4
144.4
144.4
144.4
144.4
144.4
144.4
144.4
144.4
144.4
144.4
144.4
144.4
144.4
144.4
144.4
144.4
144.4
144.4
144.4
144.4
144.4
144.4
144.4
144.4
144.4
144.4
144.4
144.4
144.4
144.4
144.4
144.4
144.4
144.4
144.4
144.4
144.4
144.4
144.4
144.4
144.4
144.4
144.4
144.4
144.4
144.4
144.4
144.4
144.4
144.4
144.4
144.4
144.4
144.4
144.4
144.4
144.4
144.4
144.4
144.4
144.4
144.4
144.4
144.4
144.4
144.4
144.4
144.4
144.4
144.4
144.4
144.4
144.4
144.4
144.4
144.4
144.4
144.4
144.4
144.4
144.4
144.4
144.4
144.4
144.4
144.4
144.4
144.4
144.4
144.4
144.4
144.4
144.4
144.4
144.4
144.4
144.4
144.4
144.4
144.4
144.4
144.4
144.4
144.4
144.4
144.4
144.4
144.4
144.4
144.4
144.4
144.4
144.4
144.4
144.4
144.4
144.4
144.4
144.4
144.4
144.4
144.4
144.4
144.4
144.4
144.4
144.4
144.4
144.4
144.4
144.4
144.4
144.4
144.4
144.4
144.4
144.4
144.4
144.4
144.4
144.4
144.4
144.4
144.4
144.4
144.4
144.4
144.4
144.4
144.4
144.4
144.4
144.4
144.4
144.4
144.4
144.4
144.4
144.4
144.4
144.4
144.4
144.4
144.4
144.4
144.4
144.4
144.4
144.4
144.4
144.4
144.4
144.4
144.4
144.4
144.4
144.4
144.4
144.4
144.4
144.4
144.4
144.4
144.4
144.4
144.4
144.4
144.4
144.4
144.4
144.4
144.4
144.4
144.4
144.4
144.4
144.4
144.4
144.4
144.4
144.4
144.4
144.4
144.4
144.4
144.4
144.4
144.4
144.4
144.4
144.4
144.4
144.4
144.4
144.4
144.4
144.4
144.4
144.4
144.4
144.4
144.4
144.4
144.4
144.4
144.4
144.4
144.4
144.4
144.4
144.4
144.4
144.4
144.4
144.4
144.4
144.4
144.4
144.4
144.4
144.4
144.4
144.4
144.4
144.4
144.4
144.4
144.4
144.4
144.4
144.4
144.4
144.4
144.4
144.4
144.4
144.4
144.4
144.4
144.4
144.4
144.4
144.4
144.4
144.4
144.4
144.4
144.4
144.4
144.4
144.4
144.4
144.4
144.4
144.4
144.4
144.4
144.4
144.4
144.4
144.4
144.4
144.4
144.4
144.4
144.4
144.4
144.4
144.4
144.4
144.4
144.4
144.4
144.4
144.4
144.4
144.4
144.4
144.4
144.4
144.4
144.4
144.4
144.4
144.4
144.4
144.4
144.4
144.4
144.4
144.4
144.4
144.4
144.4
144.4
144.4
144.4
144.4
144.4
144.4
144.4
144.4
144.4
144.4
144.4
144.4
144.4
144.4
144.4
144.4
144.4
144.4
144.4
144.4
144.4
144.4
144.4
144.4
144.4
144.4
144.4
144.4
144.4
144.4
144.4
144.4
144.4
144.4
144.4
144.4
144.4
144.4
144.4
144.4
144.4
144.4
144.4
144.4
144.4
144.4
144.4
144.4
144.4
144.4
144.4
144.4
144.4
144.4
144.4
144.4
144.4
144.4
144.4
144.4
144.4
144.4
144.4
144.4
144.4
144.4
144.4
144.4
144.4
144.4
144.4
144.4
144.4
144.4
144.4
144.4
144.4
144.4
144.4
144.4
144.4
144.4
144.4
144.4
144.4
144.4
144.4
144.4
144.4
144.4
144.4
144.4
144.4
144.4
144.4
144.4
144.4
144.4
144.4
144.4
144.4
144.4
144.4
144.4
144.4
144.4
144.4
144.4
144.4
144.4
144.4
144.4
144.4
144.4
144.4
144.4
144.4
144.4
144.4
144.4
144.4
144.4
144.4
144.4
144.4
144.4
144.4
144.4
144.4
144.4
144.4
144.4
144.4
144.4
144.4
144.4
144.4
144.4
144.4
144.4
144.4
144.4
144.4
144.4
144.4
144.4
144.4
144.4
144.4
144.4
144.4
144.4
144.4
144.4
144.4
144.4
144.4
144.4
144.4
144.4
144.4
144.4
144.4
144.4
144.4
144.4
144.4
144.4
144.4
144.4
144.4
144.4
144.4
144.4
144.4
144.4
144.4
144.4
144.4
144.4
144.4
144.4
144.4
144.4
144.4
144.4
144.4
144.4
144.4
144.4
144.4
144.4
144.4
144.4
144.4
144.4
144.4
144.4
144.4
144.4
144.4
144.4
144.4
144.4
144.4
144.4
144.4
144.4
144.4
144.4
144.4
144.4
144.4
144.4
144.4
144.4
144.4
144.4
144.4
144.4
144.4
144.4
144.4
144.4
144.4
144.4
144.4
144.4
144.4
144.4
144.4
144.4
144.4
144.4
144.4
144.4
144.4
144.4
144.4
144.4
144.4
144.4
144.4
144.4
144.4
144.4
144.4
144.4
144.4
144.4
144.4
144.4
144.4
144.4
144.4
144.4
144.4
144.4
144.4
144.4
144.4
144.4
144.4
144.4
144.4
144.4
144.4
144.4
144.4
144.4
144.4
144.4
144.4
144.4
144.4
144.4
144.4
144.4
144.4
144.4
144.4
144.4
144.4
144.4
144.4
144.4
144.4
144.4
144.4
144.4
144.4
144.4
144.4
144.4
144.4
144.4
144.4
144.4
144.4
144.4
144.4
144.4
144.4
144.4
144.4
144.4
144.4
144.4
144.4
144.4
144.4
144.4
144.4
144.4
144.4
144.4
144.4
144.4
144.4
144.4
144.4
144.4
144.4
144.4
144.4
144.4
144.4
144.4
144.4
144.4
144.4
144.4
144.4
144.4
144.4
144.4
144.4
144.4
144.4
144.4
144.4
144.4
144.4
144.4
144.4
144.4
144.4
144.4
144.4
144.4
144.4
144.4
144.4
144.4
144.4
144.4
144.4
144.4
144.4
144.4
144.4
144.4
144.4
144.4
144.4
144.4
144.4
144.4
144.4
144.4
144.4
144.4
144.4
144.4
144.401
144.401
144.401
144.401
144.401
144.401
144.401
144.401
144.401
144.401
144.401
144.401
144.4
144.4
144.4
144.4
144.4
144.4
144.4
144.4
144.4
144.4
144.4
144.4
144.4
144.4
144.4
144.4
144.4
144.4
144.4
144.4
144.4
144.4
144.4
144.4
144.4
144.4
144.4
144.4
144.4
144.4
144.4
144.4
144.4
144.4
144.4
144.4
144.4
144.4
144.4
144.4
144.4
144.4
144.4
144.4
144.4
144.4
144.4
144.4
144.4
144.4
144.4
144.4
144.4
144.4
144.4
144.4
144.4
144.4
144.4
144.4
144.4
144.4
144.4
144.4
144.4
144.4
144.4
144.4
144.4
144.4
144.4
144.4
144.4
144.4
144.4
144.4
144.4
144.4
144.4
144.4
144.4
144.4
144.4
144.4
144.4
144.4
144.4
144.4
144.4
144.4
144.4
144.4
144.4
144.4
144.4
144.4
144.4
144.4
144.4
144.4
144.4
144.4
144.4
144.4
144.4
144.4
144.4
144.4
144.4
144.4
144.4
144.4
144.4
144.4
144.4
144.4
144.4
144.4
144.4
144.4
144.4
144.4
144.4
144.4
144.4
144.4
144.4
144.4
144.4
144.4
144.4
144.4
144.4
144.4
144.4
144.4
144.4
144.4
144.4
144.4
144.4
144.4
144.4
144.4
144.4
144.4
144.4
144.4
144.4
144.4
144.4
144.4
144.4
144.4
144.4
144.4
144.4
144.4
144.4
144.4
144.4
144.4
144.4
144.4
144.4
144.4
144.4
144.4
144.401
144.401
144.401
144.401
144.401
144.401
144.401
144.401
144.401
144.401
144.401
144.401
144.402
144.402
144.402
144.402
144.402
144.402
144.403
144.403
144.403
144.403
144.404
144.404
144.405
144.405
144.405
144.406
144.406
144.407
144.408
144.408
144.409
144.41
144.411
144.412
144.413
144.414
144.415
144.417
144.417
144.4
144.4
144.4
144.4
144.4
144.4
144.4
144.4
144.4
144.4
144.4
144.4
144.4
144.4
144.4
144.4
144.4
144.4
144.4
144.4
144.4
144.4
144.4
144.4
144.4
144.4
144.4
144.4
144.4
144.4
144.4
144.4
144.4
144.4
144.4
144.4
144.4
144.4
144.4
144.4
144.4
144.4
144.4
144.4
144.4
144.4
144.4
144.4
144.4
144.4
144.4
144.4
144.4
144.4
144.4
144.4
144.4
144.4
144.4
144.4
144.4
144.4
144.4
144.4
144.4
144.4
144.4
144.4
144.4
144.4
144.4
144.4
144.4
144.4
144.4
144.4
144.4
144.4
144.4
144.4
144.4
144.4
144.4
144.4
144.4
144.4
144.4
144.4
144.4
144.4
144.4
144.4
144.4
144.4
144.4
144.4
144.4
144.4
144.4
144.4
144.4
144.4
144.4
144.4
144.4
144.4
144.4
144.4
144.4
144.4
144.4
144.4
144.4
144.4
144.4
144.4
144.4
144.4
144.4
144.4
144.4
144.4
144.4
144.4
144.4
144.4
144.4
144.4
144.4
144.4
144.4
144.4
144.4
144.4
144.4
144.4
144.4
144.4
144.401
144.401
144.401
144.401
144.401
144.401
144.401
144.401
144.401
144.401
144.401
144.401
144.402
144.402
144.402
144.402
144.402
144.402
144.403
144.403
144.403
144.404
144.404
144.404
144.405
144.405
144.406
144.406
144.407
144.407
144.408
144.409
144.41
144.411
144.412
144.413
144.414
144.415
144.417
144.419
144.42
144.422
144.425
144.427
144.43
144.433
144.436
144.439
144.443
144.447
144.452
144.457
144.462
144.468
144.475
144.482
144.489
144.498
144.506
144.516
144.526
144.537
144.55
144.563
144.577
144.592
144.61
144.62
144.4
144.4
144.4
144.4
144.4
144.4
144.4
144.4
144.4
144.4
144.4
144.4
144.4
144.4
144.4
144.4
144.4
144.4
144.4
144.4
144.4
144.4
144.4
144.4
144.4
144.4
144.4
144.4
144.4
144.4
144.4
144.4
144.4
144.4
144.4
144.4
144.4
144.4
144.4
144.4
144.4
144.4
144.4
144.4
144.4
144.4
144.4
144.4
144.4
144.4
144.4
144.4
144.4
144.4
144.4
144.4
144.4
144.4
144.4
144.4
144.4
144.4
144.4
144.4
144.4
144.4
144.4
144.4
144.4
144.4
144.4
144.4
144.4
144.4
144.4
144.4
144.4
144.4
144.4
144.4
144.4
144.4
144.4
144.4
144.4
144.4
144.4
144.4
144.4
144.4
144.4
144.4
144.4
144.4
144.4
144.4
144.4
144.4
144.4
144.4
144.4
144.4
144.4
144.4
144.4
144.4
144.4
144.4
144.4
144.4
144.4
144.4
144.4
144.401
144.401
144.401
144.401
144.401
144.401
144.401
144.401
144.401
144.401
144.401
144.401
144.402
144.402
144.402
144.402
144.402
144.403
144.403
144.403
144.403
144.404
144.404
144.405
144.405
144.406
144.406
144.407
144.407
144.408
144.409
144.41
144.411
144.412
144.413
144.414
144.416
144.417
144.419
144.421
144.423
144.425
144.428
144.431
144.434
144.437
144.441
144.445
144.45
144.455
144.46
144.466
144.473
144.48
144.488
144.497
144.506
144.516
144.527
144.539
144.552
144.566
144.581
144.598
144.616
144.636
144.658
144.682
144.708
144.738
144.77
144.805
144.844
144.888
144.935
144.987
145.044
145.106
145.173
145.247
145.325
145.41
145.501
145.597
145.7
145.808
145.922
146.041
146.166
146.297
146.433
146.581
146.69
144.4
144.4
144.4
144.4
144.4
144.4
144.4
144.4
144.4
144.4
144.4
144.4
144.4
144.4
144.4
144.4
144.4
144.4
144.4
144.4
144.4
144.4
144.4
144.4
144.4
144.4
144.4
144.4
144.4
144.4
144.4
144.4
144.4
144.4
144.4
144.4
144.4
144.4
144.4
144.4
144.4
144.4
144.4
144.4
144.4
144.4
144.4
144.4
144.4
144.4
144.4
144.4
144.4
144.4
144.4
144.4
144.4
144.4
144.4
144.4
144.4
144.4
144.4
144.4
144.4
144.4
144.4
144.4
144.4
144.4
144.4
144.4
144.4
144.4
144.4
144.4
144.4
144.4
144.4
144.4
144.4
144.4
144.4
144.4
144.4
144.4
144.4
144.4
144.4
144.4
144.4
144.401
144.401
144.401
144.401
144.401
144.401
144.401
144.401
144.401
144.401
144.401
144.402
144.402
144.402
144.402
144.402
144.403
144.403
144.403
144.403
144.404
144.404
144.405
144.405
144.406
144.406
144.407
144.408
144.408
144.409
144.41
144.411
144.412
144.414
144.415
144.417
144.418
144.42
144.422
144.424
144.427
144.43
144.433
144.436
144.44
144.444
144.449
144.454
144.46
144.466
144.473
144.48
144.488
144.497
144.507
144.517
144.529
144.541
144.555
144.57
144.586
144.604
144.623
144.645
144.668
144.694
144.723
144.755
144.79
144.828
144.871
144.918
144.97
145.027
145.089
145.157
145.23
145.31
145.396
145.488
145.586
145.69
145.8
145.917
146.039
146.167
146.302
146.443
146.59
146.744
146.907
147.077
147.257
147.447
147.648
147.862
148.088
148.33
148.587
148.86
149.149
149.456
149.779
150.119
150.474
150.843
151.225
151.618
152.021
152.429
152.845
153.263
153.685
154.107
154.518
155.013
144.4
144.4
144.4
144.4
144.4
144.4
144.4
144.4
144.4
144.4
144.4
144.4
144.4
144.4
144.4
144.4
144.4
144.4
144.4
144.4
144.4
144.4
144.4
144.4
144.4
144.4
144.4
144.4
144.4
144.4
144.4
144.4
144.4
144.4
144.4
144.4
144.4
144.4
144.4
144.4
144.4
144.4
144.4
144.4
144.4
144.4
144.4
144.4
144.4
144.4
144.4
144.4
144.4
144.4
144.4
144.4
144.4
144.4
144.4
144.4
144.4
144.4
144.4
144.4
144.4
144.4
144.4
144.4
144.401
144.401
144.401
144.401
144.401
144.401
144.401
144.401
144.401
144.401
144.401
144.402
144.402
144.402
144.402
144.402
144.403
144.403
144.403
144.403
144.404
144.404
144.405
144.405
144.406
144.406
144.407
144.408
144.408
144.409
144.41
144.411
144.413
144.414
144.415
144.417
144.419
144.421
144.423
144.425
144.428
144.431
144.434
144.438
144.442
144.446
144.451
144.457
144.463
144.47
144.477
144.485
144.494
144.503
144.514
144.526
144.538
144.552
144.567
144.584
144.602
144.622
144.643
144.667
144.694
144.723
144.755
144.79
144.83
144.873
144.92
144.973
145.03
145.093
145.162
145.237
145.317
145.404
145.497
145.597
145.703
145.815
145.934
146.059
146.191
146.329
146.475
146.627
146.789
146.958
147.138
147.328
147.529
147.743
147.971
148.213
148.471
148.746
149.037
149.344
149.667
150.007
150.36
150.727
151.106
151.494
151.89
152.291
152.697
153.105
153.515
153.924
154.332
154.739
155.142
155.543
155.94
156.334
156.725
157.113
157.499
157.883
158.266
158.648
159.031
159.414
159.799
160.185
160.573
160.964
161.357
161.753
162.15
162.551
162.959
163.371
163.782
164.181
164.676
144.4
144.4
144.4
144.4
144.4
144.4
144.4
144.4
144.4
144.4
144.4
144.4
144.4
144.4
144.4
144.4
144.4
144.4
144.4
144.4
144.4
144.4
144.4
144.4
144.4
144.4
144.4
144.4
144.4
144.4
144.4
144.4
144.4
144.4
144.4
144.4
144.4
144.4
144.4
144.4
144.4
144.4
144.4
144.4
144.4
144.4
144.4
144.401
144.401
144.401
144.401
144.401
144.401
144.401
144.401
144.401
144.401
144.402
144.402
144.402
144.402
144.402
144.403
144.403
144.403
144.403
144.404
144.404
144.405
144.405
144.406
144.406
144.407
144.408
144.409
144.409
144.41
144.412
144.413
144.414
144.416
144.417
144.419
144.421
144.423
144.426
144.429
144.432
144.435
144.439
144.443
144.448
144.453
144.459
144.465
144.472
144.48
144.489
144.498
144.508
144.52
144.532
144.546
144.561
144.577
144.595
144.614
144.636
144.66
144.686
144.714
144.746
144.781
144.819
144.861
144.908
144.96
145.016
145.078
145.145
145.219
145.298
145.384
145.476
145.575
145.68
145.792
145.911
146.036
146.168
146.307
146.453
146.608
146.77
146.942
147.124
147.317
147.521
147.738
147.969
148.214
148.474
148.75
149.042
149.349
149.671
150.008
150.357
150.719
151.09
151.47
151.856
152.247
152.641
153.037
153.434
153.83
154.226
154.62
155.011
155.4
155.787
156.173
156.556
156.938
157.32
157.702
158.084
158.467
158.852
159.239
159.628
160.019
160.413
160.809
161.207
161.608
162.016
162.426
162.835
163.243
163.65
164.056
164.461
164.864
165.266
165.665
166.063
166.46
166.855
167.249
167.642
168.034
168.426
168.817
169.208
169.6
169.992
170.384
170.778
171.171
171.567
171.969
172.372
172.774
173.161
173.636
144.4
144.4
144.4
144.4
144.4
144.4
144.4
144.4
144.4
144.4
144.4
144.4
144.4
144.4
144.4
144.4
144.4
144.4
144.4
144.4
144.4
144.4
144.4
144.4
144.4
144.401
144.401
144.401
144.401
144.401
144.401
144.401
144.401
144.401
144.401
144.402
144.402
144.402
144.402
144.402
144.403
144.403
144.403
144.403
144.404
144.404
144.405
144.405
144.406
144.406
144.407
144.408
144.409
144.41
144.411
144.412
144.413
144.414
144.416
144.418
144.42
144.422
144.424
144.427
144.43
144.433
144.436
144.44
144.445
144.45
144.455
144.461
144.468
144.475
144.483
144.492
144.502
144.513
144.525
144.539
144.553
144.569
144.586
144.606
144.627
144.65
144.675
144.703
144.734
144.767
144.805
144.846
144.891
144.941
144.995
145.055
145.12
145.191
145.268
145.352
145.442
145.538
145.642
145.751
145.868
145.992
146.122
146.26
146.406
146.559
146.721
146.892
147.073
147.265
147.468
147.683
147.912
148.155
148.412
148.683
148.97
149.271
149.586
149.915
150.255
150.606
150.966
151.334
151.708
152.085
152.466
152.848
153.231
153.613
153.995
154.375
154.754
155.131
155.506
155.881
156.255
156.629
157.004
157.379
157.756
158.136
158.517
158.902
159.289
159.679
160.072
160.468
160.867
161.273
161.679
162.084
162.49
162.894
163.298
163.7
164.101
164.501
164.9
165.297
165.694
166.089
166.484
166.879
167.274
167.669
168.063
168.459
168.854
169.251
169.648
170.046
170.45
170.853
171.255
171.654
172.051
172.447
172.84
173.233
173.623
174.013
174.401
174.788
175.174
175.56
175.945
176.33
176.714
177.099
177.483
177.868
178.253
178.637
179.022
179.408
179.793
180.178
180.561
180.942
181.313
181.746
144.4
144.4
144.4
144.4
144.4
144.4
144.4
144.4
144.4
144.4
144.4
144.4
144.4
144.402
144.402
144.402
144.402
144.402
144.403
144.403
144.403
144.404
144.404
144.404
144.405
144.405
144.406
144.407
144.407
144.408
144.409
144.41
144.411
144.412
144.414
144.415
144.417
144.419
144.421
144.423
144.425
144.428
144.431
144.435
144.438
144.443
144.447
144.452
144.458
144.465
144.472
144.48
144.488
144.498
144.508
144.52
144.533
144.547
144.563
144.58
144.599
144.619
144.642
144.667
144.694
144.724
144.757
144.793
144.833
144.877
144.925
144.977
145.035
145.098
145.167
145.242
145.323
145.41
145.504
145.605
145.712
145.826
145.948
146.076
146.212
146.356
146.508
146.668
146.837
147.015
147.204
147.404
147.616
147.84
148.078
148.329
148.593
148.872
149.164
149.469
149.787
150.116
150.455
150.803
151.158
151.518
151.883
152.25
152.619
152.989
153.359
153.729
154.098
154.465
154.833
155.199
155.566
155.932
156.3
156.668
157.039
157.411
157.787
158.165
158.546
158.93
159.317
159.706
160.099
160.497
160.896
161.295
161.693
162.091
162.488
162.883
163.278
163.671
164.064
164.456
164.847
165.238
165.629
166.021
166.413
166.805
167.198
167.593
167.988
168.385
168.783
169.187
169.59
169.99
170.389
170.787
171.183
171.578
171.972
172.365
172.757
173.148
173.538
173.928
174.318
174.708
175.097
175.487
175.876
176.265
176.654
177.044
177.433
177.821
178.209
178.595
178.979
179.361
179.741
180.12
180.498
180.875
181.252
181.627
182.002
182.376
182.75
183.124
183.496
183.869
184.241
184.612
184.983
185.352
185.721
186.089
186.455
186.82
187.183
187.544
187.903
188.262
188.617
188.989
144.4
144.4
144.4
144.4
144.4
144.4
144.4
144.4
144.4
144.4
144.4
144.4
144.412
144.413
144.415
144.416
144.418
144.42
144.422
144.425
144.428
144.431
144.434
144.438
144.442
144.446
144.451
144.457
144.463
144.47
144.478
144.486
144.496
144.506
144.518
144.531
144.545
144.56
144.577
144.596
144.616
144.639
144.663
144.69
144.72
144.753
144.789
144.828
144.871
144.918
144.97
145.026
145.088
145.155
145.228
145.308
145.393
145.485
145.584
145.689
145.802
145.922
146.049
146.183
146.325
146.475
146.633
146.8
146.977
147.163
147.36
147.568
147.788
148.02
148.264
148.522
148.792
149.076
149.371
149.678
149.996
150.324
150.659
151.002
151.35
151.702
152.056
152.413
152.771
153.129
153.488
153.846
154.204
154.562
154.92
155.279
155.638
155.999
156.362
156.727
157.095
157.465
157.839
158.215
158.595
158.978
159.363
159.752
160.143
160.535
160.926
161.317
161.708
162.097
162.486
162.874
163.261
163.648
164.035
164.422
164.81
165.197
165.586
165.976
166.366
166.758
167.151
167.545
167.944
168.342
168.739
169.134
169.527
169.92
170.311
170.701
171.091
171.48
171.868
172.256
172.644
173.032
173.42
173.808
174.197
174.586
174.975
175.365
175.755
176.145
176.534
176.922
177.308
177.693
178.076
178.459
178.841
179.222
179.603
179.983
180.363
180.742
181.121
181.5
181.878
182.255
182.632
183.008
183.383
183.756
184.128
184.499
184.867
185.234
185.6
185.963
186.326
186.688
187.049
187.409
187.768
188.127
188.484
188.84
189.195
189.549
189.902
190.253
190.603
190.951
191.297
191.642
191.985
192.326
192.665
193.002
193.337
193.67
194.002
194.331
194.659
194.991
195.273
144.4
144.4
144.4
144.4
144.4
144.4
144.4
144.4
144.4
144.4
144.488
144.498
144.508
144.52
144.533
144.547
144.563
144.58
144.599
144.62
144.643
144.668
144.696
144.726
144.759
144.796
144.835
144.879
144.926
144.978
145.035
145.097
145.164
145.237
145.315
145.4
145.492
145.59
145.695
145.807
145.926
146.053
146.187
146.329
146.478
146.636
146.803
146.978
147.163
147.358
147.564
147.781
148.009
148.249
148.501
148.765
149.041
149.329
149.627
149.935
150.252
150.577
150.908
151.245
151.585
151.929
152.274
152.621
152.969
153.317
153.666
154.014
154.364
154.714
155.065
155.417
155.771
156.128
156.487
156.85
157.215
157.584
157.955
158.33
158.707
159.087
159.471
159.855
160.239
160.622
161.006
161.389
161.771
162.153
162.535
162.917
163.298
163.681
164.064
164.447
164.832
165.218
165.605
165.993
166.382
166.775
167.168
167.561
167.952
168.342
168.73
169.118
169.505
169.892
170.278
170.664
171.049
171.435
171.821
172.207
172.594
172.98
173.367
173.754
174.142
174.529
174.916
175.302
175.686
176.069
176.451
176.832
177.212
177.592
177.971
178.351
178.73
179.108
179.487
179.865
180.243
180.62
180.997
181.373
181.749
182.124
182.497
182.869
183.24
183.61
183.979
184.347
184.714
185.08
185.446
185.811
186.176
186.539
186.902
187.263
187.623
187.982
188.34
188.696
189.05
189.403
189.754
190.103
190.45
190.796
191.139
191.481
191.822
192.161
192.498
192.834
193.168
193.501
193.832
194.16
194.487
194.812
195.134
195.455
195.773
196.088
196.401
196.712
197.02
197.325
197.628
197.928
198.225
198.52
198.812
199.101
199.389
199.671
199.952
200.242
200.408
144.401
144.401
144.401
144.401
144.401
144.401
144.402
144.402
144.402
145.009
145.067
145.131
145.2
145.274
145.355
145.442
145.535
145.635
145.741
145.855
145.976
146.104
146.24
146.383
146.534
146.693
146.861
147.038
147.224
147.419
147.625
147.841
148.068
148.306
148.555
148.816
149.087
149.369
149.66
149.961
150.27
150.586
150.908
151.235
151.566
151.899
152.234
152.571
152.909
153.248
153.587
153.928
154.269
154.611
154.955
155.301
155.65
156.001
156.355
156.712
157.072
157.435
157.802
158.171
158.542
158.917
159.293
159.669
160.046
160.422
160.797
161.173
161.549
161.924
162.3
162.676
163.053
163.431
163.81
164.19
164.571
164.954
165.338
165.723
166.111
166.499
166.885
167.27
167.655
168.039
168.422
168.804
169.187
169.569
169.951
170.334
170.717
171.1
171.483
171.867
172.251
172.636
173.02
173.404
173.788
174.17
174.551
174.931
175.31
175.689
176.067
176.446
176.823
177.201
177.579
177.956
178.333
178.71
179.086
179.462
179.837
180.211
180.584
180.956
181.327
181.697
182.065
182.433
182.801
183.167
183.533
183.899
184.263
184.627
184.991
185.353
185.714
186.075
186.434
186.792
187.149
187.504
187.859
188.212
188.564
188.914
189.264
189.612
189.959
190.305
190.65
190.993
191.335
191.676
192.014
192.351
192.686
193.02
193.351
193.68
194.007
194.332
194.654
194.974
195.292
195.607
195.92
196.231
196.539
196.845
197.148
197.449
197.747
198.043
198.335
198.625
198.912
199.196
199.477
199.755
200.029
200.3
200.568
200.832
201.093
201.351
201.604
201.855
202.101
202.343
202.582
202.816
203.046
203.272
203.495
203.711
203.92
204.145
204.177
144.405
144.406
146.993
147.174
147.364
147.563
147.771
147.99
148.219
148.458
148.707
148.967
149.237
149.516
149.804
150.1
150.403
150.712
151.027
151.345
151.667
151.991
152.317
152.645
152.974
153.304
153.635
153.967
154.301
154.637
154.975
155.315
155.658
156.004
156.354
156.706
157.062
157.42
157.782
158.145
158.512
158.88
159.248
159.616
159.985
160.353
160.722
161.09
161.46
161.829
162.2
162.571
162.943
163.317
163.692
164.069
164.446
164.825
165.206
165.588
165.969
166.348
166.728
167.106
167.485
167.863
168.241
168.619
168.997
169.376
169.755
170.134
170.514
170.894
171.274
171.654
172.035
172.415
172.794
173.172
173.549
173.926
174.303
174.679
175.054
175.43
175.806
176.181
176.556
176.931
177.306
177.68
178.054
178.427
178.799
179.171
179.541
179.91
180.279
180.646
181.014
181.38
181.746
182.112
182.476
182.841
183.204
183.567
183.928
184.289
184.649
185.007
185.365
185.721
186.076
186.429
186.782
187.134
187.484
187.834
188.182
188.529
188.875
189.22
189.564
189.906
190.247
190.586
190.924
191.26
191.595
191.928
192.259
192.589
192.918
193.244
193.569
193.892
194.214
194.533
194.851
195.167
195.48
195.791
196.1
196.407
196.711
197.013
197.311
197.607
197.901
198.191
198.479
198.763
199.044
199.322
199.597
199.869
200.137
200.402
200.663
200.921
201.175
201.426
201.673
201.916
202.156
202.391
202.622
202.849
203.072
203.29
203.503
203.712
203.916
204.115
204.309
204.498
204.681
204.859
205.031
205.198
205.358
205.513
205.661
205.803
205.938
206.066
206.184
206.287
206.368
206.322
151.281
151.593
151.907
152.224
152.543
152.862
153.184
153.506
153.83
154.156
154.484
154.814
155.147
155.483
155.821
156.163
156.508
156.856
157.208
157.561
157.917
158.276
158.635
158.995
159.356
159.716
160.077
160.438
160.8
161.163
161.526
161.891
162.256
162.624
162.992
163.362
163.733
164.106
164.48
164.855
165.229
165.603
165.977
166.35
166.722
167.095
167.468
167.841
168.215
168.589
168.963
169.338
169.713
170.089
170.464
170.84
171.216
171.591
171.965
172.339
172.712
173.085
173.457
173.83
174.202
174.575
174.947
175.319
175.691
176.063
176.434
176.805
177.175
177.545
177.913
178.281
178.648
179.015
179.38
179.746
180.111
180.475
180.839
181.202
181.565
181.927
182.288
182.648
183.007
183.365
183.723
184.079
184.434
184.788
185.141
185.493
185.844
186.194
186.543
186.891
187.238
187.584
187.929
188.272
188.614
188.955
189.294
189.632
189.969
190.303
190.637
190.969
191.299
191.628
191.956
192.281
192.606
192.928
193.249
193.568
193.885
194.2
194.514
194.825
195.134
195.441
195.746
196.049
196.35
196.648
196.944
197.238
197.529
197.818
198.104
198.388
198.669
198.947
199.222
199.494
199.762
200.028
200.29
200.548
200.804
201.055
201.303
201.547
201.787
202.023
202.255
202.483
202.707
202.926
203.141
203.351
203.556
203.757
203.952
204.143
204.329
204.509
204.684
204.853
205.017
205.175
205.327
205.473
205.613
205.747
205.873
205.992
206.103
206.206
206.3
206.386
206.461
206.527
206.583
206.629
206.668
206.701
206.728
206.75
206.766
206.776
206.778
206.766
206.73
206.645
156.494
156.836
157.181
157.528
157.877
158.228
158.579
158.931
159.283
159.636
159.99
160.344
160.699
161.055
161.412
161.771
162.131
162.492
162.855
163.22
163.585
163.953
164.32
164.687
165.054
165.421
165.788
166.154
166.522
166.889
167.257
167.625
167.994
168.363
168.733
169.103
169.474
169.844
170.215
170.585
170.954
171.323
171.692
172.061
172.429
172.798
173.166
173.535
173.903
174.271
174.639
175.007
175.375
175.742
176.108
176.474
176.839
177.203
177.567
177.931
178.294
178.657
179.019
179.381
179.742
180.103
180.463
180.822
181.18
181.538
181.895
182.251
182.605
182.959
183.313
183.665
184.016
184.367
184.717
185.065
185.413
185.76
186.106
186.45
186.794
187.136
187.477
187.817
188.155
188.492
188.828
189.162
189.495
189.827
190.158
190.487
190.814
191.14
191.465
191.788
192.109
192.428
192.746
193.062
193.376
193.689
193.999
194.308
194.615
194.919
195.222
195.523
195.821
196.117
196.411
196.703
196.992
197.279
197.563
197.845
198.124
198.4
198.674
198.945
199.213
199.478
199.74
199.999
200.255
200.508
200.757
201.003
201.246
201.485
201.72
201.952
202.179
202.403
202.623
202.838
203.049
203.256
203.458
203.655
203.847
204.034
204.216
204.393
204.564
204.73
204.89
205.045
205.193
205.336
205.472
205.603
205.726
205.843
205.953
206.055
206.148
206.234
206.31
206.377
206.434
206.481
206.521
206.555
206.582
206.603
206.619
206.629
206.634
206.635
206.633
206.627
206.62
206.611
206.601
206.591
206.574
206.551
206.523
206.489
206.451
206.406
206.353
206.281
206.186
206.097
162.564
162.922
163.281
163.641
164.001
164.361
164.72
165.08
165.44
165.8
166.161
166.522
166.884
167.247
167.61
167.973
168.337
168.701
169.066
169.43
169.794
170.158
170.522
170.885
171.249
171.612
171.976
172.34
172.704
173.067
173.431
173.795
174.158
174.521
174.883
175.245
175.607
175.968
176.328
176.688
177.048
177.408
177.767
178.125
178.484
178.842
179.199
179.555
179.911
180.266
180.62
180.973
181.326
181.678
182.029
182.379
182.729
183.078
183.426
183.773
184.12
184.465
184.81
185.153
185.495
185.836
186.176
186.515
186.853
187.189
187.524
187.859
188.192
188.523
188.854
189.183
189.511
189.837
190.162
190.486
190.808
191.128
191.447
191.765
192.08
192.394
192.706
193.017
193.326
193.633
193.938
194.242
194.543
194.843
195.14
195.435
195.728
196.019
196.308
196.595
196.879
197.16
197.44
197.716
197.99
198.262
198.531
198.797
199.06
199.32
199.577
199.832
200.083
200.331
200.575
200.816
201.054
201.289
201.519
201.747
201.97
202.19
202.406
202.618
202.826
203.03
203.23
203.425
203.616
203.802
203.983
204.159
204.331
204.497
204.658
204.813
204.962
205.106
205.245
205.377
205.503
205.623
205.736
205.842
205.941
206.032
206.114
206.188
206.252
206.307
206.352
206.39
206.422
206.447
206.467
206.481
206.49
206.495
206.495
206.492
206.487
206.48
206.472
206.464
206.451
206.432
206.407
206.377
206.341
206.299
206.252
206.2
206.142
206.078
206.008
205.931
205.845
205.751
205.652
205.546
205.434
205.316
205.193
205.061
204.918
204.757
204.565
204.501
167.805
168.163
168.521
168.879
169.237
169.594
169.952
170.31
170.667
171.025
171.383
171.741
172.1
172.458
172.816
173.174
173.531
173.889
174.246
174.602
174.959
175.315
175.67
176.026
176.381
176.736
177.091
177.445
177.799
178.153
178.506
178.858
179.209
179.56
179.91
180.259
180.608
180.956
181.304
181.651
181.997
182.342