/*--------------------------------*- C++ -*----------------------------------*\
| =========                 |                                                 |
| \\      /  F ield         | OpenFOAM: The Open Source CFD Toolbox           |
|  \\    /   O peration     | Version:  v1706                                 |
|   \\  /    A nd           | Web:      www.OpenFOAM.com                      |
|    \\/     M anipulation  |                                                 |
\*---------------------------------------------------------------------------*/
FoamFile
{
    version     2.0;
    format      ascii;
    class       volVectorField;
    location    "5e-06";
    object      U;
}
// * * * * * * * * * * * * * * * * * * * * * * * * * * * * * * * * * * * * * //

dimensions      [0 1 -1 0 0 0 0];


internalField   nonuniform List<vector> 
30104
(
(2764.5 1.03557e-10 1.81676e-15)
(2764.5 1.87886e-10 6.14056e-15)
(2764.5 2.5367e-10 6.57404e-15)
(2764.5 2.9207e-10 3.97676e-15)
(2764.5 3.12174e-10 4.04473e-15)
(2764.5 3.19814e-10 3.84017e-15)
(2764.5 3.15599e-10 2.23984e-15)
(2764.5 2.99791e-10 2.6064e-15)
(2764.5 2.68298e-10 4.15955e-15)
(2764.5 2.18881e-10 4.42787e-15)
(2764.5 1.60262e-10 2.60844e-15)
(2764.5 8.93158e-11 4.10024e-15)
(2764.5 1.97619e-11 2.55368e-16)
(2764.5 -5.61719e-11 1.49845e-15)
(2764.5 -1.34827e-10 3.92544e-15)
(2764.5 -2.03357e-10 5.48262e-15)
(2764.5 -2.67435e-10 2.52917e-15)
(2764.5 8.40364e-10 3.50061e-15)
(2764.5 8.81606e-10 5.27814e-15)
(2764.5 9.20489e-10 5.17679e-15)
(2764.5 9.64884e-10 5.13148e-15)
(2764.5 1.01125e-09 4.92849e-15)
(2764.5 1.05414e-09 5.08776e-15)
(2764.5 1.09853e-09 4.17981e-15)
(2764.5 1.1463e-09 5.91442e-15)
(2764.5 1.19454e-09 5.70815e-15)
(2764.5 1.24577e-09 4.34855e-15)
(2764.5 1.29633e-09 4.67324e-15)
(2764.5 1.34784e-09 3.83432e-15)
(2764.5 1.40461e-09 6.23338e-15)
(2764.5 1.4627e-09 5.83182e-15)
(2764.5 1.51869e-09 2.25859e-15)
(2764.5 1.58478e-09 3.24389e-15)
(2764.5 1.65003e-09 3.98019e-15)
(2764.5 1.71206e-09 3.44464e-15)
(2764.5 1.78302e-09 6.00238e-15)
(2764.5 1.85176e-09 3.45185e-15)
(2764.5 1.92342e-09 5.60425e-15)
(2764.5 2.00017e-09 6.21778e-15)
(2764.5 2.08322e-09 4.1155e-15)
(2764.5 2.16574e-09 4.24425e-15)
(2764.5 2.25293e-09 4.30784e-15)
(2764.5 2.34275e-09 4.04545e-15)
(2764.5 2.43676e-09 4.12257e-15)
(2764.5 2.53738e-09 4.29525e-15)
(2764.5 2.64278e-09 4.2346e-15)
(2764.5 2.74804e-09 4.57197e-15)
(2764.5 2.85356e-09 2.86731e-15)
(2764.5 2.957e-09 5.01138e-15)
(2764.5 3.05753e-09 5.7589e-15)
(2764.5 3.15395e-09 4.2418e-15)
(2764.5 3.24035e-09 3.32559e-15)
(2764.5 3.31471e-09 3.69698e-15)
(2764.5 3.36891e-09 4.86911e-15)
(2764.5 3.40574e-09 3.51226e-15)
(2764.5 3.41919e-09 4.0338e-15)
(2764.5 3.40654e-09 4.71379e-15)
(2764.5 3.36179e-09 3.75719e-15)
(2764.5 3.28557e-09 4.40529e-15)
(2764.5 3.17851e-09 4.30481e-15)
(2764.5 3.04362e-09 5.01844e-15)
(2764.5 2.88979e-09 5.82952e-15)
(2764.5 2.72903e-09 4.2862e-15)
(2764.5 2.57942e-09 4.29822e-15)
(2764.5 2.45813e-09 3.475e-15)
(2764.5 2.37664e-09 4.55343e-15)
(2764.5 2.34928e-09 2.04569e-15)
(2764.5 2.39157e-09 5.02792e-15)
(2764.5 2.51428e-09 4.04059e-15)
(2764.5 2.74769e-09 2.18324e-15)
(2764.5 3.09923e-09 3.30849e-15)
(2764.5 3.57e-09 4.23731e-15)
(2764.5 4.1698e-09 1.64923e-15)
(2764.5 4.90661e-09 3.87887e-15)
(2764.5 5.7866e-09 4.18062e-15)
(2764.5 6.80334e-09 3.38769e-15)
(2764.5 7.93757e-09 3.39605e-15)
(2764.5 9.17602e-09 2.1947e-15)
(2764.5 1.05059e-08 4.19608e-15)
(2764.5 1.19052e-08 4.66539e-15)
(2764.5 1.33343e-08 2.96418e-15)
(2764.5 1.47662e-08 5.65766e-15)
(2764.5 1.61793e-08 4.888e-15)
(2764.5 1.75728e-08 4.16004e-15)
(2764.5 1.89191e-08 4.62612e-15)
(2764.5 2.02162e-08 4.11286e-15)
(2764.5 2.14641e-08 4.36547e-15)
(2764.5 2.26697e-08 3.68504e-15)
(2764.5 2.38299e-08 3.43861e-15)
(2764.5 2.49422e-08 3.46064e-15)
(2764.5 2.6006e-08 1.93894e-15)
(2764.5 2.70175e-08 4.45511e-15)
(2764.5 2.79553e-08 5.05086e-15)
(2764.5 2.88084e-08 3.89983e-15)
(2764.5 2.95571e-08 1.82491e-15)
(2764.5 3.01596e-08 1.66479e-15)
(2764.5 3.0604e-08 3.14744e-15)
(2764.5 3.08602e-08 2.14785e-15)
(2764.5 3.08589e-08 2.7858e-15)
(2764.5 3.05404e-08 2.12606e-15)
(2764.5 2.98391e-08 1.79556e-15)
(2764.5 2.8632e-08 4.60399e-15)
(2764.5 2.68933e-08 4.8042e-15)
(2764.5 2.46147e-08 3.97015e-15)
(2764.5 2.17909e-08 2.82966e-15)
(2764.5 1.847e-08 3.00328e-15)
(2764.5 1.47508e-08 3.98456e-15)
(2764.5 1.07532e-08 3.71095e-15)
(2764.5 6.62607e-09 4.07126e-15)
(2764.5 2.56121e-09 4.79807e-15)
(2764.5 -1.22528e-09 3.99349e-15)
(2764.5 -4.5107e-09 1.0933e-15)
(2764.5 -7.05986e-09 3.30105e-15)
(2764.5 -8.61249e-09 2.03184e-15)
(2764.5 -8.922e-09 5.01901e-16)
(2764.5 -7.7329e-09 3.22734e-15)
(2764.5 -4.812e-09 3.31563e-15)
(2764.5 3.28977e-11 3.34988e-15)
(2764.5 6.94889e-09 3.30311e-15)
(2764.5 1.60333e-08 2.58704e-15)
(2764.5 2.7364e-08 2.676e-15)
(2764.5 4.10525e-08 2.45328e-15)
(2764.5 5.70983e-08 3.20494e-15)
(2764.5 7.53645e-08 1.92674e-15)
(2764.5 9.56052e-08 9.33098e-16)
(2764.5 1.17467e-07 3.52066e-15)
(2764.5 1.40488e-07 4.15484e-15)
(2764.5 1.64121e-07 3.47076e-15)
(2764.5 1.87803e-07 3.88845e-15)
(2764.5 2.10987e-07 3.38014e-15)
(2764.5 2.33255e-07 3.17539e-15)
(2764.5 2.54396e-07 1.97438e-15)
(2764.5 2.74327e-07 2.49404e-15)
(2764.5 2.9312e-07 3.17824e-15)
(2764.5 3.10872e-07 3.45419e-15)
(2764.5 3.27753e-07 3.44294e-15)
(2764.5 3.43942e-07 3.01196e-15)
(2764.5 3.59579e-07 3.61698e-15)
(2764.5 3.74768e-07 2.01906e-15)
(2764.5 3.89553e-07 3.54414e-15)
(2764.5 4.03931e-07 4.68503e-15)
(2764.5 4.17829e-07 1.99632e-15)
(2764.5 4.31128e-07 9.50651e-16)
(2764.5 4.43665e-07 1.83827e-15)
(2764.5 4.55281e-07 1.96219e-15)
(2764.5 4.65773e-07 3.19587e-15)
(2764.5 4.7416e-07 1.69201e-15)
(2764.5 4.7943e-07 2.76383e-15)
(2764.5 4.81084e-07 3.22467e-15)
(2764.5 4.78329e-07 2.47043e-15)
(2764.5 4.70119e-07 3.0561e-15)
(2764.5 4.55332e-07 2.17998e-15)
(2764.5 4.32959e-07 3.25863e-15)
(2764.5 4.01961e-07 2.08061e-15)
(2764.5 3.60943e-07 2.87425e-15)
(2764.5 3.08674e-07 2.62703e-15)
(2764.5 2.44586e-07 2.21968e-15)
(2764.5 1.69151e-07 3.49052e-15)
(2764.5 8.38794e-08 3.95037e-15)
(2764.5 -9.27748e-09 3.24518e-15)
(2764.5 -1.0811e-07 3.47769e-15)
(2764.5 -2.09896e-07 2.2107e-15)
(2764.5 -3.11046e-07 2.47375e-15)
(2764.5 -4.07461e-07 4.09083e-15)
(2764.5 -4.94587e-07 3.45629e-15)
(2764.5 -5.67477e-07 2.12539e-15)
(2764.5 -6.2099e-07 1.52457e-15)
(2764.5 -6.49977e-07 3.34547e-15)
(2764.5 -6.49365e-07 1.61606e-15)
(2764.5 -6.14372e-07 2.49225e-15)
(2764.5 -5.40833e-07 2.22926e-15)
(2764.5 -4.25436e-07 2.52317e-15)
(2764.5 -2.65882e-07 3.32123e-15)
(2764.5 -6.07098e-08 2.68951e-15)
(2764.5 1.91902e-07 3.25239e-15)
(2764.5 4.93934e-07 2.87331e-15)
(2764.5 8.45118e-07 2.02708e-15)
(2764.5 1.24277e-06 1.91779e-15)
(2764.5 1.68249e-06 3.14267e-15)
(2764.5 2.15788e-06 1.38395e-15)
(2764.5 2.6602e-06 2.77344e-15)
(2764.5 3.17739e-06 2.60763e-15)
(2764.5 3.69542e-06 2.0602e-15)
(2764.5 4.20114e-06 3.52786e-15)
(2764.5 4.6836e-06 2.63139e-15)
(2764.5 5.13578e-06 2.53605e-15)
(2764.5 5.55632e-06 1.42856e-15)
(2764.5 5.94702e-06 3.11117e-15)
(2764.5 6.31196e-06 2.85406e-15)
(2764.5 6.65578e-06 2.43091e-15)
(2764.5 6.98385e-06 2.38022e-15)
(2764.5 7.30124e-06 1.99546e-15)
(2764.5 7.61204e-06 1.80568e-15)
(2764.5 7.91958e-06 2.83572e-15)
(2764.5 8.22673e-06 2.63394e-15)
(2764.5 8.53505e-06 1.88333e-15)
(2764.5 8.84654e-06 2.3488e-15)
(2764.5 9.15993e-06 1.82068e-15)
(2764.5 9.47742e-06 2.15695e-15)
(2764.5 9.79492e-06 3.09423e-15)
(2764.5 1.01136e-05 2.06857e-15)
(2764.5 1.04326e-05 2.82654e-15)
(2764.5 1.07408e-05 2.81667e-15)
(2764.5 1.10412e-05 1.32893e-15)
(2764.5 1.13136e-05 2.63774e-15)
(2764.5 1.15311e-05 3.18763e-15)
(2764.5 1.17898e-05 3.01511e-15)
(2764.5 1.17484e-05 2.86407e-15)
(2764.5 1.21447e-05 2.85474e-15)
(2764.5 1.07539e-05 2.59672e-15)
(2764.5 -1.18631e-10 1.12302e-14)
(2764.5 -3.47718e-10 1.32726e-14)
(2764.5 -5.52796e-10 9.19756e-15)
(2764.5 -6.92265e-10 8.86556e-15)
(2764.5 -8.2425e-10 9.47357e-15)
(2764.5 -9.33885e-10 8.80689e-15)
(2764.5 -1.00495e-09 8.09753e-15)
(2764.5 -1.04961e-09 1.07495e-14)
(2764.5 -1.06742e-09 1.27086e-14)
(2764.5 -1.05939e-09 1.11742e-14)
(2764.5 -1.01691e-09 1.05628e-14)
(2764.5 -9.45197e-10 1.3324e-14)
(2764.5 -8.42977e-10 1.57842e-14)
(2764.5 -7.20732e-10 1.52629e-14)
(2764.5 -5.7674e-10 1.47972e-14)
(2764.5 -3.82201e-10 1.59424e-14)
(2764.5 -1.52365e-10 1.23329e-14)
(2764.5 4.66264e-09 6.24839e-15)
(2764.5 4.97205e-09 8.98002e-15)
(2764.5 5.29135e-09 1.1222e-14)
(2764.5 5.62582e-09 1.07601e-14)
(2764.5 5.97886e-09 1.03391e-14)
(2764.5 6.33619e-09 1.0898e-14)
(2764.5 6.70473e-09 8.65507e-15)
(2764.5 7.06657e-09 1.03168e-14)
(2764.5 7.43771e-09 1.19791e-14)
(2764.5 7.80493e-09 9.28388e-15)
(2764.5 8.17382e-09 7.38074e-15)
(2764.5 8.54299e-09 9.01758e-15)
(2764.5 8.8976e-09 9.56282e-15)
(2764.5 9.23771e-09 9.39729e-15)
(2764.5 9.55763e-09 6.72502e-15)
(2764.5 9.85016e-09 7.82072e-15)
(2764.5 1.01314e-08 8.09175e-15)
(2764.5 1.03943e-08 7.5061e-15)
(2764.5 1.06276e-08 1.12605e-14)
(2764.5 1.08342e-08 9.56475e-15)
(2764.5 1.10047e-08 1.01088e-14)
(2764.5 1.11468e-08 1.07441e-14)
(2764.5 1.12739e-08 1.00688e-14)
(2764.5 1.1396e-08 9.61371e-15)
(2764.5 1.15138e-08 9.27563e-15)
(2764.5 1.16603e-08 9.02458e-15)
(2764.5 1.1844e-08 8.91633e-15)
(2764.5 1.20881e-08 8.88078e-15)
(2764.5 1.24251e-08 8.48536e-15)
(2764.5 1.28687e-08 9.23836e-15)
(2764.5 1.3443e-08 7.41971e-15)
(2764.5 1.41817e-08 1.02698e-14)
(2764.5 1.51217e-08 9.45677e-15)
(2764.5 1.62826e-08 8.68093e-15)
(2764.5 1.77078e-08 6.55276e-15)
(2764.5 1.94104e-08 8.34944e-15)
(2764.5 2.14233e-08 1.04967e-14)
(2764.5 2.37667e-08 7.63991e-15)
(2764.5 2.64632e-08 7.99218e-15)
(2764.5 2.95137e-08 1.00787e-14)
(2764.5 3.29377e-08 9.52253e-15)
(2764.5 3.67123e-08 1.1009e-14)
(2764.5 4.08055e-08 8.78764e-15)
(2764.5 4.51823e-08 8.5882e-15)
(2764.5 4.97771e-08 1.14151e-14)
(2764.5 5.45234e-08 9.59733e-15)
(2764.5 5.93622e-08 7.04192e-15)
(2764.5 6.42232e-08 6.54535e-15)
(2764.5 6.90506e-08 1.02434e-14)
(2764.5 7.37946e-08 7.06415e-15)
(2764.5 7.8406e-08 8.68473e-15)
(2764.5 8.28561e-08 9.11668e-15)
(2764.5 8.70998e-08 8.55613e-15)
(2764.5 9.11003e-08 8.4648e-15)
(2764.5 9.48311e-08 6.14385e-15)
(2764.5 9.82471e-08 6.51219e-15)
(2764.5 1.01292e-07 8.45434e-15)
(2764.5 1.03907e-07 8.33435e-15)
(2764.5 1.06052e-07 1.02964e-14)
(2764.5 1.07655e-07 8.76877e-15)
(2764.5 1.08643e-07 7.10958e-15)
(2764.5 1.08948e-07 7.94789e-15)
(2764.5 1.08527e-07 8.1714e-15)
(2764.5 1.07397e-07 7.74788e-15)
(2764.5 1.05596e-07 9.85816e-15)
(2764.5 1.03193e-07 9.71641e-15)
(2764.5 1.00349e-07 7.88522e-15)
(2764.5 9.72733e-08 6.87786e-15)
(2764.5 9.4196e-08 9.31917e-15)
(2764.5 9.14117e-08 8.32222e-15)
(2764.5 8.92119e-08 7.90926e-15)
(2764.5 8.79042e-08 7.36669e-15)
(2764.5 8.78084e-08 7.17867e-15)
(2764.5 8.92534e-08 6.87179e-15)
(2764.5 9.25896e-08 1.01782e-14)
(2764.5 9.81883e-08 8.76354e-15)
(2764.5 1.06425e-07 6.71535e-15)
(2764.5 1.17744e-07 5.86589e-15)
(2764.5 1.32571e-07 6.14431e-15)
(2764.5 1.51376e-07 6.09091e-15)
(2764.5 1.74603e-07 3.97332e-15)
(2764.5 2.02655e-07 5.01765e-15)
(2764.5 2.35909e-07 6.03406e-15)
(2764.5 2.74707e-07 7.68873e-15)
(2764.5 3.19271e-07 8.14744e-15)
(2764.5 3.69635e-07 7.8812e-15)
(2764.5 4.25625e-07 6.75463e-15)
(2764.5 4.86782e-07 6.15799e-15)
(2764.5 5.52316e-07 7.63304e-15)
(2764.5 6.21159e-07 7.5754e-15)
(2764.5 6.9209e-07 8.45456e-15)
(2764.5 7.63835e-07 8.50459e-15)
(2764.5 8.35226e-07 7.96312e-15)
(2764.5 9.05334e-07 7.02365e-15)
(2764.5 9.73473e-07 4.04824e-15)
(2764.5 1.03922e-06 6.64165e-15)
(2764.5 1.10233e-06 4.23072e-15)
(2764.5 1.16266e-06 5.64621e-15)
(2764.5 1.22008e-06 8.37504e-15)
(2764.5 1.2744e-06 6.25968e-15)
(2764.5 1.32533e-06 6.91247e-15)
(2764.5 1.37244e-06 5.82629e-15)
(2764.5 1.41513e-06 6.23428e-15)
(2764.5 1.45262e-06 7.24115e-15)
(2764.5 1.48394e-06 7.57303e-15)
(2764.5 1.50814e-06 6.63807e-15)
(2764.5 1.5242e-06 5.7936e-15)
(2764.5 1.53063e-06 6.97393e-15)
(2764.5 1.52559e-06 6.63053e-15)
(2764.5 1.50764e-06 6.57725e-15)
(2764.5 1.47599e-06 9.08196e-15)
(2764.5 1.43034e-06 9.96099e-15)
(2764.5 1.37111e-06 6.56723e-15)
(2764.5 1.29953e-06 6.82009e-15)
(2764.5 1.2177e-06 6.88953e-15)
(2764.5 1.12868e-06 5.589e-15)
(2764.5 1.03623e-06 7.72845e-15)
(2764.5 9.44562e-07 8.87346e-15)
(2764.5 8.58006e-07 6.82765e-15)
(2764.5 7.80787e-07 6.9978e-15)
(2764.5 7.17094e-07 5.78602e-15)
(2764.5 6.71243e-07 4.12332e-15)
(2764.5 6.47921e-07 8.07506e-15)
(2764.5 6.52319e-07 8.34516e-15)
(2764.5 6.9021e-07 5.78725e-15)
(2764.5 7.68024e-07 4.75325e-15)
(2764.5 8.9265e-07 4.67829e-15)
(2764.5 1.07144e-06 5.04912e-15)
(2764.5 1.31204e-06 4.93959e-15)
(2764.5 1.62224e-06 4.76646e-15)
(2764.5 2.01014e-06 7.08458e-15)
(2764.5 2.48363e-06 4.22082e-15)
(2764.5 3.05003e-06 4.64454e-15)
(2764.5 3.71594e-06 5.4073e-15)
(2764.5 4.48693e-06 5.86347e-15)
(2764.5 5.36672e-06 7.3397e-15)
(2764.5 6.35602e-06 5.61289e-15)
(2764.5 7.451e-06 5.18682e-15)
(2764.5 8.64204e-06 5.31193e-15)
(2764.5 9.91292e-06 6.64988e-15)
(2764.5 1.12413e-05 6.89529e-15)
(2764.5 1.26007e-05 7.02774e-15)
(2764.5 1.39647e-05 6.78064e-15)
(2764.5 1.53101e-05 6.58201e-15)
(2764.5 1.66196e-05 7.0441e-15)
(2764.5 1.78823e-05 6.46633e-15)
(2764.5 1.90937e-05 5.73124e-15)
(2764.5 2.02541e-05 6.97807e-15)
(2764.5 2.13661e-05 5.87732e-15)
(2764.5 2.2433e-05 4.90534e-15)
(2764.5 2.34581e-05 6.28134e-15)
(2764.5 2.44426e-05 5.88399e-15)
(2764.5 2.53847e-05 7.11406e-15)
(2764.5 2.62807e-05 6.96976e-15)
(2764.5 2.71242e-05 6.50514e-15)
(2764.5 2.79041e-05 6.66446e-15)
(2764.5 2.8604e-05 6.43641e-15)
(2764.5 2.91993e-05 7.10435e-15)
(2764.5 2.96773e-05 6.54075e-15)
(2764.5 3.00347e-05 5.7655e-15)
(2764.5 3.02205e-05 6.27245e-15)
(2764.5 3.02002e-05 5.73184e-15)
(2764.5 2.9941e-05 5.19949e-15)
(2764.5 2.94062e-05 5.44149e-15)
(2764.5 2.85451e-05 4.46087e-15)
(2764.5 2.73656e-05 4.89274e-15)
(2764.5 2.58715e-05 6.39099e-15)
(2764.5 2.40684e-05 6.19678e-15)
(2764.5 2.19807e-05 5.86582e-15)
(2764.5 1.96488e-05 6.09568e-15)
(2764.5 1.7128e-05 5.60264e-15)
(2764.5 1.44842e-05 3.70381e-15)
(2764.5 1.17893e-05 5.71239e-15)
(2764.5 9.11352e-06 6.24733e-15)
(2764.5 6.52487e-06 4.93153e-15)
(2764.5 4.0894e-06 5.06821e-15)
(2764.5 1.8765e-06 4.96642e-15)
(2764.5 -3.08511e-08 5.1144e-15)
(2764.5 -1.5448e-06 4.60837e-15)
(2764.5 -2.54532e-06 4.79644e-15)
(2764.5 -2.92341e-06 4.85493e-15)
(2764.5 -2.54447e-06 4.71383e-15)
(2764.5 -1.21729e-06 4.93834e-15)
(2764.5 1.02661e-06 4.95054e-15)
(2764.5 4.82656e-06 3.94833e-15)
(2764.5 9.30341e-06 3.72185e-15)
(2764.5 1.65771e-05 5.4487e-15)
(2764.5 2.36527e-05 5.67053e-15)
(2764.5 3.52428e-05 6.13668e-15)
(2764.5 4.59362e-05 6.45985e-15)
(2764.5 6.17069e-05 5.96185e-15)
(2764.5 7.70047e-05 5.23528e-15)
(2764.5 9.88457e-05 4.46518e-15)
(2764.5 -8.8445e-10 1.85903e-14)
(2764.5 -6.92258e-10 2.17689e-14)
(2764.5 -2.43845e-10 2.23302e-14)
(2764.5 2.35588e-10 2.32843e-14)
(2764.5 3.79327e-10 2.59394e-14)
(2764.5 5.6492e-10 2.44467e-14)
(2764.5 7.62932e-10 2.37954e-14)
(2764.5 9.65222e-10 2.4428e-14)
(2764.5 1.17681e-09 2.49036e-14)
(2764.5 1.39439e-09 2.44678e-14)
(2764.5 1.62717e-09 2.53e-14)
(2764.5 1.86359e-09 2.78823e-14)
(2764.5 2.1e-09 2.35645e-14)
(2764.5 2.31989e-09 2.33078e-14)
(2764.5 2.50872e-09 2.70786e-14)
(2764.5 2.65106e-09 2.65416e-14)
(2764.5 2.58564e-08 1.46854e-14)
(2764.5 2.65619e-08 1.50344e-14)
(2764.5 2.72264e-08 1.53853e-14)
(2764.5 2.78527e-08 1.56465e-14)
(2764.5 2.8457e-08 1.5542e-14)
(2764.5 2.9058e-08 1.51999e-14)
(2764.5 2.96864e-08 1.36557e-14)
(2764.5 3.03658e-08 1.68081e-14)
(2764.5 3.11472e-08 1.48837e-14)
(2764.5 3.20752e-08 1.45652e-14)
(2764.5 3.3213e-08 1.55021e-14)
(2764.5 3.46146e-08 1.44054e-14)
(2764.5 3.63284e-08 1.52541e-14)
(2764.5 3.84129e-08 1.55052e-14)
(2764.5 4.09443e-08 1.178e-14)
(2764.5 4.39875e-08 1.2805e-14)
(2764.5 4.76175e-08 1.21627e-14)
(2764.5 5.19006e-08 1.36836e-14)
(2764.5 5.68824e-08 1.52648e-14)
(2764.5 6.26036e-08 1.17533e-14)
(2764.5 6.91057e-08 1.41486e-14)
(2764.5 7.6388e-08 1.48637e-14)
(2764.5 8.4423e-08 1.39313e-14)
(2764.5 9.32012e-08 1.39491e-14)
(2764.5 1.02638e-07 1.43673e-14)
(2764.5 1.12666e-07 1.34222e-14)
(2764.5 1.23197e-07 1.35587e-14)
(2764.5 1.34105e-07 1.32221e-14)
(2764.5 1.45282e-07 1.26259e-14)
(2764.5 1.56616e-07 1.4397e-14)
(2764.5 1.67995e-07 1.27034e-14)
(2764.5 1.79319e-07 1.37515e-14)
(2764.5 1.90521e-07 1.3457e-14)
(2764.5 2.01497e-07 1.32744e-14)
(2764.5 2.12146e-07 1.27679e-14)
(2764.5 2.22367e-07 1.61565e-14)
(2764.5 2.32058e-07 1.21536e-14)
(2764.5 2.41101e-07 1.30175e-14)
(2764.5 2.49374e-07 1.45806e-14)
(2764.5 2.56741e-07 1.39095e-14)
(2764.5 2.63064e-07 1.40578e-14)
(2764.5 2.68219e-07 1.61524e-14)
(2764.5 2.72122e-07 1.24705e-14)
(2764.5 2.74726e-07 1.41301e-14)
(2764.5 2.76033e-07 1.30542e-14)
(2764.5 2.7615e-07 1.3277e-14)
(2764.5 2.75277e-07 1.46e-14)
(2764.5 2.7371e-07 1.47678e-14)
(2764.5 2.71851e-07 1.42259e-14)
(2764.5 2.70195e-07 1.22258e-14)
(2764.5 2.69322e-07 1.17614e-14)
(2764.5 2.69902e-07 1.24666e-14)
(2764.5 2.72648e-07 1.21159e-14)
(2764.5 2.78367e-07 1.06147e-14)
(2764.5 2.87926e-07 1.16297e-14)
(2764.5 3.02274e-07 1.44142e-14)
(2764.5 3.22421e-07 1.12493e-14)
(2764.5 3.49421e-07 1.15331e-14)
(2764.5 3.84412e-07 1.33788e-14)
(2764.5 4.28528e-07 1.26892e-14)
(2764.5 4.82846e-07 1.26888e-14)
(2764.5 5.4834e-07 1.23979e-14)
(2764.5 6.25801e-07 1.34926e-14)
(2764.5 7.15784e-07 1.32642e-14)
(2764.5 8.18521e-07 1.13322e-14)
(2764.5 9.33824e-07 9.80257e-15)
(2764.5 1.06102e-06 1.34532e-14)
(2764.5 1.19895e-06 1.20985e-14)
(2764.5 1.34596e-06 1.18538e-14)
(2764.5 1.50007e-06 1.42878e-14)
(2764.5 1.65909e-06 1.19651e-14)
(2764.5 1.82085e-06 1.09932e-14)
(2764.5 1.98341e-06 1.3227e-14)
(2764.5 2.14515e-06 1.3323e-14)
(2764.5 2.30477e-06 1.13483e-14)
(2764.5 2.46132e-06 1.03009e-14)
(2764.5 2.614e-06 1.28105e-14)
(2764.5 2.76212e-06 1.14243e-14)
(2764.5 2.90493e-06 1.08592e-14)
(2764.5 3.04153e-06 9.73985e-15)
(2764.5 3.17073e-06 1.06987e-14)
(2764.5 3.29099e-06 1.21065e-14)
(2764.5 3.40044e-06 1.2664e-14)
(2764.5 3.49687e-06 1.16568e-14)
(2764.5 3.57778e-06 1.14306e-14)
(2764.5 3.64041e-06 1.19923e-14)
(2764.5 3.68188e-06 1.11351e-14)
(2764.5 3.6994e-06 1.05296e-14)
(2764.5 3.6907e-06 9.82486e-15)
(2764.5 3.65442e-06 1.07231e-14)
(2764.5 3.59051e-06 1.31765e-14)
(2764.5 3.50051e-06 1.20185e-14)
(2764.5 3.38766e-06 1.0644e-14)
(2764.5 3.2569e-06 1.12416e-14)
(2764.5 3.11474e-06 9.14195e-15)
(2764.5 2.96904e-06 9.83226e-15)
(2764.5 2.82858e-06 8.44885e-15)
(2764.5 2.70298e-06 1.11017e-14)
(2764.5 2.60254e-06 1.03006e-14)
(2764.5 2.5385e-06 9.31647e-15)
(2764.5 2.52332e-06 9.85279e-15)
(2764.5 2.57095e-06 1.02513e-14)
(2764.5 2.69705e-06 9.42814e-15)
(2764.5 2.91902e-06 1.13202e-14)
(2764.5 3.25587e-06 1.19668e-14)
(2764.5 3.72797e-06 9.0019e-15)
(2764.5 4.35648e-06 8.33046e-15)
(2764.5 5.16251e-06 1.12418e-14)
(2764.5 6.1663e-06 1.02108e-14)
(2764.5 7.38615e-06 1.14425e-14)
(2764.5 8.83711e-06 1.21055e-14)
(2764.5 1.05296e-05 1.21302e-14)
(2764.5 1.2468e-05 9.70176e-15)
(2764.5 1.46486e-05 1.02005e-14)
(2764.5 1.70577e-05 1.0241e-14)
(2764.5 1.96705e-05 1.00526e-14)
(2764.5 2.24508e-05 1.00657e-14)
(2764.5 2.53538e-05 1.10894e-14)
(2764.5 2.83308e-05 9.94372e-15)
(2764.5 3.13342e-05 1.0376e-14)
(2764.5 3.43232e-05 1.09529e-14)
(2764.5 3.72667e-05 9.42007e-15)
(2764.5 4.01442e-05 1.02186e-14)
(2764.5 4.29446e-05 1.07412e-14)
(2764.5 4.56641e-05 1.03024e-14)
(2764.5 4.83024e-05 9.68943e-15)
(2764.5 5.08604e-05 8.81909e-15)
(2764.5 5.33367e-05 9.98554e-15)
(2764.5 5.57264e-05 8.13466e-15)
(2764.5 5.80186e-05 8.1653e-15)
(2764.5 6.01956e-05 8.8802e-15)
(2764.5 6.22315e-05 8.55679e-15)
(2764.5 6.40922e-05 1.04697e-14)
(2764.5 6.57354e-05 9.85118e-15)
(2764.5 6.71125e-05 9.21244e-15)
(2764.5 6.81696e-05 9.51056e-15)
(2764.5 6.88449e-05 9.42089e-15)
(2764.5 6.90645e-05 9.7991e-15)
(2764.5 6.87513e-05 1.08738e-14)
(2764.5 6.78421e-05 9.81323e-15)
(2764.5 6.62959e-05 9.32959e-15)
(2764.5 6.40964e-05 9.21899e-15)
(2764.5 6.12551e-05 9.52856e-15)
(2764.5 5.78144e-05 9.36261e-15)
(2764.5 5.38474e-05 8.99569e-15)
(2764.5 4.9456e-05 8.30971e-15)
(2764.5 4.47645e-05 9.36643e-15)
(2764.5 3.99131e-05 1.0216e-14)
(2764.5 3.50512e-05 9.56465e-15)
(2764.5 3.03365e-05 8.24895e-15)
(2764.5 2.5939e-05 9.73304e-15)
(2764.5 2.20492e-05 9.18562e-15)
(2764.5 1.88875e-05 9.69578e-15)
(2764.5 1.67126e-05 8.4908e-15)
(2764.5 1.58259e-05 7.64027e-15)
(2764.5 1.65696e-05 9.03588e-15)
(2764.5 1.93267e-05 9.25981e-15)
(2764.5 2.4517e-05 9.80551e-15)
(2764.5 3.25915e-05 8.35172e-15)
(2764.5 4.40185e-05 8.65448e-15)
(2764.5 5.92786e-05 8.80945e-15)
(2764.5 7.88528e-05 7.01052e-15)
(2764.5 0.000103204 6.72526e-15)
(2764.5 0.000132759 7.33114e-15)
(2764.5 0.000167884 8.31702e-15)
(2764.5 0.000208862 8.4093e-15)
(2764.5 0.000255874 7.99619e-15)
(2764.5 0.000308954 7.23457e-15)
(2764.5 0.000367939 1.01006e-14)
(2764.5 0.000432401 7.86377e-15)
(2764.5 0.000501625 6.6852e-15)
(2764.5 0.000574604 8.4849e-15)
(2764.5 0.000650136 8.65263e-15)
(2764.5 0.000726915 8.00404e-15)
(2764.5 0.000803719 7.37562e-15)
(2764.5 0.000879495 7.06592e-15)
(2764.5 0.000953522 8.12605e-15)
(2764.5 0.00102535 8.60744e-15)
(2764.5 0.00109483 7.02505e-15)
(2764.5 0.00116201 6.42611e-15)
(2764.5 0.00122706 7.41614e-15)
(2764.5 0.00129023 7.58377e-15)
(2764.5 0.00135175 7.64786e-15)
(2764.5 0.00141168 7.93778e-15)
(2764.5 0.00147039 8.06345e-15)
(2764.5 0.00152729 8.95176e-15)
(2764.5 0.00158314 7.45939e-15)
(2764.5 0.00163652 7.2717e-15)
(2764.5 0.00168787 8.55172e-15)
(2764.5 0.00173695 7.64016e-15)
(2764.5 0.00177923 7.66763e-15)
(2764.5 0.00182227 8.15685e-15)
(2764.5 0.00181439 7.80984e-15)
(2764.5 2.28644e-09 3.332e-14)
(2764.5 2.50283e-09 3.17994e-14)
(2764.5 2.56635e-09 3.07554e-14)
(2764.5 2.56498e-09 3.35182e-14)
(2764.5 2.88405e-09 3.35832e-14)
(2764.5 3.30334e-09 2.90107e-14)
(2764.5 3.76578e-09 3.14695e-14)
(2764.5 4.26662e-09 3.16777e-14)
(2764.5 4.79854e-09 3.03157e-14)
(2764.5 5.33799e-09 3.22715e-14)
(2764.5 5.87619e-09 3.63071e-14)
(2764.5 6.40095e-09 3.41534e-14)
(2764.5 6.91534e-09 3.20182e-14)
(2764.5 7.41897e-09 3.05218e-14)
(2764.5 7.9235e-09 3.14416e-14)
(2764.5 8.45842e-09 2.98742e-14)
(2764.5 1.29241e-07 2.07342e-14)
(2764.5 1.40383e-07 1.92756e-14)
(2764.5 1.5294e-07 2.00008e-14)
(2764.5 1.66944e-07 1.91317e-14)
(2764.5 1.82421e-07 2.11934e-14)
(2764.5 1.99354e-07 2.1914e-14)
(2764.5 2.17697e-07 1.86379e-14)
(2764.5 2.37344e-07 1.93092e-14)
(2764.5 2.58177e-07 2.09572e-14)
(2764.5 2.80063e-07 2.1794e-14)
(2764.5 3.02845e-07 1.9276e-14)
(2764.5 3.2632e-07 2.0131e-14)
(2764.5 3.50294e-07 1.83385e-14)
(2764.5 3.7457e-07 1.8966e-14)
(2764.5 3.98974e-07 2.07346e-14)
(2764.5 4.23303e-07 1.89405e-14)
(2764.5 4.47349e-07 1.94182e-14)
(2764.5 4.70896e-07 1.81428e-14)
(2764.5 4.93719e-07 1.70831e-14)
(2764.5 5.15613e-07 1.90614e-14)
(2764.5 5.36374e-07 2.04638e-14)
(2764.5 5.55785e-07 2.14776e-14)
(2764.5 5.73657e-07 2.08507e-14)
(2764.5 5.89865e-07 1.92273e-14)
(2764.5 6.04345e-07 1.77753e-14)
(2764.5 6.1714e-07 1.81704e-14)
(2764.5 6.28419e-07 1.88303e-14)
(2764.5 6.38482e-07 1.76558e-14)
(2764.5 6.47796e-07 2.07916e-14)
(2764.5 6.56997e-07 1.97327e-14)
(2764.5 6.66908e-07 1.64227e-14)
(2764.5 6.78512e-07 1.93026e-14)
(2764.5 6.92969e-07 1.74304e-14)
(2764.5 7.11571e-07 1.75365e-14)
(2764.5 7.35764e-07 1.8594e-14)
(2764.5 7.67143e-07 1.89292e-14)
(2764.5 8.07434e-07 1.87037e-14)
(2764.5 8.58487e-07 2.02455e-14)
(2764.5 9.22272e-07 1.90795e-14)
(2764.5 1.00081e-06 1.64289e-14)
(2764.5 1.09614e-06 1.90337e-14)
(2764.5 1.21022e-06 1.76795e-14)
(2764.5 1.34485e-06 1.74059e-14)
(2764.5 1.50153e-06 1.89121e-14)
(2764.5 1.68132e-06 1.85594e-14)
(2764.5 1.88477e-06 1.81578e-14)
(2764.5 2.11176e-06 1.77603e-14)
(2764.5 2.36146e-06 1.65659e-14)
(2764.5 2.63225e-06 1.83072e-14)
(2764.5 2.92185e-06 1.50794e-14)
(2764.5 3.22746e-06 1.44741e-14)
(2764.5 3.54595e-06 1.78412e-14)
(2764.5 3.87407e-06 1.76583e-14)
(2764.5 4.20862e-06 1.67585e-14)
(2764.5 4.54665e-06 1.72888e-14)
(2764.5 4.88545e-06 1.81248e-14)
(2764.5 5.22249e-06 1.60176e-14)
(2764.5 5.55536e-06 1.67192e-14)
(2764.5 5.88162e-06 1.76056e-14)
(2764.5 6.19859e-06 1.74126e-14)
(2764.5 6.50329e-06 1.79931e-14)
(2764.5 6.79233e-06 1.72353e-14)
(2764.5 7.0619e-06 1.62072e-14)
(2764.5 7.30781e-06 1.67778e-14)
(2764.5 7.52562e-06 1.46391e-14)
(2764.5 7.71089e-06 1.43961e-14)
(2764.5 7.85938e-06 1.79873e-14)
(2764.5 7.9676e-06 1.72269e-14)
(2764.5 8.03326e-06 1.70851e-14)
(2764.5 8.05593e-06 1.75266e-14)
(2764.5 8.03754e-06 1.68225e-14)
(2764.5 7.98282e-06 1.59777e-14)
(2764.5 7.89942e-06 1.64679e-14)
(2764.5 7.79799e-06 1.62334e-14)
(2764.5 7.69193e-06 1.67009e-14)
(2764.5 7.59709e-06 1.57433e-14)
(2764.5 7.53143e-06 1.65374e-14)
(2764.5 7.51488e-06 1.54201e-14)
(2764.5 7.56944e-06 1.60099e-14)
(2764.5 7.71942e-06 1.53194e-14)
(2764.5 7.99174e-06 1.7369e-14)
(2764.5 8.41626e-06 1.58306e-14)
(2764.5 9.02589e-06 1.53038e-14)
(2764.5 9.8564e-06 1.46094e-14)
(2764.5 1.09458e-05 1.61388e-14)
(2764.5 1.23336e-05 1.59076e-14)
(2764.5 1.40591e-05 1.47629e-14)
(2764.5 1.61597e-05 1.41903e-14)
(2764.5 1.86687e-05 1.26183e-14)
(2764.5 2.16126e-05 1.47725e-14)
(2764.5 2.50087e-05 1.67028e-14)
(2764.5 2.8862e-05 1.5057e-14)
(2764.5 3.31627e-05 1.5105e-14)
(2764.5 3.78845e-05 1.58006e-14)
(2764.5 4.29841e-05 1.40127e-14)
(2764.5 4.84032e-05 1.35621e-14)
(2764.5 5.40739e-05 1.30636e-14)
(2764.5 5.99245e-05 1.38339e-14)
(2764.5 6.58865e-05 1.45682e-14)
(2764.5 7.18999e-05 1.3096e-14)
(2764.5 7.79158e-05 1.43378e-14)
(2764.5 8.38967e-05 1.40614e-14)
(2764.5 8.9814e-05 1.41427e-14)
(2764.5 9.56448e-05 1.50681e-14)
(2764.5 0.000101367 1.42541e-14)
(2764.5 0.000106956 1.32267e-14)
(2764.5 0.00011238 1.47178e-14)
(2764.5 0.000117597 1.49523e-14)
(2764.5 0.000122554 1.37579e-14)
(2764.5 0.000127184 1.27785e-14)
(2764.5 0.000131409 1.4327e-14)
(2764.5 0.000135137 1.60675e-14)
(2764.5 0.000138268 1.34799e-14)
(2764.5 0.000140694 1.36053e-14)
(2764.5 0.000142305 1.36686e-14)
(2764.5 0.000142996 1.24742e-14)
(2764.5 0.000142681 1.31365e-14)
(2764.5 0.000141307 1.34172e-14)
(2764.5 0.00013887 1.43309e-14)
(2764.5 0.000135414 1.66779e-14)
(2764.5 0.000131043 1.47318e-14)
(2764.5 0.000125916 1.25222e-14)
(2764.5 0.000120245 1.39949e-14)
(2764.5 0.000114285 1.42107e-14)
(2764.5 0.000108324 1.36781e-14)
(2764.5 0.000102679 1.41453e-14)
(2764.5 9.76922e-05 1.22e-14)
(2764.5 9.37424e-05 1.2506e-14)
(2764.5 9.12535e-05 1.42078e-14)
(2764.5 9.07093e-05 1.33245e-14)
(2764.5 9.26639e-05 1.27776e-14)
(2764.5 9.77473e-05 1.24262e-14)
(2764.5 0.000106668 1.19689e-14)
(2764.5 0.000120208 1.19509e-14)
(2764.5 0.000139215 1.19156e-14)
(2764.5 0.000164585 1.19363e-14)
(2764.5 0.000197241 1.32131e-14)
(2764.5 0.000238099 1.37601e-14)
(2764.5 0.000288036 1.22911e-14)
(2764.5 0.000347841 1.18599e-14)
(2764.5 0.000418162 1.09302e-14)
(2764.5 0.000499455 1.15608e-14)
(2764.5 0.000591914 1.19585e-14)
(2764.5 0.000695397 1.19158e-14)
(2764.5 0.000809364 1.09265e-14)
(2764.5 0.000932828 1.30756e-14)
(2764.5 0.00106439 1.25543e-14)
(2764.5 0.00120231 1.26602e-14)
(2764.5 0.00134475 1.2543e-14)
(2764.5 0.00148987 1.16079e-14)
(2764.5 0.00163607 1.31854e-14)
(2764.5 0.0017821 1.0976e-14)
(2764.5 0.00192706 1.15775e-14)
(2764.5 0.00207041 1.09708e-14)
(2764.5 0.00221187 1.16122e-14)
(2764.5 0.00235132 1.12536e-14)
(2764.5 0.00248868 1.19627e-14)
(2764.5 0.00262381 1.29194e-14)
(2764.5 0.00275646 1.22267e-14)
(2764.5 0.00288615 1.17216e-14)
(2764.5 0.0030122 1.25905e-14)
(2764.5 0.00313361 1.18119e-14)
(2764.5 0.0032491 1.21621e-14)
(2764.5 0.00335704 1.06286e-14)
(2764.5 0.00345548 1.16104e-14)
(2764.5 0.00354217 1.19168e-14)
(2764.5 0.00361464 1.1243e-14)
(2764.5 0.0036702 1.06857e-14)
(2764.5 0.00370583 1.10163e-14)
(2764.5 0.00371816 1.00891e-14)
(2764.5 0.00370396 1.20547e-14)
(2764.5 0.0036607 1.0662e-14)
(2764.5 0.00358672 1.10717e-14)
(2764.5 0.0034814 1.19121e-14)
(2764.5 0.00334524 1.12927e-14)
(2764.5 0.00317997 1.04232e-14)
(2764.5 0.00298848 1.18631e-14)
(2764.5 0.00277469 1.10967e-14)
(2764.5 0.00254363 1.05047e-14)
(2764.5 0.00230045 9.9444e-15)
(2764.5 0.00205212 1.10483e-14)
(2764.5 0.0018031 1.07047e-14)
(2764.5 0.00156485 9.875e-15)
(2764.5 0.00133565 1.04972e-14)
(2764.5 0.00114475 1.04889e-14)
(2764.5 0.000962423 1.01223e-14)
(2764.5 0.000875314 8.99241e-15)
(2764.5 0.000775097 8.86812e-15)
(2764.5 0.000852256 1.03166e-14)
(2764.5 0.000931009 1.03789e-14)
(2764.5 0.00113963 1.07714e-14)
(2764.5 0.00172848 1.0656e-14)
(2764.5 0.00165152 9.8687e-15)
(2764.5 8.27523e-09 3.81969e-14)
(2764.5 9.2369e-09 3.91369e-14)
(2764.5 1.04843e-08 4.18981e-14)
(2764.5 1.20824e-08 4.32736e-14)
(2764.5 1.3843e-08 3.95611e-14)
(2764.5 1.57051e-08 3.92945e-14)
(2764.5 1.76744e-08 4.15001e-14)
(2764.5 1.97473e-08 4.14385e-14)
(2764.5 2.19177e-08 3.97682e-14)
(2764.5 2.41764e-08 4.24108e-14)
(2764.5 2.65355e-08 4.36334e-14)
(2764.5 2.9012e-08 3.91224e-14)
(2764.5 3.16208e-08 4.01592e-14)
(2764.5 3.4349e-08 3.67207e-14)
(2764.5 3.71775e-08 3.66891e-14)
(2764.5 9.62686e-07 2.7589e-14)
(2764.5 1.0119e-06 2.55644e-14)
(2764.5 1.06032e-06 2.51841e-14)
(2764.5 1.10765e-06 2.37561e-14)
(2764.5 1.1537e-06 2.63653e-14)
(2764.5 1.19831e-06 2.47871e-14)
(2764.5 1.24145e-06 2.35219e-14)
(2764.5 1.28324e-06 2.58703e-14)
(2764.5 1.32401e-06 2.55214e-14)
(2764.5 1.36431e-06 2.6625e-14)
(2764.5 1.40493e-06 2.52124e-14)
(2764.5 1.44694e-06 2.49089e-14)
(2764.5 1.49169e-06 2.57114e-14)
(2764.5 1.54084e-06 2.65503e-14)
(2764.5 1.59632e-06 2.37761e-14)
(2764.5 1.66035e-06 2.45925e-14)
(2764.5 1.7354e-06 2.71508e-14)
(2764.5 1.82421e-06 2.42122e-14)
(2764.5 1.92976e-06 2.60751e-14)
(2764.5 2.05524e-06 2.39734e-14)
(2764.5 2.20399e-06 2.22477e-14)
(2764.5 2.37942e-06 2.34805e-14)
(2764.5 2.58486e-06 2.288e-14)
(2764.5 2.82351e-06 2.33124e-14)
(2764.5 3.09825e-06 2.30012e-14)
(2764.5 3.41145e-06 2.32586e-14)
(2764.5 3.76479e-06 2.40551e-14)
(2764.5 4.15911e-06 2.37159e-14)
(2764.5 4.59427e-06 2.46267e-14)
(2764.5 5.06912e-06 2.39972e-14)
(2764.5 5.5815e-06 2.36064e-14)
(2764.5 6.12835e-06 2.3283e-14)
(2764.5 6.70586e-06 2.30239e-14)
(2764.5 7.30966e-06 2.4208e-14)
(2764.5 7.93512e-06 2.35932e-14)
(2764.5 8.5775e-06 2.43471e-14)