/*--------------------------------*- C++ -*----------------------------------*\
| =========                 |                                                 |
| \\      /  F ield         | OpenFOAM: The Open Source CFD Toolbox           |
|  \\    /   O peration     | Version:  v1706                                 |
|   \\  /    A nd           | Web:      www.OpenFOAM.com                      |
|    \\/     M anipulation  |                                                 |
\*---------------------------------------------------------------------------*/
FoamFile
{
    version     2.0;
    format      ascii;
    class       volScalarField;
    location    "5e-06";
    object      wallHeatFlux;
}
// * * * * * * * * * * * * * * * * * * * * * * * * * * * * * * * * * * * * * //

dimensions      [1 0 -3 0 0 0 0];


internalField   uniform 0;

boundaryField
{
    cone
    {
        type            calculated;
        value           nonuniform List<scalar> 
119
(
-3235.24
-3234.92
-3234.61
-3234.32
-3234.06
-3233.82
-3233.6
-3233.39
-3233.18
-3232.98
-3232.78
-3232.58
-3232.37
-3232.17
-3231.97
-3231.77
-3231.57
-3231.37
-3231.17
-3230.98
-3230.78
-3230.58
-3230.39
-3230.19
-3229.99
-3229.8
-3229.6
-3229.41
-3229.21
-3229.02
-3228.83
-3228.63
-3228.44
-3228.25
-3228.06
-3227.86
-3227.67
-3227.48
-3227.29
-3227.1
-3226.91
-3226.72
-3226.53
-3226.34
-3226.15
-3225.96
-3225.77
-3225.58
-3225.4
-3225.21
-3225.02
-3224.83
-3224.65
-3224.46
-3224.28
-3224.09
-3223.9
-3223.72
-3223.53
-3223.35
-3223.17
-3222.98
-3222.8
-3222.61
-3222.43
-3222.25
-3222.07
-3221.88
-3221.7
-3221.52
-3221.34
-3221.16
-3220.98
-3220.8
-3220.62
-3220.44
-3220.26
-3220.08
-3219.9
-3219.72
-3219.54
-3219.36
-3219.19
-3219.01
-3218.83
-3218.65
-3218.48
-3218.3
-3218.12
-3217.95
-3217.77
-3217.6
-3217.42
-3217.25
-3217.07
-3216.9
-3216.72
-3216.55
-3216.38
-3216.2
-3216.03
-3215.86
-3215.69
-3215.52
-3215.35
-3215.2
-3215.09
-3215.05
-3215.14
-3215.45
-3216.07
-3217.08
-3218.73
-3221.84
-3228.69
-3244.38
-3278.74
-3350.81
-3477.85
)
;
    }
    inlet
    {
        type            calculated;
        value           uniform 0;
    }
    rWedge
    {
        type            wedge;
    }
    lWedge
    {
        type            wedge;
    }
    outlet
    {
        type            calculated;
        value           uniform 0;
    }
    procBoundary0to1
    {
        type            processor;
        value           uniform 0;
    }
    procBoundary0to2
    {
        type            processor;
        value           uniform 0;
    }
}


// ************************************************************************* //
