/*--------------------------------*- C++ -*----------------------------------*\
| =========                 |                                                 |
| \\      /  F ield         | OpenFOAM: The Open Source CFD Toolbox           |
|  \\    /   O peration     | Version:  v1706                                 |
|   \\  /    A nd           | Web:      www.OpenFOAM.com                      |
|    \\/     M anipulation  |                                                 |
\*---------------------------------------------------------------------------*/
FoamFile
{
    version     2.0;
    format      ascii;
    class       volScalarField;
    location    "1.2e-05";
    object      alpha;
}
// * * * * * * * * * * * * * * * * * * * * * * * * * * * * * * * * * * * * * //

dimensions      [1 -1 -1 0 0 0 0];


internalField   nonuniform List<scalar> 
29871
(
1.40478e-05
1.40478e-05
1.40478e-05
1.40478e-05
1.40478e-05
1.40478e-05
1.40478e-05
1.40478e-05
1.40478e-05
1.40478e-05
1.40478e-05
1.40478e-05
1.40478e-05
1.40478e-05
1.40478e-05
1.40478e-05
1.40478e-05
1.40478e-05
1.40478e-05
1.40478e-05
1.40478e-05
1.40478e-05
1.40478e-05
1.40478e-05
1.40478e-05
1.40478e-05
1.40478e-05
1.40478e-05
1.40478e-05
1.40478e-05
1.40478e-05
1.40478e-05
1.40478e-05
1.40478e-05
1.40478e-05
1.40478e-05
1.40478e-05
1.40478e-05
1.40478e-05
1.40478e-05
1.40478e-05
1.40478e-05
1.40478e-05
1.40478e-05
1.40478e-05
1.40478e-05
1.40478e-05
1.40478e-05
1.40478e-05
1.40478e-05
1.40478e-05
1.40478e-05
1.40478e-05
1.40478e-05
1.40478e-05
1.40478e-05
1.40478e-05
1.40478e-05
1.40478e-05
1.40478e-05
1.40478e-05
1.40478e-05
1.40478e-05
1.40478e-05
1.40478e-05
1.40478e-05
1.40478e-05
1.40478e-05
1.40478e-05
1.40478e-05
1.40478e-05
1.40478e-05
1.40478e-05
1.40478e-05
1.40478e-05
1.40478e-05
1.40478e-05
1.40478e-05
1.40478e-05
1.40478e-05
1.40478e-05
1.40478e-05
1.40478e-05
1.40478e-05
1.40478e-05
1.40478e-05
1.40478e-05
1.40478e-05
1.40478e-05
1.40478e-05
1.40478e-05
1.40478e-05
1.40478e-05
1.40478e-05
1.40478e-05
1.40478e-05
1.40478e-05
1.40478e-05
1.40478e-05
1.40478e-05
1.40478e-05
1.40478e-05
1.40478e-05
1.40478e-05
1.40478e-05
1.40478e-05
1.40478e-05
1.40478e-05
1.40478e-05
1.40478e-05
1.40478e-05
1.40478e-05
1.40478e-05
1.40478e-05
1.40478e-05
1.40478e-05
1.40478e-05
1.40478e-05
1.40478e-05
1.40478e-05
1.40478e-05
1.40478e-05
1.40478e-05
1.40478e-05
1.40478e-05
1.40478e-05
1.40478e-05
1.40478e-05
1.40478e-05
1.40478e-05
1.40478e-05
1.40478e-05
1.40478e-05
1.40478e-05
1.40478e-05
1.40478e-05
1.40478e-05
1.40478e-05
1.40478e-05
1.40478e-05
1.40478e-05
1.40478e-05
1.40478e-05
1.40478e-05
1.40478e-05
1.40478e-05
1.40478e-05
1.40478e-05
1.40478e-05
1.40478e-05
1.40478e-05
1.40478e-05
1.40478e-05
1.40478e-05
1.40478e-05
1.40478e-05
1.40478e-05
1.40478e-05
1.40478e-05
1.40478e-05
1.40478e-05
1.40478e-05
1.40478e-05
1.40478e-05
1.40478e-05
1.40478e-05
1.40478e-05
1.40478e-05
1.40478e-05
1.40478e-05
1.40478e-05
1.40478e-05
1.40478e-05
1.40478e-05
1.40478e-05
1.40478e-05
1.40478e-05
1.40478e-05
1.40478e-05
1.40478e-05
1.40478e-05
1.40478e-05
1.40478e-05
1.40478e-05
1.40478e-05
1.40478e-05
1.40478e-05
1.40478e-05
1.40478e-05
1.40478e-05
1.40478e-05
1.40478e-05
1.40478e-05
1.40478e-05
1.40478e-05
1.40478e-05
1.40478e-05
1.40478e-05
1.40478e-05
1.40478e-05
1.40478e-05
1.40478e-05
1.40478e-05
1.40478e-05
1.40478e-05
1.40478e-05
1.40478e-05
1.40478e-05
1.40478e-05
1.40478e-05
1.40478e-05
1.40478e-05
1.40478e-05
1.40478e-05
1.40478e-05
1.40478e-05
1.40478e-05
1.40478e-05
1.40478e-05
1.40478e-05
1.40478e-05
1.40478e-05
1.40478e-05
1.40478e-05
1.40478e-05
1.40478e-05
1.40478e-05
1.40478e-05
1.40478e-05
1.40478e-05
1.40478e-05
1.40478e-05
1.40478e-05
1.40478e-05
1.40478e-05
1.40478e-05
1.40478e-05
1.40478e-05
1.40478e-05
1.40478e-05
1.40478e-05
1.40478e-05
1.40478e-05
1.40478e-05
1.40478e-05
1.40478e-05
1.40478e-05
1.40478e-05
1.40478e-05
1.40478e-05
1.40478e-05
1.40478e-05
1.40478e-05
1.40478e-05
1.40478e-05
1.40478e-05
1.40478e-05
1.40478e-05
1.40478e-05
1.40478e-05
1.40478e-05
1.40478e-05
1.40478e-05
1.40478e-05
1.40478e-05
1.40478e-05
1.40478e-05
1.40478e-05
1.40478e-05
1.40478e-05
1.40478e-05
1.40478e-05
1.40478e-05
1.40478e-05
1.40478e-05
1.40478e-05
1.40478e-05
1.40478e-05
1.40478e-05
1.40478e-05
1.40478e-05
1.40478e-05
1.40478e-05
1.40478e-05
1.40478e-05
1.40478e-05
1.40478e-05
1.40478e-05
1.40478e-05
1.40478e-05
1.40478e-05
1.40478e-05
1.40478e-05
1.40478e-05
1.40478e-05
1.40478e-05
1.40478e-05
1.40478e-05
1.40478e-05
1.40478e-05
1.40478e-05
1.40478e-05
1.40478e-05
1.40478e-05
1.40478e-05
1.40478e-05
1.40478e-05
1.40478e-05
1.40478e-05
1.40478e-05
1.40478e-05
1.40478e-05
1.40478e-05
1.40478e-05
1.40478e-05
1.40478e-05
1.40478e-05
1.40478e-05
1.40478e-05
1.40478e-05
1.40478e-05
1.40478e-05
1.40478e-05
1.40478e-05
1.40478e-05
1.40478e-05
1.40478e-05
1.40478e-05
1.40478e-05
1.40478e-05
1.40478e-05
1.40478e-05
1.40478e-05
1.40478e-05
1.40478e-05
1.40478e-05
1.40478e-05
1.40478e-05
1.40478e-05
1.40478e-05
1.40478e-05
1.40478e-05
1.40478e-05
1.40478e-05
1.40478e-05
1.40478e-05
1.40478e-05
1.40478e-05
1.40478e-05
1.40478e-05
1.40478e-05
1.40478e-05
1.40478e-05
1.40478e-05
1.40478e-05
1.40478e-05
1.40478e-05
1.40478e-05
1.40478e-05
1.40478e-05
1.40478e-05
1.40478e-05
1.40478e-05
1.40478e-05
1.40478e-05
1.40478e-05
1.40478e-05
1.40478e-05
1.40478e-05
1.40478e-05
1.40478e-05
1.40478e-05
1.40478e-05
1.40478e-05
1.40478e-05
1.40478e-05
1.40478e-05
1.40478e-05
1.40478e-05
1.40478e-05
1.40478e-05
1.40478e-05
1.40478e-05
1.40478e-05
1.40478e-05
1.40478e-05
1.40478e-05
1.40478e-05
1.40478e-05
1.40478e-05
1.40478e-05
1.40478e-05
1.40478e-05
1.40478e-05
1.40478e-05
1.40478e-05
1.40478e-05
1.40478e-05
1.40478e-05
1.40478e-05
1.40478e-05
1.40478e-05
1.40478e-05
1.40478e-05
1.40478e-05
1.40478e-05
1.40478e-05
1.40478e-05
1.40478e-05
1.40478e-05
1.40478e-05
1.40478e-05
1.40478e-05
1.40478e-05
1.40478e-05
1.40478e-05
1.40478e-05
1.40478e-05
1.40478e-05
1.40478e-05
1.40478e-05
1.40478e-05
1.40478e-05
1.40478e-05
1.40478e-05
1.40478e-05
1.40478e-05
1.40478e-05
1.40478e-05
1.40478e-05
1.40478e-05
1.40478e-05
1.40478e-05
1.40478e-05
1.40478e-05
1.40478e-05
1.40478e-05
1.40478e-05
1.40478e-05
1.40478e-05
1.40478e-05
1.40478e-05
1.40478e-05
1.40478e-05
1.40478e-05
1.40478e-05
1.40478e-05
1.40478e-05
1.40478e-05
1.40478e-05
1.40478e-05
1.40478e-05
1.40478e-05
1.40478e-05
1.40478e-05
1.40478e-05
1.40478e-05
1.40478e-05
1.40478e-05
1.40478e-05
1.40478e-05
1.40478e-05
1.40478e-05
1.40478e-05
1.40478e-05
1.40478e-05
1.40478e-05
1.40478e-05
1.40478e-05
1.40478e-05
1.40478e-05
1.40478e-05
1.40478e-05
1.40478e-05
1.40478e-05
1.40478e-05
1.40478e-05
1.40478e-05
1.40478e-05
1.40478e-05
1.40478e-05
1.40478e-05
1.40478e-05
1.40478e-05
1.40478e-05
1.40478e-05
1.40478e-05
1.40478e-05
1.40478e-05
1.40478e-05
1.40478e-05
1.40478e-05
1.40478e-05
1.40478e-05
1.40478e-05
1.40478e-05
1.40478e-05
1.40478e-05
1.40478e-05
1.40478e-05
1.40478e-05
1.40478e-05
1.40478e-05
1.40478e-05
1.40478e-05
1.40478e-05
1.40478e-05
1.40478e-05
1.40478e-05
1.40478e-05
1.40478e-05
1.40478e-05
1.40478e-05
1.40478e-05
1.40478e-05
1.40478e-05
1.40478e-05
1.40478e-05
1.40478e-05
1.40478e-05
1.40478e-05
1.40478e-05
1.40478e-05
1.40478e-05
1.40478e-05
1.40478e-05
1.40478e-05
1.40478e-05
1.40478e-05
1.40478e-05
1.40478e-05
1.40478e-05
1.40478e-05
1.40478e-05
1.40478e-05
1.40478e-05
1.40478e-05
1.40478e-05
1.40478e-05
1.40478e-05
1.40478e-05
1.40478e-05
1.40478e-05
1.40478e-05
1.40478e-05
1.40478e-05
1.40478e-05
1.40478e-05
1.40478e-05
1.40478e-05
1.40478e-05
1.40478e-05
1.40478e-05
1.40478e-05
1.40478e-05
1.40478e-05
1.40478e-05
1.40478e-05
1.40478e-05
1.40478e-05
1.40478e-05
1.40478e-05
1.40478e-05
1.40478e-05
1.40478e-05
1.40478e-05
1.40478e-05
1.40478e-05
1.40478e-05
1.40478e-05
1.40478e-05
1.40478e-05
1.40478e-05
1.40478e-05
1.40478e-05
1.40478e-05
1.40478e-05
1.40478e-05
1.40478e-05
1.40478e-05
1.40478e-05
1.40478e-05
1.40478e-05
1.40478e-05
1.40478e-05
1.40478e-05
1.40478e-05
1.40478e-05
1.40478e-05
1.40478e-05
1.40478e-05
1.40478e-05
1.40478e-05
1.40478e-05
1.40478e-05
1.40478e-05
1.40478e-05
1.40478e-05
1.40478e-05
1.40478e-05
1.40478e-05
1.40478e-05
1.40478e-05
1.40478e-05
1.40478e-05
1.40478e-05
1.40478e-05
1.40478e-05
1.40478e-05
1.40478e-05
1.40478e-05
1.40478e-05
1.40478e-05
1.40478e-05
1.40478e-05
1.40478e-05
1.40478e-05
1.40478e-05
1.40478e-05
1.40478e-05
1.40478e-05
1.40478e-05
1.40478e-05
1.40478e-05
1.40478e-05
1.40478e-05
1.40478e-05
1.40478e-05
1.40478e-05
1.40478e-05
1.40478e-05
1.40478e-05
1.40478e-05
1.40478e-05
1.40478e-05
1.40478e-05
1.40478e-05
1.40478e-05
1.40478e-05
1.40478e-05
1.40478e-05
1.40478e-05
1.40478e-05
1.40478e-05
1.40478e-05
1.40478e-05
1.40478e-05
1.40478e-05
1.40478e-05
1.40478e-05
1.40478e-05
1.40478e-05
1.40478e-05
1.40478e-05
1.40478e-05
1.40478e-05
1.40478e-05
1.40478e-05
1.40478e-05
1.40478e-05
1.40478e-05
1.40478e-05
1.40478e-05
1.40478e-05
1.40478e-05
1.40478e-05
1.40478e-05
1.40478e-05
1.40478e-05
1.40478e-05
1.40478e-05
1.40478e-05
1.40478e-05
1.40478e-05
1.40478e-05
1.40478e-05
1.40478e-05
1.40478e-05
1.40478e-05
1.40478e-05
1.40478e-05
1.40478e-05
1.40478e-05
1.40478e-05
1.40478e-05
1.40478e-05
1.40478e-05
1.40478e-05
1.40478e-05
1.40478e-05
1.40478e-05
1.40478e-05
1.40478e-05
1.40478e-05
1.40478e-05
1.40478e-05
1.40478e-05
1.40478e-05
1.40478e-05
1.40478e-05
1.40478e-05
1.40478e-05
1.40478e-05
1.40478e-05
1.40478e-05
1.40478e-05
1.40478e-05
1.40478e-05
1.40478e-05
1.40478e-05
1.40478e-05
1.40478e-05
1.40478e-05
1.40478e-05
1.40478e-05
1.40478e-05
1.40478e-05
1.40478e-05
1.40478e-05
1.40478e-05
1.40478e-05
1.40478e-05
1.40478e-05
1.40478e-05
1.40478e-05
1.40478e-05
1.40478e-05
1.40478e-05
1.40478e-05
1.40478e-05
1.40478e-05
1.40478e-05
1.40478e-05
1.40478e-05
1.40478e-05
1.40478e-05
1.40478e-05
1.40478e-05
1.40478e-05
1.40478e-05
1.40478e-05
1.40478e-05
1.40478e-05
1.40478e-05
1.40478e-05
1.40478e-05
1.40478e-05
1.40478e-05
1.40478e-05
1.40478e-05
1.40478e-05
1.40478e-05
1.40478e-05
1.40478e-05
1.40478e-05
1.40478e-05
1.40478e-05
1.40478e-05
1.40478e-05
1.40478e-05
1.40478e-05
1.40478e-05
1.40478e-05
1.40478e-05
1.40478e-05
1.40478e-05
1.40478e-05
1.40478e-05
1.40478e-05
1.40478e-05
1.40478e-05
1.40478e-05
1.40478e-05
1.40478e-05
1.40478e-05
1.40478e-05
1.40478e-05
1.40478e-05
1.40478e-05
1.40478e-05
1.40478e-05
1.40478e-05
1.40478e-05
1.40478e-05
1.40478e-05
1.40478e-05
1.40478e-05
1.40478e-05
1.40478e-05
1.40478e-05
1.40478e-05
1.40478e-05
1.40478e-05
1.40478e-05
1.40478e-05
1.40478e-05
1.40478e-05
1.40478e-05
1.40478e-05
1.40478e-05
1.40478e-05
1.40478e-05
1.40478e-05
1.40478e-05
1.40478e-05
1.40478e-05
1.40478e-05
1.40478e-05
1.40478e-05
1.40478e-05
1.40478e-05
1.40478e-05
1.40478e-05
1.40478e-05
1.40478e-05
1.40478e-05
1.40478e-05
1.40478e-05
1.40478e-05
1.40478e-05
1.40478e-05
1.40478e-05
1.40478e-05
1.40478e-05
1.40478e-05
1.40478e-05
1.40478e-05
1.40478e-05
1.40478e-05
1.40478e-05
1.40478e-05
1.40478e-05
1.40478e-05
1.40478e-05
1.40478e-05
1.40478e-05
1.40478e-05
1.40478e-05
1.40478e-05
1.40478e-05
1.40478e-05
1.40478e-05
1.40478e-05
1.40478e-05
1.40478e-05
1.40478e-05
1.40478e-05
1.40478e-05
1.40478e-05
1.40478e-05
1.40478e-05
1.40478e-05
1.40478e-05
1.40478e-05
1.40478e-05
1.40478e-05
1.40478e-05
1.40478e-05
1.40478e-05
1.40478e-05
1.40478e-05
1.40478e-05
1.40478e-05
1.40478e-05
1.40478e-05
1.40478e-05
1.40478e-05
1.40478e-05
1.40478e-05
1.40478e-05
1.40478e-05
1.40478e-05
1.40478e-05
1.40478e-05
1.40478e-05
1.40478e-05
1.40478e-05
1.40478e-05
1.40478e-05
1.40478e-05
1.40478e-05
1.40478e-05
1.40478e-05
1.40478e-05
1.40478e-05
1.40478e-05
1.40478e-05
1.40478e-05
1.40478e-05
1.40478e-05
1.40478e-05
1.40478e-05
1.40478e-05
1.40478e-05
1.40478e-05
1.40478e-05
1.40478e-05
1.40478e-05
1.40478e-05
1.40478e-05
1.40478e-05
1.40478e-05
1.40478e-05
1.40478e-05
1.40478e-05
1.40478e-05
1.40478e-05
1.40478e-05
1.40478e-05
1.40478e-05
1.40478e-05
1.40478e-05
1.40478e-05
1.40478e-05
1.40478e-05
1.40478e-05
1.40478e-05
1.40478e-05
1.40478e-05
1.40478e-05
1.40478e-05
1.40478e-05
1.40478e-05
1.40478e-05
1.40478e-05
1.40478e-05
1.40478e-05
1.40478e-05
1.40478e-05
1.40478e-05
1.40478e-05
1.40478e-05
1.40478e-05
1.40478e-05
1.40478e-05
1.40478e-05
1.40478e-05
1.40478e-05
1.40478e-05
1.40478e-05
1.40478e-05
1.40478e-05
1.40478e-05
1.40478e-05
1.40478e-05
1.40478e-05
1.40478e-05
1.40478e-05
1.40478e-05
1.40478e-05
1.40478e-05
1.40478e-05
1.40478e-05
1.40478e-05
1.40478e-05
1.40478e-05
1.40478e-05
1.40478e-05
1.40478e-05
1.40478e-05
1.40478e-05
1.40478e-05
1.40478e-05
1.40478e-05
1.40478e-05
1.40478e-05
1.40478e-05
1.40478e-05
1.40478e-05
1.40478e-05
1.40478e-05
1.40478e-05
1.40478e-05
1.40478e-05
1.40478e-05
1.40478e-05
1.40478e-05
1.40478e-05
1.40478e-05
1.40478e-05
1.40478e-05
1.40478e-05
1.40478e-05
1.40478e-05
1.40478e-05
1.40478e-05
1.40478e-05
1.40478e-05
1.40478e-05
1.40478e-05
1.40478e-05
1.40478e-05
1.40478e-05
1.40478e-05
1.40478e-05
1.40478e-05
1.40478e-05
1.40478e-05
1.40478e-05
1.40478e-05
1.40478e-05
1.40478e-05
1.40478e-05
1.40478e-05
1.40478e-05
1.40478e-05
1.40478e-05
1.40478e-05
1.40478e-05
1.40478e-05
1.40478e-05
1.40478e-05
1.40478e-05
1.40478e-05
1.40478e-05
1.40478e-05
1.40478e-05
1.40478e-05
1.40478e-05
1.40478e-05
1.40478e-05
1.40478e-05
1.40478e-05
1.40478e-05
1.40478e-05
1.40478e-05
1.40478e-05
1.40478e-05
1.40478e-05
1.40478e-05
1.40478e-05
1.40478e-05
1.40478e-05
1.40478e-05
1.40478e-05
1.40478e-05
1.40478e-05
1.40478e-05
1.40478e-05
1.40478e-05
1.40478e-05
1.40478e-05
1.40478e-05
1.40478e-05
1.40478e-05
1.40478e-05
1.40478e-05
1.40478e-05
1.40478e-05
1.40478e-05
1.40478e-05
1.40478e-05
1.40478e-05
1.40478e-05
1.40478e-05
1.40478e-05
1.40478e-05
1.40478e-05
1.40478e-05
1.40478e-05
1.40478e-05
1.40478e-05
1.40478e-05
1.40478e-05
1.40478e-05
1.40478e-05
1.40478e-05
1.40478e-05
1.40478e-05
1.40478e-05
1.40478e-05
1.40478e-05
1.40478e-05
1.40478e-05
1.40478e-05
1.40478e-05
1.40478e-05
1.40478e-05
1.40478e-05
1.40478e-05
1.40478e-05
1.40478e-05
1.40478e-05
1.40478e-05
1.40478e-05
1.40478e-05
1.40478e-05
1.40478e-05
1.40478e-05
1.40478e-05
1.40478e-05
1.40478e-05
1.40478e-05
1.40478e-05
1.40478e-05
1.40478e-05
1.40478e-05
1.40478e-05
1.40478e-05
1.40478e-05
1.40478e-05
1.40478e-05
1.40478e-05
1.40478e-05
1.40478e-05
1.40478e-05
1.40478e-05
1.40478e-05
1.40478e-05
1.40478e-05
1.40478e-05
1.40478e-05
1.40478e-05
1.40478e-05
1.40478e-05
1.40478e-05
1.40478e-05
1.40478e-05
1.40478e-05
1.40478e-05
1.40478e-05
1.40478e-05
1.40478e-05
1.40478e-05
1.40478e-05
1.40478e-05
1.40478e-05
1.40478e-05
1.40478e-05
1.40478e-05
1.40478e-05
1.40478e-05
1.40478e-05
1.40478e-05
1.40478e-05
1.40478e-05
1.40478e-05
1.40478e-05
1.40478e-05
1.40478e-05
1.40478e-05
1.40478e-05
1.40478e-05
1.40478e-05
1.40478e-05
1.40478e-05
1.40478e-05
1.40478e-05
1.40478e-05
1.40478e-05
1.40478e-05
1.40478e-05
1.40478e-05
1.40478e-05
1.40478e-05
1.40478e-05
1.40478e-05
1.40478e-05
1.40478e-05
1.40478e-05
1.40478e-05
1.40478e-05
1.40478e-05
1.40478e-05
1.40478e-05
1.40478e-05
1.40478e-05
1.40478e-05
1.40478e-05
1.40478e-05
1.40478e-05
1.40478e-05
1.40478e-05
1.40478e-05
1.40478e-05
1.40478e-05
1.40478e-05
1.40478e-05
1.40478e-05
1.40478e-05
1.40478e-05
1.40478e-05
1.40478e-05
1.40478e-05
1.40478e-05
1.40478e-05
1.40478e-05
1.40478e-05
1.40478e-05
1.40478e-05
1.40478e-05
1.40478e-05
1.40478e-05
1.40478e-05
1.40478e-05
1.40478e-05
1.40478e-05
1.40478e-05
1.40478e-05
1.40478e-05
1.40478e-05
1.40478e-05
1.40478e-05
1.40478e-05
1.40478e-05
1.40478e-05
1.40478e-05
1.40478e-05
1.40478e-05
1.40478e-05
1.40478e-05
1.40478e-05
1.40478e-05
1.40478e-05
1.40478e-05
1.40478e-05
1.40478e-05
1.40478e-05
1.40478e-05
1.40478e-05
1.40478e-05
1.40478e-05
1.40478e-05
1.40478e-05
1.40478e-05
1.40478e-05
1.40478e-05
1.40478e-05
1.40478e-05
1.40478e-05
1.40478e-05
1.40478e-05
1.40478e-05
1.40478e-05
1.40478e-05
1.40478e-05
1.40478e-05
1.40478e-05
1.40478e-05
1.40478e-05
1.40478e-05
1.40478e-05
1.40478e-05
1.40478e-05
1.40478e-05
1.40479e-05
1.40479e-05
1.40479e-05
1.40479e-05
1.40479e-05
1.40479e-05
1.40479e-05
1.40479e-05
1.40479e-05
1.40479e-05
1.40479e-05
1.40479e-05
1.40479e-05
1.40479e-05
1.40479e-05
1.40479e-05
1.40479e-05
1.40479e-05
1.40479e-05
1.40478e-05
1.40478e-05
1.40478e-05
1.40478e-05
1.40478e-05
1.40478e-05
1.40478e-05
1.40478e-05
1.40478e-05
1.40478e-05
1.40478e-05
1.40478e-05
1.40478e-05
1.40478e-05
1.40478e-05
1.40478e-05
1.40478e-05
1.40478e-05
1.40478e-05
1.40478e-05
1.40478e-05
1.40478e-05
1.40478e-05
1.40478e-05
1.40478e-05
1.40478e-05
1.40478e-05
1.40478e-05
1.40478e-05
1.40478e-05
1.40478e-05
1.40478e-05
1.40478e-05
1.40478e-05
1.40478e-05
1.40478e-05
1.40478e-05
1.40478e-05
1.40478e-05
1.40478e-05
1.40478e-05
1.40478e-05
1.40478e-05
1.40478e-05
1.40478e-05
1.40478e-05
1.40478e-05
1.40478e-05
1.40478e-05
1.40478e-05
1.40478e-05
1.40478e-05
1.40478e-05
1.40478e-05
1.40478e-05
1.40478e-05
1.40478e-05
1.40478e-05
1.40478e-05
1.40478e-05
1.40478e-05
1.40478e-05
1.40478e-05
1.40478e-05
1.40478e-05
1.40478e-05
1.40478e-05
1.40478e-05
1.40478e-05
1.40478e-05
1.40479e-05
1.40479e-05
1.40479e-05
1.40479e-05
1.40479e-05
1.40479e-05
1.40479e-05
1.40479e-05
1.40479e-05
1.4048e-05
1.4048e-05
1.4048e-05
1.4048e-05
1.4048e-05
1.40481e-05
1.40481e-05
1.40481e-05
1.40481e-05
1.40482e-05
1.40482e-05
1.40482e-05
1.40483e-05
1.40483e-05
1.40483e-05
1.40483e-05
1.40483e-05
1.40484e-05
1.40484e-05
1.40484e-05
1.40484e-05
1.40484e-05
1.40484e-05
1.40484e-05
1.40484e-05
1.40484e-05
1.40484e-05
1.40484e-05
1.40483e-05
1.40483e-05
1.40483e-05
1.40483e-05
1.40482e-05
1.40482e-05
1.40482e-05
1.40481e-05
1.40481e-05
1.40481e-05
1.4048e-05
1.4048e-05
1.4048e-05
1.4048e-05
1.40479e-05
1.40479e-05
1.40479e-05
1.40479e-05
1.40479e-05
1.40478e-05
1.40478e-05
1.40478e-05
1.40478e-05
1.40478e-05
1.40478e-05
1.40478e-05
1.40478e-05
1.40478e-05
1.40478e-05
1.40478e-05
1.40478e-05
1.40478e-05
1.40478e-05
1.40478e-05
1.40478e-05
1.40478e-05
1.40478e-05
1.40478e-05
1.40478e-05
1.40478e-05
1.40478e-05
1.40478e-05
1.40478e-05
1.40478e-05
1.40478e-05
1.40478e-05
1.40478e-05
1.40478e-05
1.40478e-05
1.40478e-05
1.40478e-05
1.40478e-05
1.40478e-05
1.40478e-05
1.40478e-05
1.40478e-05
1.40478e-05
1.40478e-05
1.40478e-05
1.40478e-05
1.40478e-05
1.40479e-05
1.40479e-05
1.40479e-05
1.40479e-05
1.40479e-05
1.40479e-05
1.40479e-05
1.4048e-05
1.4048e-05
1.4048e-05
1.4048e-05
1.40481e-05
1.40481e-05
1.40482e-05
1.40482e-05
1.40483e-05
1.40483e-05
1.40484e-05
1.40485e-05
1.40486e-05
1.40487e-05
1.40488e-05
1.40489e-05
1.4049e-05
1.40491e-05
1.40492e-05
1.40494e-05
1.40495e-05
1.40497e-05
1.40499e-05
1.40501e-05
1.40503e-05
1.40505e-05
1.40507e-05
1.40509e-05
1.40511e-05
1.40513e-05
1.40515e-05
1.40517e-05
1.40519e-05
1.4052e-05
1.40521e-05
1.40522e-05
1.40523e-05
1.40524e-05
1.40524e-05
1.40524e-05
1.40524e-05
1.40523e-05
1.40522e-05
1.40521e-05
1.4052e-05
1.40519e-05
1.40517e-05
1.40515e-05
1.40513e-05
1.40511e-05
1.40509e-05
1.40506e-05
1.40504e-05
1.40502e-05
1.40499e-05
1.40497e-05
1.40495e-05
1.40492e-05
1.4049e-05
1.40488e-05
1.40487e-05
1.40485e-05
1.40484e-05
1.40483e-05
1.40482e-05
1.40481e-05
1.40481e-05
1.4048e-05
1.4048e-05
1.40479e-05
1.40479e-05
1.40479e-05
1.40478e-05
1.40478e-05
1.40478e-05
1.40478e-05
1.40478e-05
1.40478e-05
1.40478e-05
1.40478e-05
1.40478e-05
1.40478e-05
1.40478e-05
1.40478e-05
1.40478e-05
1.40478e-05
1.40478e-05
1.40478e-05
1.40478e-05
1.40478e-05
1.40478e-05
1.40478e-05
1.40478e-05
1.40478e-05
1.40479e-05
1.40479e-05
1.40479e-05
1.40479e-05
1.40479e-05
1.40479e-05
1.40479e-05
1.4048e-05
1.4048e-05
1.4048e-05
1.40481e-05
1.40481e-05
1.40482e-05
1.40482e-05
1.40483e-05
1.40484e-05
1.40484e-05
1.40485e-05
1.40486e-05
1.40488e-05
1.40489e-05
1.40491e-05
1.40492e-05
1.40495e-05
1.40497e-05
1.40499e-05
1.40502e-05
1.40506e-05
1.40509e-05
1.40513e-05
1.40518e-05
1.40524e-05
1.4053e-05
1.40536e-05
1.40543e-05
1.4055e-05
1.40558e-05
1.40567e-05
1.40575e-05
1.40585e-05
1.40596e-05
1.40607e-05
1.40619e-05
1.40633e-05
1.40647e-05
1.40662e-05
1.40677e-05
1.40693e-05
1.40709e-05
1.40724e-05
1.40739e-05
1.40753e-05
1.40766e-05
1.40778e-05
1.40788e-05
1.40797e-05
1.40805e-05
1.4081e-05
1.40814e-05
1.40816e-05
1.40815e-05
1.40813e-05
1.40809e-05
1.40803e-05
1.40795e-05
1.40785e-05
1.40774e-05
1.40761e-05
1.40748e-05
1.40733e-05
1.40717e-05
1.40701e-05
1.40684e-05
1.40667e-05
1.4065e-05
1.40633e-05
1.40615e-05
1.40599e-05
1.40583e-05
1.40568e-05
1.40554e-05
1.40542e-05
1.40532e-05
1.40523e-05
1.40516e-05
1.40509e-05
1.40504e-05
1.40499e-05
1.40495e-05
1.40491e-05
1.40488e-05
1.40486e-05
1.40484e-05
1.40482e-05
1.40481e-05
1.4048e-05
1.4048e-05
1.40479e-05
1.40479e-05
1.40479e-05
1.40478e-05
1.40478e-05
1.40478e-05
1.40478e-05
1.40478e-05
1.40479e-05
1.40479e-05
1.40479e-05
1.4048e-05
1.4048e-05
1.4048e-05
1.40481e-05
1.40481e-05
1.40482e-05
1.40482e-05
1.40483e-05
1.40484e-05
1.40484e-05
1.40485e-05
1.40487e-05
1.40488e-05
1.40489e-05
1.40491e-05
1.40493e-05
1.40496e-05
1.40498e-05
1.40501e-05
1.40505e-05
1.40508e-05
1.40513e-05
1.40518e-05
1.40524e-05
1.40531e-05
1.40539e-05
1.40548e-05
1.40559e-05
1.4057e-05
1.40583e-05
1.40597e-05
1.40614e-05
1.40632e-05
1.40653e-05
1.40677e-05
1.40704e-05
1.40735e-05
1.4077e-05
1.40809e-05
1.40852e-05
1.40898e-05
1.40948e-05
1.41001e-05
1.41057e-05
1.41116e-05
1.4118e-05
1.41249e-05
1.41325e-05
1.41409e-05
1.415e-05
1.41599e-05
1.41703e-05
1.41812e-05
1.41923e-05
1.42036e-05
1.42147e-05
1.42255e-05
1.42358e-05
1.42455e-05
1.42544e-05
1.42624e-05
1.42695e-05
1.42755e-05
1.42804e-05
1.42841e-05
1.42865e-05
1.42875e-05
1.42871e-05
1.42854e-05
1.42823e-05
1.42777e-05
1.4272e-05
1.4265e-05
1.42571e-05
1.42482e-05
1.42386e-05
1.42282e-05
1.42172e-05
1.42057e-05
1.41939e-05
1.41819e-05
1.41697e-05
1.41574e-05
1.41453e-05
1.41334e-05
1.4122e-05
1.41113e-05
1.41016e-05
1.40931e-05
1.4086e-05
1.40799e-05
1.40747e-05
1.40702e-05
1.40662e-05
1.40627e-05
1.40596e-05
1.4057e-05
1.40549e-05
1.40533e-05
1.4052e-05
1.4051e-05
1.40502e-05
1.40496e-05
1.40491e-05
1.40487e-05
1.40485e-05
1.40483e-05
1.40481e-05
1.4048e-05
1.40479e-05
1.40479e-05
1.40479e-05
1.40478e-05
1.40481e-05
1.40481e-05
1.40481e-05
1.40482e-05
1.40483e-05
1.40484e-05
1.40485e-05
1.40486e-05
1.40487e-05
1.40488e-05
1.4049e-05
1.40492e-05
1.40494e-05
1.40497e-05
1.405e-05
1.40504e-05
1.40507e-05
1.40512e-05
1.40517e-05
1.40523e-05
1.4053e-05
1.40538e-05
1.40548e-05
1.40558e-05
1.40571e-05
1.40585e-05
1.40601e-05
1.40619e-05
1.4064e-05
1.40664e-05
1.40692e-05
1.40724e-05
1.4076e-05
1.40803e-05
1.40852e-05
1.40908e-05
1.40972e-05
1.41044e-05
1.41125e-05
1.41215e-05
1.41315e-05
1.41429e-05
1.41558e-05
1.41706e-05
1.41876e-05
1.4207e-05
1.4229e-05
1.42535e-05
1.42806e-05
1.43102e-05
1.43421e-05
1.43761e-05
1.44119e-05
1.44496e-05
1.44896e-05
1.45327e-05
1.45801e-05
1.46323e-05
1.46896e-05
1.47516e-05
1.48179e-05
1.48873e-05
1.49588e-05
1.5031e-05
1.51027e-05
1.51726e-05
1.52397e-05
1.53031e-05
1.53618e-05
1.54154e-05
1.54634e-05
1.55053e-05
1.55407e-05
1.55691e-05
1.559e-05
1.56032e-05
1.56076e-05
1.56044e-05
1.55928e-05
1.55724e-05
1.55438e-05
1.55074e-05
1.54642e-05
1.54149e-05
1.536e-05
1.52998e-05
1.5235e-05
1.5166e-05
1.50936e-05
1.50186e-05
1.49415e-05
1.4863e-05
1.47835e-05
1.47039e-05
1.46253e-05
1.45492e-05
1.44776e-05
1.44128e-05
1.43565e-05
1.43087e-05
1.42682e-05
1.42334e-05
1.42027e-05
1.41754e-05
1.41511e-05
1.41297e-05
1.41117e-05
1.40971e-05
1.40857e-05
1.40768e-05
1.40699e-05
1.40645e-05
1.40601e-05
1.40568e-05
1.40543e-05
1.40524e-05
1.40511e-05
1.40501e-05
1.40494e-05
1.40489e-05
1.40485e-05
1.40483e-05
1.40481e-05
1.40496e-05
1.40499e-05
1.40503e-05
1.40507e-05
1.40512e-05
1.40517e-05
1.40524e-05
1.40531e-05
1.4054e-05
1.4055e-05
1.40561e-05
1.40575e-05
1.4059e-05
1.40608e-05
1.40629e-05
1.40652e-05
1.40679e-05
1.4071e-05
1.40746e-05
1.40787e-05
1.40835e-05
1.4089e-05
1.40953e-05
1.41027e-05
1.41111e-05
1.41208e-05
1.41317e-05
1.41441e-05
1.41583e-05
1.41745e-05
1.41931e-05
1.42148e-05
1.424e-05
1.4269e-05
1.43024e-05
1.43405e-05
1.43834e-05
1.44314e-05
1.44847e-05
1.45436e-05
1.46092e-05
1.46832e-05
1.47676e-05
1.48643e-05
1.49745e-05
1.50988e-05
1.52374e-05
1.53898e-05
1.55551e-05
1.57318e-05
1.59182e-05
1.61125e-05
1.63133e-05
1.65205e-05
1.6738e-05
1.69724e-05
1.72288e-05
1.75082e-05
1.78083e-05
1.81249e-05
1.84527e-05
1.87856e-05
1.91175e-05
1.94421e-05
1.97541e-05
2.00496e-05
2.03257e-05
2.058e-05
2.0811e-05
2.10178e-05
2.11998e-05
2.13562e-05
2.14865e-05
2.1589e-05
2.16615e-05
2.17052e-05
2.17146e-05
2.16978e-05
2.16476e-05
2.15638e-05
2.1448e-05
2.13027e-05
2.11305e-05
2.09332e-05
2.07121e-05
2.04672e-05
2.01989e-05
1.99084e-05
1.95975e-05
1.92684e-05
1.89223e-05
1.85602e-05
1.81834e-05
1.77946e-05
1.73986e-05
1.70028e-05
1.66187e-05
1.6263e-05
1.59494e-05
1.56793e-05
1.54455e-05
1.52388e-05
1.50523e-05
1.4882e-05
1.4727e-05
1.45891e-05
1.44715e-05
1.43761e-05
1.43016e-05
1.42437e-05
1.41981e-05
1.41615e-05
1.41323e-05
1.41095e-05
1.40923e-05
1.40797e-05
1.40705e-05
1.40639e-05
1.4059e-05
1.40555e-05
1.4053e-05
1.40513e-05
1.40501e-05
1.40598e-05
1.40618e-05
1.40642e-05
1.4067e-05
1.40703e-05
1.4074e-05
1.40783e-05
1.40832e-05
1.4089e-05
1.40956e-05
1.41034e-05
1.41123e-05
1.41226e-05
1.41345e-05
1.4148e-05
1.41635e-05
1.41812e-05
1.42015e-05
1.42248e-05
1.42518e-05
1.42831e-05
1.43193e-05
1.43611e-05
1.44091e-05
1.44638e-05
1.45257e-05
1.45954e-05
1.46737e-05
1.47623e-05
1.48635e-05
1.49799e-05
1.5114e-05
1.52678e-05
1.54429e-05
1.56404e-05
1.58606e-05
1.61034e-05
1.6368e-05
1.66536e-05
1.69612e-05
1.72967e-05
1.76693e-05
1.80868e-05
1.85523e-05
1.90651e-05
1.96213e-05
2.02149e-05
2.08382e-05
2.14828e-05
2.21397e-05
2.28007e-05
2.34592e-05
2.4111e-05
2.47597e-05
2.54239e-05
2.61306e-05
2.68842e-05
2.76729e-05
2.84798e-05
2.92891e-05
3.00868e-05
3.08599e-05
3.15964e-05
3.22865e-05
3.29235e-05
3.35052e-05
3.40319e-05
3.45043e-05
3.49233e-05
3.52903e-05
3.56072e-05
3.58746e-05
3.60932e-05
3.62609e-05
3.63701e-05
3.64286e-05
3.64301e-05
3.63882e-05
3.62798e-05
3.61106e-05
3.58849e-05
3.56068e-05
3.52784e-05
3.49013e-05
3.44749e-05
3.39957e-05
3.34609e-05
3.28688e-05
3.22196e-05
3.15135e-05
3.07474e-05
2.99153e-05
2.90131e-05
2.8038e-05
2.69927e-05
2.58899e-05
2.47571e-05
2.36536e-05
2.26402e-05
2.17228e-05
2.08772e-05
2.00777e-05
1.93064e-05
1.85556e-05
1.78292e-05
1.71444e-05
1.6532e-05
1.60186e-05
1.56061e-05
1.52759e-05
1.50063e-05
1.47824e-05
1.45981e-05
1.44519e-05
1.43413e-05
1.42599e-05
1.42002e-05
1.41561e-05
1.41235e-05
1.41e-05
1.40834e-05
1.40719e-05
1.40639e-05
1.41257e-05
1.41391e-05
1.41547e-05
1.41726e-05
1.41933e-05
1.42171e-05
1.42444e-05
1.42761e-05
1.43127e-05
1.43551e-05
1.44041e-05
1.44605e-05
1.45252e-05
1.45989e-05
1.46824e-05
1.47768e-05
1.48835e-05
1.50049e-05
1.51438e-05
1.53029e-05
1.5485e-05
1.56923e-05
1.59265e-05
1.61891e-05
1.64806e-05
1.68013e-05
1.71515e-05
1.75335e-05
1.79543e-05
1.84235e-05
1.89482e-05
1.95321e-05
2.0175e-05
2.08741e-05
2.1624e-05
2.24177e-05
2.32467e-05
2.41021e-05
2.49767e-05
2.58735e-05
2.68136e-05
2.78237e-05
2.89072e-05
3.00516e-05
3.12385e-05
3.24488e-05
3.36642e-05
3.48677e-05
3.60436e-05
3.7179e-05
3.82657e-05
3.92994e-05
4.02811e-05
4.12224e-05
4.21767e-05
4.32356e-05
4.43541e-05
4.54777e-05
4.65673e-05
4.76003e-05
4.85632e-05
4.94466e-05
5.02436e-05
5.09515e-05
5.15702e-05
5.21073e-05
5.25742e-05
5.29769e-05
5.33185e-05
5.36033e-05
5.38363e-05
5.40196e-05
5.41564e-05
5.42491e-05
5.42692e-05
5.42495e-05
5.4198e-05
5.41002e-05
5.39499e-05
5.37384e-05
5.34761e-05
5.31816e-05
5.28495e-05
5.24765e-05
5.20618e-05
5.15951e-05
5.10716e-05
5.04838e-05
4.98251e-05
4.90931e-05
4.82758e-05
4.73503e-05
4.63002e-05
4.51079e-05
4.3754e-05
4.22389e-05
4.0578e-05
3.88682e-05
3.72922e-05
3.58089e-05
3.43438e-05
3.2843e-05
3.12723e-05
2.96105e-05
2.7857e-05
2.60479e-05
2.42833e-05
2.26932e-05
2.13145e-05
2.01087e-05
1.90246e-05
1.80353e-05
1.71491e-05
1.63998e-05
1.5806e-05
1.53521e-05
1.50058e-05
1.47395e-05
1.4537e-05
1.43881e-05
1.42822e-05
1.42078e-05
1.41557e-05
1.41195e-05
1.40949e-05
1.45338e-05
1.46154e-05
1.4709e-05
1.48159e-05
1.49373e-05
1.50753e-05
1.52325e-05
1.54119e-05
1.56167e-05
1.58495e-05
1.61129e-05
1.64086e-05
1.67381e-05
1.71021e-05
1.75011e-05
1.79365e-05
1.8413e-05
1.89385e-05
1.95203e-05
2.01629e-05
2.08672e-05
2.16318e-05
2.24529e-05
2.33252e-05
2.42416e-05
2.51945e-05
2.61777e-05
2.71957e-05
2.82702e-05
2.94188e-05
3.06401e-05
3.19212e-05
3.32462e-05
3.45985e-05
3.59618e-05
3.73204e-05
3.86594e-05
3.99657e-05
4.1233e-05
4.24705e-05
4.37441e-05
4.51316e-05
4.65862e-05
4.80529e-05
4.94891e-05
5.08655e-05
5.21617e-05
5.33646e-05
5.44645e-05
5.54579e-05
5.63489e-05
5.71457e-05
5.78582e-05
5.84933e-05
5.90536e-05
5.95373e-05
5.9954e-05
6.0308e-05
6.06027e-05
6.08443e-05
6.10376e-05
6.11841e-05
6.12846e-05
6.1347e-05
6.1371e-05
6.13662e-05
6.13536e-05
6.13308e-05
6.12983e-05
6.12518e-05
6.11891e-05
6.11137e-05
6.10267e-05
6.09258e-05
6.0806e-05
6.06707e-05
6.05156e-05
6.03445e-05
6.01702e-05
5.99786e-05
5.97837e-05
5.9569e-05
5.93352e-05
5.90988e-05
5.88461e-05
5.85756e-05
5.82985e-05
5.80089e-05
5.77061e-05
5.73839e-05
5.70389e-05
5.66608e-05
5.62543e-05
5.58006e-05
5.52856e-05
5.47224e-05
5.41078e-05
5.34278e-05
5.26596e-05
5.17593e-05
5.06955e-05
4.94486e-05
4.79904e-05
4.62694e-05
4.42389e-05
4.18919e-05
3.93424e-05
3.6946e-05
3.47312e-05
3.25909e-05
3.04223e-05
2.81815e-05
2.5911e-05
2.37691e-05
2.18975e-05
2.03112e-05
1.8956e-05
1.77894e-05
1.68132e-05
1.60433e-05
1.54658e-05
1.50413e-05
1.47311e-05
1.45086e-05
1.4354e-05
1.67305e-05
1.71253e-05
1.75623e-05
1.80422e-05
1.85663e-05
1.91392e-05
1.97673e-05
2.0456e-05
2.1208e-05
2.20229e-05
2.28979e-05
2.38285e-05
2.48085e-05
2.58308e-05
2.68883e-05
2.79799e-05
2.91169e-05
3.03159e-05
3.15784e-05
3.28955e-05
3.42541e-05
3.56402e-05
3.70405e-05
3.84421e-05
3.98328e-05
4.12007e-05
4.25395e-05
4.38584e-05
4.52364e-05
4.67059e-05
4.82231e-05
4.97429e-05
5.12307e-05
5.26606e-05
5.40144e-05
5.52788e-05
5.64435e-05
5.75035e-05
5.84619e-05
5.93244e-05
6.00942e-05
6.07715e-05
6.13691e-05
6.18957e-05
6.23576e-05
6.27591e-05
6.31017e-05
6.33888e-05
6.3618e-05
6.37911e-05
6.39269e-05
6.40383e-05
6.4132e-05
6.42123e-05
6.42761e-05
6.43237e-05
6.4361e-05
6.43855e-05
6.43881e-05
6.43817e-05
6.43633e-05
6.43264e-05
6.42706e-05
6.41952e-05