/*--------------------------------*- C++ -*----------------------------------*\
| =========                 |                                                 |
| \\      /  F ield         | OpenFOAM: The Open Source CFD Toolbox           |
|  \\    /   O peration     | Version:  v1706                                 |
|   \\  /    A nd           | Web:      www.OpenFOAM.com                      |
|    \\/     M anipulation  |                                                 |
\*---------------------------------------------------------------------------*/
FoamFile
{
    version     2.0;
    format      ascii;
    class       volScalarField;
    location    "1.2e-05";
    object      kappatr;
}
// * * * * * * * * * * * * * * * * * * * * * * * * * * * * * * * * * * * * * //

dimensions      [1 1 -3 -1 0 0 0];


internalField   nonuniform List<scalar> 
29871
(
0.014593
0.014593
0.014593
0.014593
0.014593
0.014593
0.014593
0.014593
0.014593
0.014593
0.014593
0.014593
0.014593
0.014593
0.014593
0.014593
0.014593
0.014593
0.014593
0.014593
0.014593
0.014593
0.014593
0.014593
0.014593
0.014593
0.014593
0.014593
0.014593
0.014593
0.014593
0.014593
0.014593
0.014593
0.014593
0.014593
0.014593
0.014593
0.014593
0.014593
0.014593
0.014593
0.014593
0.014593
0.014593
0.014593
0.014593
0.014593
0.014593
0.014593
0.014593
0.014593
0.014593
0.014593
0.014593
0.014593
0.014593
0.014593
0.014593
0.014593
0.014593
0.014593
0.014593
0.014593
0.014593
0.014593
0.014593
0.014593
0.014593
0.014593
0.014593
0.014593
0.014593
0.014593
0.014593
0.014593
0.014593
0.014593
0.014593
0.014593
0.014593
0.014593
0.014593
0.014593
0.014593
0.014593
0.014593
0.014593
0.014593
0.014593
0.014593
0.014593
0.014593
0.014593
0.014593
0.014593
0.014593
0.014593
0.014593
0.014593
0.014593
0.014593
0.014593
0.014593
0.014593
0.014593
0.014593
0.014593
0.014593
0.014593
0.014593
0.014593
0.014593
0.014593
0.014593
0.014593
0.014593
0.014593
0.014593
0.014593
0.014593
0.014593
0.014593
0.014593
0.014593
0.014593
0.014593
0.014593
0.014593
0.014593
0.014593
0.014593
0.014593
0.014593
0.014593
0.014593
0.014593
0.014593
0.014593
0.014593
0.014593
0.014593
0.014593
0.014593
0.014593
0.014593
0.014593
0.014593
0.014593
0.014593
0.014593
0.014593
0.014593
0.014593
0.014593
0.014593
0.014593
0.014593
0.014593
0.014593
0.014593
0.014593
0.014593
0.014593
0.014593
0.014593
0.014593
0.014593
0.014593
0.014593
0.014593
0.014593
0.014593
0.014593
0.014593
0.014593
0.014593
0.014593
0.014593
0.014593
0.014593
0.014593
0.014593
0.014593
0.014593
0.014593
0.014593
0.014593
0.014593
0.014593
0.014593
0.014593
0.014593
0.014593
0.014593
0.014593
0.014593
0.014593
0.014593
0.014593
0.014593
0.014593
0.014593
0.014593
0.014593
0.014593
0.014593
0.014593
0.014593
0.014593
0.014593
0.014593
0.014593
0.014593
0.014593
0.014593
0.014593
0.014593
0.014593
0.014593
0.014593
0.014593
0.014593
0.014593
0.014593
0.014593
0.014593
0.014593
0.014593
0.014593
0.014593
0.014593
0.014593
0.014593
0.014593
0.014593
0.014593
0.014593
0.014593
0.014593
0.014593
0.014593
0.014593
0.014593
0.014593
0.014593
0.014593
0.014593
0.014593
0.014593
0.014593
0.014593
0.014593
0.014593
0.014593
0.014593
0.014593
0.014593
0.014593
0.014593
0.014593
0.014593
0.014593
0.014593
0.014593
0.014593
0.014593
0.014593
0.014593
0.014593
0.014593
0.014593
0.014593
0.014593
0.014593
0.014593
0.014593
0.014593
0.014593
0.014593
0.014593
0.014593
0.014593
0.014593
0.014593
0.014593
0.014593
0.014593
0.014593
0.014593
0.014593
0.014593
0.014593
0.014593
0.014593
0.014593
0.014593
0.014593
0.014593
0.014593
0.014593
0.014593
0.014593
0.014593
0.014593
0.014593
0.014593
0.014593
0.014593
0.014593
0.014593
0.014593
0.014593
0.014593
0.014593
0.014593
0.014593
0.014593
0.014593
0.014593
0.014593
0.014593
0.014593
0.014593
0.014593
0.014593
0.014593
0.014593
0.014593
0.014593
0.014593
0.014593
0.014593
0.014593
0.014593
0.014593
0.014593
0.014593
0.014593
0.014593
0.014593
0.014593
0.014593
0.014593
0.014593
0.014593
0.014593
0.014593
0.014593
0.014593
0.014593
0.014593
0.014593
0.014593
0.014593
0.014593
0.014593
0.014593
0.014593
0.014593
0.014593
0.014593
0.014593
0.014593
0.014593
0.014593
0.014593
0.014593
0.014593
0.014593
0.014593
0.014593
0.014593
0.014593
0.014593
0.014593
0.014593
0.014593
0.014593
0.014593
0.014593
0.014593
0.014593
0.014593
0.014593
0.014593
0.014593
0.014593
0.014593
0.014593
0.014593
0.014593
0.014593
0.014593
0.014593
0.014593
0.014593
0.014593
0.014593
0.014593
0.014593
0.014593
0.014593
0.014593
0.014593
0.014593
0.014593
0.014593
0.014593
0.014593
0.014593
0.014593
0.014593
0.014593
0.014593
0.014593
0.014593
0.014593
0.014593
0.014593
0.014593
0.014593
0.014593
0.014593
0.014593
0.014593
0.014593
0.014593
0.014593
0.014593
0.014593
0.014593
0.014593
0.014593
0.014593
0.014593
0.014593
0.014593
0.014593
0.014593
0.014593
0.014593
0.014593
0.014593
0.014593
0.014593
0.014593
0.014593
0.014593
0.014593
0.014593
0.014593
0.014593
0.014593
0.014593
0.014593
0.014593
0.014593
0.014593
0.014593
0.014593
0.014593
0.014593
0.014593
0.014593
0.014593
0.014593
0.014593
0.014593
0.014593
0.014593
0.014593
0.014593
0.014593
0.014593
0.014593
0.014593
0.014593
0.014593
0.014593
0.014593
0.014593
0.014593
0.014593
0.014593
0.014593
0.014593
0.014593
0.014593
0.014593
0.014593
0.014593
0.014593
0.014593
0.014593
0.014593
0.014593
0.014593
0.014593
0.014593
0.014593
0.014593
0.014593
0.014593
0.014593
0.014593
0.014593
0.014593
0.014593
0.014593
0.014593
0.014593
0.014593
0.014593
0.014593
0.014593
0.014593
0.014593
0.014593
0.014593
0.014593
0.014593
0.014593
0.014593
0.014593
0.014593
0.014593
0.014593
0.014593
0.014593
0.014593
0.014593
0.014593
0.014593
0.014593
0.014593
0.014593
0.014593
0.014593
0.014593
0.014593
0.014593
0.014593
0.014593
0.014593
0.014593
0.014593
0.014593
0.014593
0.014593
0.014593
0.014593
0.014593
0.014593
0.014593
0.014593
0.014593
0.014593
0.014593
0.014593
0.014593
0.014593
0.014593
0.014593
0.014593
0.014593
0.014593
0.014593
0.014593
0.014593
0.014593
0.014593
0.014593
0.014593
0.014593
0.014593
0.014593
0.014593
0.014593
0.014593
0.014593
0.014593
0.014593
0.014593
0.014593
0.014593
0.014593
0.014593
0.014593
0.014593
0.014593
0.014593
0.014593
0.014593
0.014593
0.014593
0.014593
0.014593
0.014593
0.014593
0.014593
0.014593
0.014593
0.014593
0.014593
0.014593
0.014593
0.014593
0.014593
0.014593
0.014593
0.014593
0.014593
0.014593
0.014593
0.014593
0.014593
0.014593
0.014593
0.014593
0.014593
0.014593
0.014593
0.014593
0.014593
0.014593
0.014593
0.014593
0.014593
0.014593
0.014593
0.014593
0.014593
0.014593
0.014593
0.014593
0.014593
0.014593
0.014593
0.014593
0.014593
0.014593
0.014593
0.014593
0.014593
0.014593
0.014593
0.014593
0.014593
0.014593
0.014593
0.014593
0.014593
0.014593
0.014593
0.014593
0.014593
0.014593
0.014593
0.014593
0.014593
0.014593
0.014593
0.014593
0.014593
0.014593
0.014593
0.014593
0.014593
0.014593
0.014593
0.014593
0.014593
0.014593
0.014593
0.014593
0.014593
0.014593
0.014593
0.014593
0.014593
0.014593
0.014593
0.014593
0.014593
0.014593
0.014593
0.014593
0.014593
0.014593
0.014593
0.014593
0.014593
0.014593
0.014593
0.014593
0.014593
0.014593
0.014593
0.014593
0.014593
0.014593
0.014593
0.014593
0.014593
0.014593
0.014593
0.014593
0.014593
0.014593
0.014593
0.014593
0.014593
0.014593
0.014593
0.014593
0.014593
0.014593
0.014593
0.014593
0.014593
0.014593
0.014593
0.014593
0.014593
0.014593
0.014593
0.014593
0.014593
0.014593
0.014593
0.014593
0.014593
0.014593
0.014593
0.014593
0.014593
0.014593
0.014593
0.014593
0.014593
0.014593
0.014593
0.014593
0.014593
0.014593
0.014593
0.014593
0.014593
0.014593
0.014593
0.014593
0.014593
0.014593
0.014593
0.014593
0.014593
0.014593
0.014593
0.014593
0.014593
0.014593
0.014593
0.014593
0.014593
0.014593
0.014593
0.014593
0.014593
0.014593
0.014593
0.014593
0.014593
0.014593
0.014593
0.014593
0.014593
0.014593
0.014593
0.014593
0.014593
0.014593
0.014593
0.014593
0.014593
0.014593
0.014593
0.014593
0.014593
0.014593
0.014593
0.014593
0.014593
0.014593
0.014593
0.014593
0.014593
0.014593
0.014593
0.014593
0.014593
0.014593
0.014593
0.014593
0.014593
0.014593
0.014593
0.014593
0.014593
0.014593
0.014593
0.014593
0.014593
0.014593
0.014593
0.014593
0.014593
0.014593
0.014593
0.014593
0.014593
0.014593
0.014593
0.014593
0.014593
0.014593
0.014593
0.014593
0.014593
0.014593
0.014593
0.014593
0.014593
0.014593
0.014593
0.014593
0.014593
0.014593
0.014593
0.014593
0.014593
0.014593
0.014593
0.014593
0.014593
0.014593
0.014593
0.014593
0.014593
0.014593
0.014593
0.014593
0.014593
0.014593
0.014593
0.014593
0.014593
0.014593
0.014593
0.014593
0.014593
0.014593
0.014593
0.014593
0.014593
0.014593
0.014593
0.014593
0.014593
0.014593
0.014593
0.014593
0.014593
0.014593
0.014593
0.014593
0.014593
0.014593
0.014593
0.014593
0.014593
0.014593
0.014593
0.014593
0.014593
0.014593
0.014593
0.014593
0.014593
0.014593
0.014593
0.014593
0.014593
0.014593
0.014593
0.014593
0.014593
0.014593
0.014593
0.014593
0.014593
0.014593
0.014593
0.014593
0.014593
0.014593
0.014593
0.014593
0.014593
0.014593
0.014593
0.014593
0.014593
0.014593
0.014593
0.014593
0.014593
0.014593
0.014593
0.014593
0.014593
0.014593
0.014593
0.014593
0.014593
0.014593
0.014593
0.014593
0.014593
0.014593
0.014593
0.014593
0.014593
0.014593
0.014593
0.014593
0.014593
0.014593
0.014593
0.014593
0.014593
0.014593
0.014593
0.014593
0.014593
0.014593
0.014593
0.014593
0.014593
0.014593
0.014593
0.014593
0.014593
0.014593
0.014593
0.014593
0.014593
0.014593
0.014593
0.014593
0.014593
0.014593
0.014593
0.014593
0.014593
0.014593
0.014593
0.014593
0.014593
0.014593
0.014593
0.014593
0.014593
0.014593
0.014593
0.014593
0.014593
0.014593
0.014593
0.014593
0.014593
0.014593
0.014593
0.014593
0.014593
0.014593
0.014593
0.014593
0.014593
0.014593
0.014593
0.014593
0.014593
0.014593
0.014593
0.014593
0.014593
0.014593
0.014593
0.014593
0.014593
0.014593
0.014593
0.014593
0.014593
0.014593
0.014593
0.014593
0.014593
0.014593
0.014593
0.014593
0.014593
0.014593
0.014593
0.014593
0.014593
0.014593
0.014593
0.014593
0.014593
0.014593
0.014593
0.014593
0.014593
0.014593
0.014593
0.014593
0.014593
0.014593
0.014593
0.014593
0.014593
0.014593
0.014593
0.014593
0.014593
0.014593
0.014593
0.014593
0.014593
0.014593
0.014593
0.014593
0.014593
0.014593
0.014593
0.014593
0.014593
0.014593
0.014593
0.014593
0.014593
0.014593
0.014593
0.014593
0.014593
0.014593
0.014593
0.014593
0.014593
0.014593
0.014593
0.014593
0.014593
0.014593
0.014593
0.014593
0.014593
0.014593
0.014593
0.014593
0.014593
0.014593
0.014593
0.014593
0.014593
0.014593
0.014593
0.014593
0.014593
0.014593
0.014593
0.014593
0.014593
0.014593
0.014593
0.014593
0.014593
0.014593
0.014593
0.014593
0.014593
0.014593
0.014593
0.014593
0.014593
0.014593
0.014593
0.014593
0.014593
0.014593
0.014593
0.014593
0.014593
0.014593
0.014593
0.014593
0.014593
0.014593
0.014593
0.014593
0.014593
0.014593
0.014593
0.014593
0.014593
0.014593
0.014593
0.014593
0.014593
0.014593
0.014593
0.014593
0.014593
0.014593
0.014593
0.014593
0.014593
0.014593
0.014593
0.014593
0.014593
0.014593
0.014593
0.014593
0.014593
0.014593
0.014593
0.014593
0.014593
0.014593
0.014593
0.014593
0.014593
0.014593
0.014593
0.014593
0.014593
0.014593
0.014593
0.014593
0.014593
0.014593
0.014593
0.014593
0.014593
0.014593
0.014593
0.014593
0.014593
0.014593
0.014593
0.014593
0.014593
0.014593
0.014593
0.014593
0.014593
0.014593
0.014593
0.014593
0.014593
0.014593
0.014593
0.014593
0.014593
0.014593
0.014593
0.014593
0.014593
0.014593
0.014593
0.014593
0.014593
0.014593
0.014593
0.014593
0.014593
0.014593
0.014593
0.014593
0.014593
0.014593
0.014593
0.014593
0.014593
0.014593
0.014593
0.014593
0.014593
0.014593
0.014593
0.014593
0.014593
0.014593
0.014593
0.014593
0.014593
0.014593
0.014593
0.014593
0.014593
0.014593
0.014593
0.014593
0.014593
0.014593
0.014593
0.014593
0.014593
0.014593
0.014593
0.014593
0.014593
0.014593
0.014593
0.014593
0.014593
0.014593
0.014593
0.014593
0.014593
0.014593
0.014593
0.014593
0.014593
0.014593
0.014593
0.014593
0.0145931
0.0145931
0.0145931
0.0145931
0.0145931
0.0145931
0.0145931
0.0145931
0.0145931
0.0145931
0.0145931
0.0145931
0.0145931
0.0145931
0.0145931
0.0145931
0.0145931
0.0145931
0.0145931
0.0145931
0.0145931
0.0145931
0.0145931
0.0145931
0.0145931
0.0145931
0.0145931
0.0145931
0.014593
0.014593
0.014593
0.014593
0.014593
0.014593
0.014593
0.014593
0.014593
0.014593
0.014593
0.014593
0.014593
0.014593
0.014593
0.014593
0.014593
0.014593
0.014593
0.014593
0.014593
0.014593
0.014593
0.014593
0.014593
0.014593
0.014593
0.014593
0.014593
0.014593
0.014593
0.014593
0.014593
0.014593
0.014593
0.014593
0.014593
0.014593
0.014593
0.014593
0.014593
0.014593
0.014593
0.014593
0.014593
0.014593
0.014593
0.014593
0.014593
0.014593
0.014593
0.014593
0.014593
0.014593
0.014593
0.014593
0.014593
0.014593
0.014593
0.014593
0.014593
0.014593
0.014593
0.0145931
0.0145931
0.0145931
0.0145931
0.0145931
0.0145931
0.0145931
0.0145931
0.0145931
0.0145931
0.0145932
0.0145932
0.0145932
0.0145932
0.0145932
0.0145932
0.0145933
0.0145933
0.0145933
0.0145933
0.0145934
0.0145934
0.0145934
0.0145935
0.0145935
0.0145935
0.0145935
0.0145936
0.0145936
0.0145936
0.0145936
0.0145936
0.0145936
0.0145936
0.0145936
0.0145936
0.0145936
0.0145936
0.0145936
0.0145936
0.0145936
0.0145935
0.0145935
0.0145935
0.0145935
0.0145934
0.0145934
0.0145934
0.0145933
0.0145933
0.0145933
0.0145932
0.0145932
0.0145932
0.0145932
0.0145931
0.0145931
0.0145931
0.0145931
0.0145931
0.0145931
0.014593
0.014593
0.014593
0.014593
0.014593
0.014593
0.014593
0.014593
0.014593
0.014593
0.014593
0.014593
0.014593
0.014593
0.014593
0.014593
0.014593
0.014593
0.014593
0.014593
0.014593
0.014593
0.014593
0.014593
0.014593
0.014593
0.014593
0.014593
0.014593
0.014593
0.014593
0.014593
0.014593
0.014593
0.014593
0.014593
0.014593
0.0145931
0.0145931
0.0145931
0.0145931
0.0145931
0.0145931
0.0145931
0.0145931
0.0145931
0.0145932
0.0145932
0.0145932
0.0145932
0.0145933
0.0145933
0.0145933
0.0145934
0.0145934
0.0145935
0.0145936
0.0145936
0.0145937
0.0145938
0.0145939
0.014594
0.0145941
0.0145943
0.0145944
0.0145945
0.0145947
0.0145948
0.014595
0.0145952
0.0145954
0.0145956
0.0145958
0.014596
0.0145962
0.0145965
0.0145967
0.0145969
0.0145971
0.0145972
0.0145974
0.0145975
0.0145976
0.0145977
0.0145978
0.0145978
0.0145978
0.0145978
0.0145977
0.0145976
0.0145975
0.0145974
0.0145972
0.0145971
0.0145969
0.0145966
0.0145964
0.0145962
0.014596
0.0145957
0.0145955
0.0145952
0.014595
0.0145947
0.0145945
0.0145943
0.0145941
0.0145939
0.0145938
0.0145937
0.0145935
0.0145935
0.0145934
0.0145933
0.0145932
0.0145932
0.0145931
0.0145931
0.0145931
0.0145931
0.0145931
0.014593
0.014593
0.014593
0.014593
0.014593
0.014593
0.014593
0.014593
0.014593
0.014593
0.014593
0.014593
0.014593
0.014593
0.014593
0.014593
0.014593
0.0145931
0.0145931
0.0145931
0.0145931
0.0145931
0.0145931
0.0145931
0.0145931
0.0145932
0.0145932
0.0145932
0.0145932
0.0145933
0.0145933
0.0145933
0.0145934
0.0145935
0.0145935
0.0145936
0.0145937
0.0145938
0.0145939
0.014594
0.0145942
0.0145943
0.0145945
0.0145947
0.014595
0.0145952
0.0145955
0.0145959
0.0145963
0.0145967
0.0145972
0.0145978
0.0145984
0.014599
0.0145998
0.0146005
0.0146013
0.0146022
0.0146031
0.0146041
0.0146052
0.0146064
0.0146077
0.0146091
0.0146106
0.0146121
0.0146137
0.0146154
0.014617
0.0146186
0.0146201
0.0146216
0.0146229
0.0146242
0.0146252
0.0146262
0.0146269
0.0146275
0.0146279
0.0146281
0.0146281
0.0146278
0.0146274
0.0146268
0.0146259
0.0146249
0.0146238
0.0146225
0.014621
0.0146195
0.0146179
0.0146162
0.0146144
0.0146127
0.0146109
0.0146091
0.0146073
0.0146056
0.0146039
0.0146023
0.0146009
0.0145997
0.0145986
0.0145977
0.0145969
0.0145963
0.0145957
0.0145952
0.0145947
0.0145944
0.0145941
0.0145938
0.0145936
0.0145935
0.0145934
0.0145933
0.0145932
0.0145931
0.0145931
0.0145931
0.0145931
0.014593
0.014593
0.014593
0.014593
0.0145931
0.0145931
0.0145932
0.0145932
0.0145932
0.0145933
0.0145933
0.0145933
0.0145934
0.0145934
0.0145935
0.0145936
0.0145937
0.0145938
0.0145939
0.014594
0.0145942
0.0145944
0.0145946
0.0145948
0.0145951
0.0145954
0.0145958
0.0145962
0.0145967
0.0145972
0.0145978
0.0145985
0.0145994
0.0146003
0.0146014
0.0146026
0.0146039
0.0146054
0.0146071
0.014609
0.0146112
0.0146137
0.0146165
0.0146198
0.0146234
0.0146274
0.0146318
0.0146367
0.0146418
0.0146473
0.0146531
0.0146593
0.0146659
0.0146731
0.014681
0.0146897
0.0146992
0.0147094
0.0147203
0.0147316
0.0147432
0.0147548
0.0147664
0.0147776
0.0147883
0.0147984
0.0148076
0.014816
0.0148233
0.0148296
0.0148347
0.0148385
0.014841
0.014842
0.0148417
0.0148398
0.0148366
0.0148319
0.0148259
0.0148187
0.0148104
0.0148012
0.0147912
0.0147804
0.014769
0.0147571
0.0147448
0.0147323
0.0147196
0.0147069
0.0146943
0.0146819
0.0146701
0.0146589
0.0146489
0.0146401
0.0146327
0.0146263
0.014621
0.0146163
0.0146121
0.0146085
0.0146053
0.0146026
0.0146004
0.0145987
0.0145973
0.0145963
0.0145955
0.0145948
0.0145943
0.014594
0.0145937
0.0145935
0.0145933
0.0145932
0.0145932
0.0145931
0.0145931
0.0145931
0.0145933
0.0145933
0.0145934
0.0145934
0.0145935
0.0145936
0.0145937
0.0145938
0.014594
0.0145941
0.0145943
0.0145945
0.0145947
0.014595
0.0145953
0.0145957
0.0145961
0.0145966
0.0145971
0.0145977
0.0145984
0.0145993
0.0146002
0.0146014
0.0146027
0.0146041
0.0146058
0.0146077
0.0146099
0.0146124
0.0146152
0.0146185
0.0146224
0.0146268
0.0146319
0.0146377
0.0146444
0.0146519
0.0146602
0.0146696
0.01468
0.0146918
0.0147052
0.0147206
0.0147382
0.0147584
0.0147812
0.0148067
0.0148349
0.0148656
0.0148988
0.0149341
0.0149713
0.0150104
0.0150519
0.0150968
0.015146
0.0152002
0.0152597
0.0153242
0.015393
0.0154651
0.0155393
0.0156144
0.0156889
0.0157615
0.0158312
0.015897
0.015958
0.0160137
0.0160636
0.0161071
0.0161439
0.0161734
0.0161951
0.0162087
0.0162134
0.0162101
0.0161979
0.0161768
0.0161471
0.0161093
0.0160644
0.0160132
0.0159561
0.0158937
0.0158263
0.0157546
0.0156795
0.0156015
0.0155215
0.0154398
0.0153573
0.0152746
0.015193
0.0151139
0.0150395
0.0149722
0.0149137
0.0148641
0.014822
0.0147858
0.0147539
0.0147256
0.0147003
0.0146781
0.0146594
0.0146442
0.0146324
0.0146232
0.014616
0.0146103
0.0146058
0.0146024
0.0145998
0.0145978
0.0145964
0.0145954
0.0145947
0.0145942
0.0145938
0.0145935
0.0145934
0.0145949
0.0145952
0.0145956
0.014596
0.0145965
0.0145971
0.0145978
0.0145985
0.0145994
0.0146005
0.0146017
0.0146031
0.0146047
0.0146066
0.0146087
0.0146111
0.0146139
0.0146172
0.0146208
0.0146251
0.0146301
0.0146358
0.0146424
0.01465
0.0146588
0.0146688
0.0146802
0.0146931
0.0147078
0.0147246
0.014744
0.0147665
0.0147926
0.0148228
0.0148575
0.014897
0.0149417
0.0149915
0.0150469
0.0151081
0.0151762
0.0152531
0.0153408
0.0154412
0.0155556
0.0156848
0.0158288
0.0159871
0.0161588
0.0163424
0.016536
0.0167379
0.0169464
0.0171617
0.0173876
0.0176311
0.0178975
0.0181877
0.0184994
0.0188283
0.0191688
0.0195147
0.0198594
0.0201966
0.0205208
0.0208278
0.0211145
0.0213787
0.0216187
0.0218335
0.0220225
0.0221851
0.0223204
0.0224269
0.0225023
0.0225476
0.0225573
0.02254
0.0224878
0.0224008
0.0222804
0.0221295
0.0219506
0.0217457
0.0215159
0.0212615
0.0209829
0.020681
0.0203581
0.0200162
0.0196567
0.0192806
0.0188892
0.0184853
0.0180738
0.0176627
0.0172637
0.0168942
0.0165684
0.0162879
0.0160449
0.0158302
0.0156365
0.0154596
0.0152986
0.0151553
0.0150331
0.0149341
0.0148566
0.0147965
0.0147491
0.0147111
0.0146808
0.0146571
0.0146392
0.0146262
0.0146166
0.0146097
0.0146046
0.014601
0.0145985
0.0145967
0.0145955
0.0146054
0.0146076
0.0146101
0.014613
0.0146163
0.0146202
0.0146247
0.0146298
0.0146358
0.0146427
0.0146507
0.01466
0.0146707
0.0146831
0.0146972
0.0147132
0.0147316
0.0147526
0.0147769
0.0148049
0.0148374
0.0148751
0.0149185
0.0149683
0.0150251
0.0150894
0.0151618
0.0152432
0.0153353
0.0154404
0.0155613
0.0157006
0.0158603
0.0160423
0.0162474
0.0164762
0.0167284
0.0170032
0.0172999
0.0176195
0.017968
0.0183551
0.0187887
0.0192723
0.019805
0.0203828
0.0209994
0.021647
0.0223166
0.022999
0.0236857
0.0243697
0.0250468
0.0257206
0.0264106
0.0271448
0.0279276
0.0287469
0.0295851
0.0304258
0.0312545
0.0320576
0.0328227
0.0335396
0.0342014
0.0348056
0.0353527
0.0358435
0.0362787
0.03666
0.0369892
0.037267
0.0374941
0.0376682
0.0377817
0.0378424
0.037844
0.0378005
0.0376879
0.0375122
0.0372777
0.0369888
0.0366476
0.0362558
0.0358129
0.0353151
0.0347596
0.0341445
0.0334701
0.0327366
0.0319407
0.0310764
0.0301391
0.0291262
0.0280403
0.0268947
0.0257179
0.0245716
0.0235189
0.0225659
0.0216875
0.0208569
0.0200557
0.0192758
0.0185212
0.0178098
0.0171736
0.0166403
0.0162118
0.0158688
0.0155887
0.0153562
0.0151647
0.0150128
0.0148979
0.0148133
0.0147513
0.0147055
0.0146717
0.0146473
0.01463
0.0146181
0.0146098
0.0146739
0.0146879
0.014704
0.0147227
0.0147442
0.0147689
0.0147973
0.0148301
0.0148682
0.0149122
0.0149631
0.0150217
0.0150889
0.0151655
0.0152523
0.0153503
0.0154612
0.0155873
0.0157315
0.0158969
0.016086
0.0163013
0.0165447
0.0168174
0.0171202
0.0174534
0.0178172
0.018214
0.0186512
0.0191385
0.0196836
0.0202902
0.0209581
0.0216842
0.0224633
0.0232878
0.024149
0.0250375
0.0259461
0.0268777
0.0278543
0.0289035
0.0300291
0.031218
0.032451
0.0337082
0.0349708
0.036221
0.0374426
0.038622
0.0397508
0.0408247
0.0418445
0.0428223
0.0438136
0.0449137
0.0460755
0.0472427
0.0483747
0.0494478
0.050448
0.0513657
0.0521936
0.0529291
0.0535717
0.0541296
0.0546147
0.055033
0.0553879
0.0556838
0.0559258
0.0561162
0.0562583
0.0563547
0.0563755
0.0563551
0.0563015
0.0562
0.0560438
0.0558241
0.0555516
0.0552457
0.0549007
0.0545132
0.0540824
0.0535976
0.0530538
0.0524431
0.0517589
0.0509985
0.0501494
0.049188
0.0480972
0.0468586
0.0454522
0.0438783
0.0421529
0.0403768
0.0387396
0.0371987
0.0356767
0.0341177
0.032486
0.0307597
0.0289381
0.0270589
0.0252258
0.023574
0.0221418
0.0208892
0.019763
0.0187352
0.0178147
0.0170363
0.0164194
0.015948
0.0155882
0.0153116
0.0151012
0.0149466
0.0148365
0.0147592
0.0147051
0.0146675
0.014642
0.0150979
0.0151827
0.0152799
0.0153909
0.015517
0.0156604
0.0158237
0.0160101
0.0162228
0.0164647
0.0167382
0.0170454
0.0173877
0.0177658
0.0181803
0.0186326
0.0191276
0.0196735
0.020278
0.0209454
0.0216771
0.0224713
0.0233244
0.0242305
0.0251825
0.0261723
0.0271937
0.0282512
0.0293674
0.0305606
0.0318293
0.0331602
0.0345366
0.0359413
0.0373576
0.0387689
0.0401598
0.0415168
0.0428333
0.0441189
0.0454419
0.0468832
0.0483943
0.0499179
0.0514099
0.0528397
0.0541862
0.0554358
0.0565784
0.0576103
0.0585359
0.0593636
0.0601038
0.0607635
0.0613456
0.0618481
0.0622809
0.0626487
0.0629548
0.0632058
0.0634066
0.0635588
0.0636632
0.0637281
0.063753
0.0637479
0.0637349
0.0637112
0.0636774
0.0636292
0.063564
0.0634856
0.0633953
0.0632905
0.063166
0.0630255
0.0628643
0.0626866
0.0625055
0.0623065
0.0621041
0.061881
0.0616381
0.0613926
0.06113
0.060849
0.0605612
0.0602603
0.0599458
0.0596111
0.0592527
0.0588599
0.0584376
0.0579663
0.0574314
0.0568463
0.0562078
0.0555014
0.0547034
0.0537681
0.0526631
0.0513678
0.0498529
0.0480652
0.0459559
0.0435178
0.0408693
0.0383799
0.0360791
0.0338558
0.0316031
0.0292752
0.0269167
0.0246916
0.0227474
0.0210995
0.0196917
0.0184798
0.0174657
0.0166659
0.0160661
0.0156251
0.0153029
0.0150717
0.0149111
0.0173799
0.01779
0.0182439
0.0187424
0.0192869
0.019882
0.0205345
0.02125
0.0220312
0.0228776
0.0237866
0.0247533
0.0257714
0.0268334
0.0279319
0.0290658
0.030247
0.0314925
0.032804
0.0341723
0.0355835
0.0370235
0.0384781
0.0399341
0.0413788
0.0427998
0.0441905
0.0455606
0.0469921
0.0485186
0.0500947
0.0516736
0.053219
0.0547045
0.0561109
0.0574243
0.0586342
0.0597353
0.060731
0.0616269
0.0624266
0.0631302
0.063751
0.064298
0.0647778
0.0651949
0.0655508
0.0658491
0.0660872
0.066267
0.0664081
0.0665238
0.0666212
0.0667046
0.0667708
0.0668203
0.0668591
0.0668845
0.0668871
0.0668806
0.0668614
0.0668231
0.0667652
0.0666868
0.0665861
0.066465
0.0663289
0.0661905
0.0660581
0.0659114
0.0657493
0.0655942
0.0654384
0.0652707
0.0651
0.0649228
0.0647347
0.064548
0.0643528
0.064141
0.0639473
0.0637559
0.0635657
0.0633574
0.0631061
0.0628652
0.0626394
0.0624189
0.0621966
0.061935
0.0616778
0.0614292
0.0611604
0.0608419
0.0605257
0.0602217
0.0599229
0.0596413
0.0593071
0.0589186
0.0584805
0.0580086
0.0574976
0.0569146
0.0562311
0.0554334
0.0545025
0.053424
0.0521206
0.0504934
0.0484556
0.045946
0.0429554
0.0397825
0.0367966
0.0339896
0.0312434
0.0284969
0.025842
0.0234719
0.021467
0.0197934
0.0184057
0.0172983
0.0164654
0.0244919
0.0255736
0.0267113
0.0278967
0.0291215
0.0303838
0.0316929
0.0330585
0.0344773
0.0359378
0.0374262
0.0389289
0.0404333
0.041928
0.0434028
0.044849
0.0462679
0.0477005
0.0492073
0.0507591
0.052319
0.0538545
0.0553406
0.0567585
0.0580951
0.0593405
0.0604868
0.0615319
0.062478
0.0633224
0.0640709
0.064737
0.0653305
0.0658588
0.0663258
0.0667341
0.0670865
0.0673796
0.0676148
0.0678074
0.0679736
0.0681226
0.0682557
0.0683758
0.0684833
0.0685795
0.0686643
0.0687343
0.068789
0.0688239
0.0688204
0.0687983
0.0687589
0.0687068
0.0686494
0.0685857
0.0685087
0.0684319
0.068357
0.0682782
0.0681971
0.0681161
0.0680369
0.0679606
0.06788
0.0677922
0.0676907
0.0675593
0.0674226
0.0672885
0.0671341
0.0669642
0.0668013
0.0666401
0.0664663
0.0662911
0.0661127
0.0659255
0.0657435
0.065552
0.065345
0.0651591
0.0649803
0.0648075
0.064614
0.0643738
0.0641502
0.0639439
0.0637456
0.0635454
0.0633013
0.0630627
0.0628383
0.0625957
0.0623048
0.0620225
0.0617525
0.0614876
0.0612354
0.060962
0.0606323
0.0602906
0.0599591
0.0596242
0.0592869
0.0589323
0.0585669
0.0582384
0.0578653
0.0573967
0.0568294
0.0561694
0.0553996
0.0544633
0.0533377
0.0519278
0.0501005
0.0477334
0.0447349
0.0412266
0.0377498
0.0344641
0.0312969
0.0281982
0.0252973
0.0227816
0.0397881
0.041402
0.0429998
0.0445708
0.0461073
0.047611
0.0491251
0.050685
0.0522652
0.0538346
0.0553663
0.0568387
0.0582358
0.0595468
0.0607643
0.0618837
0.0629011
0.063815
0.0646245
0.0653431
0.0659832
0.0665535
0.0670613
0.0675114
0.0679068
0.0682494
0.0685358
0.0687693
0.0689676
0.069142
0.0693008
0.069447
0.0695822
0.0697078
0.0698231
0.0699272
0.0700186
0.0700916
0.0701377
0.0701515
0.0701497
0.0701437
0.0701311
0.0701121
0.0700908
0.0700685
0.0700464
0.0700256
0.0700095
0.0699993
0.0699924
0.0699771
0.0699433
0.0698876
0.0698197
0.0697351
0.069636
0.0695373
0.0694383
0.0693362
0.0692307
0.0691241
0.0690211
0.0689229
0.0688246
0.0687307
0.068626
0.0684981
0.068374
0.0682446
0.0680877
0.0679141
0.0677564
0.0675939
0.067414
0.0672367
0.0670586
0.0668709
0.0666899
0.0665025
0.0662981
0.0661144
0.0659416
0.0657776
0.0655851
0.0653552
0.0651529
0.064959
0.0647762
0.0645886
0.0643653
0.0641384
0.0639263
0.0637086
0.0634463
0.06319
0.0629358
0.0626799
0.0624503
0.062223
0.0619407
0.0616503
0.0613607
0.061063
0.060766
0.0604517
0.0601388
0.0598404
0.0595191
0.0591463
0.0587391
0.0583269
0.0579185
0.0575662
0.0571991
0.0567339
0.0561607
0.0554529
0.054551
0.0534428
0.0520179
0.0501051
0.0475226
0.0441679
0.0403189
0.036541
0.0329525
0.0294971
0.0573942
0.0588822
0.0602792
0.0615764
0.0627694
0.0638537
0.0648226
0.0656772
0.0664304
0.0670948
0.067682
0.0682007
0.0686577
0.0690579
0.0694048
0.0696977
0.0699365
0.0701357
0.0703097
0.0704663
0.0706112
0.0707444
0.0708681
0.0709824
0.0710867
0.0711783
0.0712506
0.0712941
0.0713143
0.0713245
0.071332
0.0713329
0.0713335
0.0713324
0.0713326
0.0713361
0.0713427
0.0713595
0.0713875
0.0714131
0.0714121
0.0713964
0.0713645
0.0713218
0.0712715
0.0712158
0.0711583
0.0711004
0.071047
0.0710001
0.0709594
0.0709191
0.0708705
0.0708143
0.0707434
0.0706508
0.0705455
0.0704384
0.0703284
0.0702136
0.0700952
0.0699758
0.0698575
0.0697407
0.0696309
0.0695326
0.0694258
0.069312
0.0692099
0.0690944
0.0689484
0.0688022
0.0686668
0.0685136
0.0683434
0.0681812
0.0680145
0.0678348
0.0676612
0.0674835
0.0672894
0.0671082
0.0669406
0.066779
0.0665822
0.0663674
0.066177
0.0659912
0.065807
0.0656253
0.0654158
0.0651914
0.0649736
0.0647592
0.0645063
0.0642542
0.0640023
0.063744
0.0635028
0.0632669
0.0630135
0.0627469
0.062472
0.0621913
0.061921
0.0616518
0.0613742
0.0610928
0.0608062
0.0604893
0.0601491
0.0597938
0.0594414
0.0591265
0.0587892
0.0584108
0.0580031
0.0575939
0.0572186
0.0568401
0.0563843
0.055819
0.0550731
0.0541113
0.0528853
0.0511963
0.0488087
0.0455427
0.0691362
0.0696662
0.0701274
0.0705263
0.0708682
0.0711523
0.0713814
0.071571
0.0717357
0.0718829
0.0720172
0.072139
0.0722498
0.07235
0.0724383
0.0725085
0.0725515
0.0725699
0.0725775
0.0725831
0.0725856
0.0725853
0.0725859
0.0725867
0.072591
0.072601
0.0726224
0.0726557
0.0726856
0.0726886
0.0726799
0.0726586
0.0726294
0.072596
0.0725596
0.0725224
0.0724877
0.0724609
0.0724461
0.0724372
0.0724229
0.0723969
0.0723578
0.0723045
0.0722427
0.0721748
0.0721025
0.0720283
0.0719548
0.071884
0.0718213
0.0717656
0.0717126
0.0716651
0.0716068
0.0715303
0.0714462
0.0713578
0.0712612
0.0711564
0.0710466
0.0709338
0.0708178
0.0706994
0.0705869
0.0704807
0.0703685
0.0702642
0.0701705
0.0700602
0.0699258
0.0698063
0.0696833
0.0695364
0.0693809
0.0692353
0.0690778
0.0689044
0.0687405
0.068573
0.0683889
0.0682087
0.0680435
0.0678804
0.0676875
0.0674875
0.0673063
0.067128
0.0669423
0.0667591
0.0665631
0.0663411
0.0661169
0.0658966
0.0656571
0.0654121
0.065164
0.0649082
0.0646592
0.0644156
0.0641665
0.0639085
0.0636403
0.0633636
0.063087
0.0628097
0.0625245
0.0622303
0.0619276
0.0616186
0.0613085
0.060993
0.0606758
0.0603729
0.0600698
0.0597453
0.0593938
0.0590361
0.0587011
0.058348
0.0579678
0.057576
0.0572015
0.0568504
0.0564566
0.0559556
0.0552755
0.054394
0.0734842
0.073607
0.073716
0.0738121
0.073894
0.0739556
0.0739879
0.0739964
0.073997
0.0739961
0.073993
0.0739878
0.0739824
0.0739784
0.0739795
0.0739895
0.0740126
0.0740386
0.0740397
0.07403
0.0740081
0.0739779
0.0739435
0.0739084
0.0738713
0.0738378
0.0738129
0.0738024
0.0737957
0.0737848
0.0737651
0.0737342
0.0736935
0.0736459
0.0735953
0.073543
0.073491
0.0734415
0.0734009
0.0733719
0.0733495
0.0733275
0.0733012
0.0732656
0.0732201
0.0731661
0.0731049
0.073038
0.0729675
0.0728951
0.0728237
0.0727555
0.0726945
0.07264
0.0725809
0.0725139
0.0724451
0.0723704