/*--------------------------------*- C++ -*----------------------------------*\
| =========                 |                                                 |
| \\      /  F ield         | OpenFOAM: The Open Source CFD Toolbox           |
|  \\    /   O peration     | Version:  v1706                                 |
|   \\  /    A nd           | Web:      www.OpenFOAM.com                      |
|    \\/     M anipulation  |                                                 |
\*---------------------------------------------------------------------------*/
FoamFile
{
    version     2.0;
    format      ascii;
    class       volScalarField;
    location    "1.2e-05";
    object      kappave;
}
// * * * * * * * * * * * * * * * * * * * * * * * * * * * * * * * * * * * * * //

dimensions      [1 1 -3 -1 0 0 0];


internalField   nonuniform List<scalar> 
29871
(
1.46038e-10
1.46038e-10
1.46038e-10
1.46038e-10
1.46038e-10
1.46038e-10
1.46038e-10
1.46038e-10
1.46038e-10
1.46038e-10
1.46038e-10
1.46038e-10
1.46038e-10
1.46038e-10
1.46038e-10
1.46038e-10
1.46038e-10
1.46038e-10
1.46038e-10
1.46038e-10
1.46038e-10
1.46038e-10
1.46038e-10
1.46038e-10
1.46038e-10
1.46038e-10
1.46038e-10
1.46038e-10
1.46038e-10
1.46038e-10
1.46038e-10
1.46038e-10
1.46038e-10
1.46038e-10
1.46038e-10
1.46038e-10
1.46038e-10
1.46038e-10
1.46038e-10
1.46038e-10
1.46038e-10
1.46038e-10
1.46038e-10
1.46038e-10
1.46038e-10
1.46038e-10
1.46038e-10
1.46038e-10
1.46038e-10
1.46038e-10
1.46038e-10
1.46038e-10
1.46038e-10
1.46038e-10
1.46038e-10
1.46038e-10
1.46038e-10
1.46038e-10
1.46038e-10
1.46038e-10
1.46038e-10
1.46038e-10
1.46038e-10
1.46038e-10
1.46038e-10
1.46038e-10
1.46038e-10
1.46038e-10
1.46038e-10
1.46038e-10
1.46038e-10
1.46038e-10
1.46038e-10
1.46038e-10
1.46038e-10
1.46038e-10
1.46038e-10
1.46038e-10
1.46038e-10
1.46038e-10
1.46038e-10
1.46038e-10
1.46038e-10
1.46038e-10
1.46038e-10
1.46038e-10
1.46038e-10
1.46038e-10
1.46038e-10
1.46038e-10
1.46038e-10
1.46038e-10
1.46038e-10
1.46038e-10
1.46038e-10
1.46038e-10
1.46038e-10
1.46038e-10
1.46038e-10
1.46038e-10
1.46038e-10
1.46038e-10
1.46038e-10
1.46038e-10
1.46038e-10
1.46038e-10
1.46038e-10
1.46038e-10
1.46038e-10
1.46038e-10
1.46038e-10
1.46038e-10
1.46038e-10
1.46038e-10
1.46038e-10
1.46038e-10
1.46038e-10
1.46038e-10
1.46038e-10
1.46038e-10
1.46038e-10
1.46038e-10
1.46038e-10
1.46038e-10
1.46038e-10
1.46038e-10
1.46038e-10
1.46038e-10
1.46038e-10
1.46038e-10
1.46038e-10
1.46038e-10
1.46038e-10
1.46038e-10
1.46038e-10
1.46038e-10
1.46038e-10
1.46038e-10
1.46038e-10
1.46038e-10
1.46038e-10
1.46038e-10
1.46038e-10
1.46038e-10
1.46038e-10
1.46038e-10
1.46038e-10
1.46038e-10
1.46038e-10
1.46038e-10
1.46038e-10
1.46038e-10
1.46038e-10
1.46038e-10
1.46038e-10
1.46038e-10
1.46038e-10
1.46038e-10
1.46038e-10
1.46038e-10
1.46038e-10
1.46038e-10
1.46038e-10
1.46038e-10
1.46038e-10
1.46038e-10
1.46038e-10
1.46038e-10
1.46038e-10
1.46038e-10
1.46038e-10
1.46038e-10
1.46038e-10
1.46038e-10
1.46038e-10
1.46038e-10
1.46038e-10
1.46038e-10
1.46038e-10
1.46038e-10
1.46038e-10
1.46038e-10
1.46038e-10
1.46038e-10
1.46038e-10
1.46038e-10
1.46038e-10
1.46038e-10
1.46038e-10
1.46038e-10
1.46038e-10
1.46038e-10
1.46038e-10
1.46038e-10
1.46038e-10
1.46038e-10
1.46038e-10
1.46038e-10
1.46038e-10
1.46038e-10
1.46038e-10
1.46038e-10
1.46038e-10
1.46038e-10
1.46038e-10
1.46038e-10
1.46038e-10
1.46038e-10
1.46038e-10
1.46038e-10
1.46038e-10
1.46038e-10
1.46038e-10
1.46038e-10
1.46038e-10
1.46038e-10
1.46038e-10
1.46038e-10
1.46038e-10
1.46038e-10
1.46038e-10
1.46038e-10
1.46038e-10
1.46038e-10
1.46038e-10
1.46038e-10
1.46038e-10
1.46038e-10
1.46038e-10
1.46038e-10
1.46038e-10
1.46038e-10
1.46038e-10
1.46038e-10
1.46038e-10
1.46038e-10
1.46038e-10
1.46038e-10
1.46038e-10
1.46038e-10
1.46038e-10
1.46038e-10
1.46038e-10
1.46038e-10
1.46038e-10
1.46038e-10
1.46038e-10
1.46038e-10
1.46038e-10
1.46038e-10
1.46038e-10
1.46038e-10
1.46038e-10
1.46038e-10
1.46038e-10
1.46038e-10
1.46038e-10
1.46038e-10
1.46038e-10
1.46038e-10
1.46038e-10
1.46038e-10
1.46038e-10
1.46038e-10
1.46038e-10
1.46038e-10
1.46038e-10
1.46038e-10
1.46038e-10
1.46038e-10
1.46038e-10
1.46038e-10
1.46038e-10
1.46038e-10
1.46038e-10
1.46038e-10
1.46038e-10
1.46038e-10
1.46038e-10
1.46038e-10
1.46038e-10
1.46038e-10
1.46038e-10
1.46038e-10
1.46038e-10
1.46038e-10
1.46038e-10
1.46038e-10
1.46038e-10
1.46038e-10
1.46038e-10
1.46038e-10
1.46038e-10
1.46038e-10
1.46038e-10
1.46038e-10
1.46038e-10
1.46038e-10
1.46038e-10
1.46038e-10
1.46038e-10
1.46038e-10
1.46038e-10
1.46038e-10
1.46038e-10
1.46038e-10
1.46038e-10
1.46038e-10
1.46038e-10
1.46038e-10
1.46038e-10
1.46038e-10
1.46038e-10
1.46038e-10
1.46038e-10
1.46038e-10
1.46038e-10
1.46038e-10
1.46038e-10
1.46038e-10
1.46038e-10
1.46038e-10
1.46038e-10
1.46038e-10
1.46038e-10
1.46038e-10
1.46038e-10
1.46038e-10
1.46038e-10
1.46038e-10
1.46038e-10
1.46038e-10
1.46038e-10
1.46038e-10
1.46038e-10
1.46038e-10
1.46038e-10
1.46038e-10
1.46038e-10
1.46038e-10
1.46038e-10
1.46038e-10
1.46038e-10
1.46038e-10
1.46038e-10
1.46038e-10
1.46038e-10
1.46038e-10
1.46038e-10
1.46038e-10
1.46038e-10
1.46038e-10
1.46038e-10
1.46038e-10
1.46038e-10
1.46038e-10
1.46038e-10
1.46038e-10
1.46038e-10
1.46038e-10
1.46038e-10
1.46038e-10
1.46038e-10
1.46038e-10
1.46038e-10
1.46038e-10
1.46038e-10
1.46038e-10
1.46038e-10
1.46038e-10
1.46038e-10
1.46038e-10
1.46038e-10
1.46038e-10
1.46038e-10
1.46038e-10
1.46038e-10
1.46038e-10
1.46038e-10
1.46038e-10
1.46038e-10
1.46038e-10
1.46038e-10
1.46038e-10
1.46038e-10
1.46038e-10
1.46038e-10
1.46038e-10
1.46038e-10
1.46038e-10
1.46038e-10
1.46038e-10
1.46038e-10
1.46038e-10
1.46038e-10
1.46038e-10
1.46038e-10
1.46038e-10
1.46038e-10
1.46038e-10
1.46038e-10
1.46038e-10
1.46038e-10
1.46038e-10
1.46038e-10
1.46038e-10
1.46038e-10
1.46038e-10
1.46038e-10
1.46038e-10
1.46038e-10
1.46038e-10
1.46038e-10
1.46038e-10
1.46038e-10
1.46038e-10
1.46038e-10
1.46038e-10
1.46038e-10
1.46038e-10
1.46038e-10
1.46038e-10
1.46038e-10
1.46038e-10
1.46038e-10
1.46038e-10
1.46038e-10
1.46038e-10
1.46038e-10
1.46038e-10
1.46038e-10
1.46038e-10
1.46038e-10
1.46038e-10
1.46038e-10
1.46038e-10
1.46038e-10
1.46038e-10
1.46038e-10
1.46038e-10
1.46038e-10
1.46038e-10
1.46038e-10
1.46038e-10
1.46038e-10
1.46038e-10
1.46038e-10
1.46038e-10
1.46038e-10
1.46038e-10
1.46038e-10
1.46038e-10
1.46038e-10
1.46038e-10
1.46038e-10
1.46038e-10
1.46038e-10
1.46038e-10
1.46038e-10
1.46038e-10
1.46038e-10
1.46038e-10
1.46038e-10
1.46038e-10
1.46038e-10
1.46038e-10
1.46038e-10
1.46038e-10
1.46038e-10
1.46038e-10
1.46038e-10
1.46038e-10
1.46038e-10
1.46038e-10
1.46038e-10
1.46038e-10
1.46038e-10
1.46038e-10
1.46038e-10
1.46038e-10
1.46038e-10
1.46038e-10
1.46038e-10
1.46038e-10
1.46038e-10
1.46038e-10
1.46038e-10
1.46038e-10
1.46038e-10
1.46038e-10
1.46038e-10
1.46038e-10
1.46038e-10
1.46038e-10
1.46038e-10
1.46038e-10
1.46038e-10
1.46038e-10
1.46038e-10
1.46038e-10
1.46038e-10
1.46038e-10
1.46038e-10
1.46038e-10
1.46038e-10
1.46038e-10
1.46038e-10
1.46038e-10
1.46038e-10
1.46038e-10
1.46038e-10
1.46038e-10
1.46038e-10
1.46038e-10
1.46038e-10
1.46038e-10
1.46038e-10
1.46038e-10
1.46038e-10
1.46038e-10
1.46038e-10
1.46038e-10
1.46038e-10
1.46038e-10
1.46038e-10
1.46038e-10
1.46038e-10
1.46038e-10
1.46038e-10
1.46038e-10
1.46038e-10
1.46038e-10
1.46038e-10
1.46038e-10
1.46038e-10
1.46038e-10
1.46038e-10
1.46038e-10
1.46038e-10
1.46038e-10
1.46038e-10
1.46038e-10
1.46038e-10
1.46038e-10
1.46038e-10
1.46038e-10
1.46038e-10
1.46038e-10
1.46038e-10
1.46038e-10
1.46038e-10
1.46038e-10
1.46038e-10
1.46038e-10
1.46038e-10
1.46038e-10
1.46038e-10
1.46038e-10
1.46038e-10
1.46038e-10
1.46038e-10
1.46038e-10
1.46038e-10
1.46038e-10
1.46038e-10
1.46038e-10
1.46038e-10
1.46038e-10
1.46038e-10
1.46038e-10
1.46038e-10
1.46038e-10
1.46038e-10
1.46038e-10
1.46038e-10
1.46038e-10
1.46038e-10
1.46038e-10
1.46038e-10
1.46038e-10
1.46038e-10
1.46038e-10
1.46038e-10
1.46038e-10
1.46038e-10
1.46038e-10
1.46038e-10
1.46038e-10
1.46038e-10
1.46038e-10
1.46038e-10
1.46038e-10
1.46038e-10
1.46038e-10
1.46038e-10
1.46038e-10
1.46038e-10
1.46038e-10
1.46038e-10
1.46038e-10
1.46038e-10
1.46038e-10
1.46038e-10
1.46038e-10
1.46038e-10
1.46038e-10
1.46038e-10
1.46038e-10
1.46038e-10
1.46038e-10
1.46038e-10
1.46038e-10
1.46038e-10
1.46038e-10
1.46038e-10
1.46038e-10
1.46038e-10
1.46038e-10
1.46038e-10
1.46038e-10
1.46038e-10
1.46038e-10
1.46038e-10
1.46038e-10
1.46038e-10
1.46038e-10
1.46038e-10
1.46038e-10
1.46038e-10
1.46038e-10
1.46038e-10
1.46038e-10
1.46038e-10
1.46038e-10
1.46038e-10
1.46038e-10
1.46038e-10
1.46038e-10
1.46038e-10
1.46038e-10
1.46038e-10
1.46038e-10
1.46038e-10
1.46038e-10
1.46038e-10
1.46038e-10
1.46038e-10
1.46038e-10
1.46038e-10
1.46038e-10
1.46038e-10
1.46038e-10
1.46038e-10
1.46038e-10
1.46038e-10
1.46038e-10
1.46038e-10
1.46038e-10
1.46038e-10
1.46038e-10
1.46038e-10
1.46038e-10
1.46038e-10
1.46038e-10
1.46038e-10
1.46038e-10
1.46038e-10
1.46038e-10
1.46038e-10
1.46038e-10
1.46038e-10
1.46038e-10
1.46038e-10
1.46038e-10
1.46038e-10
1.46038e-10
1.46038e-10
1.46038e-10
1.46038e-10
1.46038e-10
1.46038e-10
1.46038e-10
1.46038e-10
1.46038e-10
1.46038e-10
1.46038e-10
1.46038e-10
1.46038e-10
1.46038e-10
1.46038e-10
1.46038e-10
1.46038e-10
1.46038e-10
1.46038e-10
1.46038e-10
1.46038e-10
1.46038e-10
1.46038e-10
1.46038e-10
1.46038e-10
1.46038e-10
1.46038e-10
1.46038e-10
1.46038e-10
1.46038e-10
1.46038e-10
1.46038e-10
1.46038e-10
1.46038e-10
1.46038e-10
1.46038e-10
1.46038e-10
1.46038e-10
1.46038e-10
1.46038e-10
1.46038e-10
1.46038e-10
1.46038e-10
1.46038e-10
1.46038e-10
1.46038e-10
1.46038e-10
1.46038e-10
1.46038e-10
1.46038e-10
1.46038e-10
1.46038e-10
1.46038e-10
1.46038e-10
1.46038e-10
1.46038e-10
1.46038e-10
1.46038e-10
1.46038e-10
1.46038e-10
1.46038e-10
1.46038e-10
1.46038e-10
1.46038e-10
1.46038e-10
1.46038e-10
1.46038e-10
1.46038e-10
1.46038e-10
1.46038e-10
1.46038e-10
1.46038e-10
1.46038e-10
1.46038e-10
1.46038e-10
1.46038e-10
1.46038e-10
1.46038e-10
1.46038e-10
1.46038e-10
1.46038e-10
1.46038e-10
1.46038e-10
1.46038e-10
1.46038e-10
1.46038e-10
1.46038e-10
1.46038e-10
1.46038e-10
1.46038e-10
1.46038e-10
1.46038e-10
1.46038e-10
1.46038e-10
1.46038e-10
1.46038e-10
1.46038e-10
1.46038e-10
1.46038e-10
1.46038e-10
1.46038e-10
1.46038e-10
1.46038e-10
1.46038e-10
1.46038e-10
1.46038e-10
1.46038e-10
1.46038e-10
1.46038e-10
1.46038e-10
1.46038e-10
1.46038e-10
1.46038e-10
1.46038e-10
1.46038e-10
1.46038e-10
1.46038e-10
1.46038e-10
1.46038e-10
1.46038e-10
1.46038e-10
1.46038e-10
1.46038e-10
1.46038e-10
1.46038e-10
1.46038e-10
1.46038e-10
1.46038e-10
1.46038e-10
1.46038e-10
1.46038e-10
1.46038e-10
1.46038e-10
1.46038e-10
1.46038e-10
1.46038e-10
1.46038e-10
1.46038e-10
1.46038e-10
1.46038e-10
1.46038e-10
1.46038e-10
1.46038e-10
1.46038e-10
1.46038e-10
1.46038e-10
1.46038e-10
1.46038e-10
1.46038e-10
1.46038e-10
1.46038e-10
1.46038e-10
1.46038e-10
1.46038e-10
1.46038e-10
1.46038e-10
1.46038e-10
1.46038e-10
1.46038e-10
1.46038e-10
1.46038e-10
1.46038e-10
1.46038e-10
1.46038e-10
1.46038e-10
1.46038e-10
1.46038e-10
1.46038e-10
1.46038e-10
1.46038e-10
1.46038e-10
1.46038e-10
1.46038e-10
1.46038e-10
1.46038e-10
1.46038e-10
1.46038e-10
1.46038e-10
1.46038e-10
1.46038e-10
1.46038e-10
1.46038e-10
1.46038e-10
1.46038e-10
1.46038e-10
1.46038e-10
1.46038e-10
1.46038e-10
1.46038e-10
1.46038e-10
1.46038e-10
1.46038e-10
1.46038e-10
1.46038e-10
1.46038e-10
1.46038e-10
1.46038e-10
1.46038e-10
1.46038e-10
1.46038e-10
1.46038e-10
1.46038e-10
1.46038e-10
1.46038e-10
1.46038e-10
1.46038e-10
1.46038e-10
1.46038e-10
1.46038e-10
1.46038e-10
1.46038e-10
1.46038e-10
1.46038e-10
1.46038e-10
1.46038e-10
1.46038e-10
1.46038e-10
1.46038e-10
1.46038e-10
1.46038e-10
1.46038e-10
1.46038e-10
1.46038e-10
1.46038e-10
1.46038e-10
1.46038e-10
1.46038e-10
1.46038e-10
1.46038e-10
1.46038e-10
1.46038e-10
1.46038e-10
1.46038e-10
1.46038e-10
1.46038e-10
1.46038e-10
1.46038e-10
1.46038e-10
1.46038e-10
1.46038e-10
1.46038e-10
1.46038e-10
1.46038e-10
1.46038e-10
1.46038e-10
1.46038e-10
1.46038e-10
1.46038e-10
1.46038e-10
1.46038e-10
1.46038e-10
1.46038e-10
1.46038e-10
1.46038e-10
1.46038e-10
1.46038e-10
1.46038e-10
1.46038e-10
1.46038e-10
1.46038e-10
1.46038e-10
1.46038e-10
1.46038e-10
1.46038e-10
1.46038e-10
1.46038e-10
1.46038e-10
1.46038e-10
1.46038e-10
1.46038e-10
1.46038e-10
1.46038e-10
1.46038e-10
1.46038e-10
1.46038e-10
1.46038e-10
1.46038e-10
1.46038e-10
1.46038e-10
1.46038e-10
1.46038e-10
1.46038e-10
1.46038e-10
1.46038e-10
1.46038e-10
1.46038e-10
1.46038e-10
1.46038e-10
1.46038e-10
1.46038e-10
1.46038e-10
1.46038e-10
1.46038e-10
1.46038e-10
1.46038e-10
1.46038e-10
1.46038e-10
1.46038e-10
1.46038e-10
1.46038e-10
1.46038e-10
1.46038e-10
1.46038e-10
1.46038e-10
1.46038e-10
1.46038e-10
1.46038e-10
1.46038e-10
1.46038e-10
1.46038e-10
1.46038e-10
1.46038e-10
1.46038e-10
1.46038e-10
1.46038e-10
1.46038e-10
1.46038e-10
1.46038e-10
1.46038e-10
1.46038e-10
1.46038e-10
1.46038e-10
1.46038e-10
1.46038e-10
1.46038e-10
1.46038e-10
1.46038e-10
1.46038e-10
1.46038e-10
1.46038e-10
1.46038e-10
1.46038e-10
1.46038e-10
1.46038e-10
1.46038e-10
1.46038e-10
1.46038e-10
1.46038e-10
1.46038e-10
1.46038e-10
1.46038e-10
1.46038e-10
1.46038e-10
1.46038e-10
1.46038e-10
1.46038e-10
1.46038e-10
1.46038e-10
1.46038e-10
1.46038e-10
1.46038e-10
1.46038e-10
1.46038e-10
1.46038e-10
1.46038e-10
1.46038e-10
1.46038e-10
1.46038e-10
1.46038e-10
1.46038e-10
1.46038e-10
1.46038e-10
1.46038e-10
1.46038e-10
1.46038e-10
1.46038e-10
1.46038e-10
1.46038e-10
1.46038e-10
1.46038e-10
1.46038e-10
1.46038e-10
1.46038e-10
1.46038e-10
1.46038e-10
1.46038e-10
1.46038e-10
1.46038e-10
1.46038e-10
1.46038e-10
1.46038e-10
1.46038e-10
1.46038e-10
1.46038e-10
1.46038e-10
1.46038e-10
1.46038e-10
1.46038e-10
1.46038e-10
1.46038e-10
1.46038e-10
1.46038e-10
1.46038e-10
1.46038e-10
1.46038e-10
1.46038e-10
1.46038e-10
1.46038e-10
1.46038e-10
1.46038e-10
1.46038e-10
1.46038e-10
1.46038e-10
1.46038e-10
1.46038e-10
1.46038e-10
1.46038e-10
1.46038e-10
1.46038e-10
1.46038e-10
1.46038e-10
1.46038e-10
1.46038e-10
1.46038e-10
1.46038e-10
1.46038e-10
1.46038e-10
1.46038e-10
1.46038e-10
1.46038e-10
1.46038e-10
1.46038e-10
1.46038e-10
1.46038e-10
1.46038e-10
1.46038e-10
1.46038e-10
1.46038e-10
1.46038e-10
1.46038e-10
1.46038e-10
1.46038e-10
1.46038e-10
1.46038e-10
1.46038e-10
1.46038e-10
1.46038e-10
1.46038e-10
1.46038e-10
1.46038e-10
1.46038e-10
1.46038e-10
1.46038e-10
1.46038e-10
1.46038e-10
1.46038e-10
1.46038e-10
1.46038e-10
1.46038e-10
1.46038e-10
1.46038e-10
1.46038e-10
1.46038e-10
1.46038e-10
1.46038e-10
1.46038e-10
1.46038e-10
1.46038e-10
1.46038e-10
1.46038e-10
1.46038e-10
1.46038e-10
1.46038e-10
1.46038e-10
1.46038e-10
1.46038e-10
1.46038e-10
1.46038e-10
1.46038e-10
1.46038e-10
1.46038e-10
1.46038e-10
1.46038e-10
1.46038e-10
1.46038e-10
1.46038e-10
1.46038e-10
1.46038e-10
1.46038e-10
1.46038e-10
1.46038e-10
1.46038e-10
1.46038e-10
1.46038e-10
1.46038e-10
1.46038e-10
1.46038e-10
1.46038e-10
1.46038e-10
1.46038e-10
1.46038e-10
1.46038e-10
1.46038e-10
1.46038e-10
1.46038e-10
1.46038e-10
1.46038e-10
1.46038e-10
1.46038e-10
1.46038e-10
1.46038e-10
1.46038e-10
1.46038e-10
1.46038e-10
1.46038e-10
1.46038e-10
1.46038e-10
1.46038e-10
1.46038e-10
1.46038e-10
1.46038e-10
1.46038e-10
1.46038e-10
1.46038e-10
1.46038e-10
1.46038e-10
1.46038e-10
1.46038e-10
1.46038e-10
1.46038e-10
1.46038e-10
1.46038e-10
1.46038e-10
1.46038e-10
1.46038e-10
1.46038e-10
1.46038e-10
1.46038e-10
1.46038e-10
1.46038e-10
1.46038e-10
1.46038e-10
1.46038e-10
1.46038e-10
1.46038e-10
1.46038e-10
1.46038e-10
1.46038e-10
1.46038e-10
1.46038e-10
1.46038e-10
1.46038e-10
1.46038e-10
1.46038e-10
1.46038e-10
1.46038e-10
1.46038e-10
1.46038e-10
1.46038e-10
1.46038e-10
1.46038e-10
1.46038e-10
1.46038e-10
1.46038e-10
1.46038e-10
1.46038e-10
1.46038e-10
1.46038e-10
1.46038e-10
1.46039e-10
1.46039e-10
1.46039e-10
1.46039e-10
1.46039e-10
1.46039e-10
1.46039e-10
1.46039e-10
1.46039e-10
1.4604e-10
1.4604e-10
1.4604e-10
1.4604e-10
1.4604e-10
1.4604e-10
1.4604e-10
1.4604e-10
1.4604e-10
1.4604e-10
1.4604e-10
1.4604e-10
1.4604e-10
1.4604e-10
1.4604e-10
1.4604e-10
1.4604e-10
1.4604e-10
1.4604e-10
1.4604e-10
1.46039e-10
1.46039e-10
1.46039e-10
1.46039e-10
1.46039e-10
1.46039e-10
1.46039e-10
1.46038e-10
1.46038e-10
1.46038e-10
1.46038e-10
1.46038e-10
1.46038e-10
1.46038e-10
1.46038e-10
1.46038e-10
1.46038e-10
1.46038e-10
1.46038e-10
1.46038e-10
1.46038e-10
1.46038e-10
1.46038e-10
1.46038e-10
1.46038e-10
1.46038e-10
1.46038e-10
1.46038e-10
1.46038e-10
1.46038e-10
1.46038e-10
1.46038e-10
1.46038e-10
1.46038e-10
1.46038e-10
1.46038e-10
1.46038e-10
1.46038e-10
1.46038e-10
1.46038e-10
1.46038e-10
1.46038e-10
1.46038e-10
1.46038e-10
1.46038e-10
1.46038e-10
1.46038e-10
1.46038e-10
1.46038e-10
1.46038e-10
1.46038e-10
1.46038e-10
1.46038e-10
1.46038e-10
1.46038e-10
1.46038e-10
1.46038e-10
1.46038e-10
1.46038e-10
1.46038e-10
1.46038e-10
1.46038e-10
1.46038e-10
1.46038e-10
1.46039e-10
1.46039e-10
1.46039e-10
1.46039e-10
1.46039e-10
1.4604e-10
1.4604e-10
1.4604e-10
1.4604e-10
1.46041e-10
1.46041e-10
1.46042e-10
1.46042e-10
1.46043e-10
1.46044e-10
1.46044e-10
1.46045e-10
1.46046e-10
1.46047e-10
1.46048e-10
1.46049e-10
1.4605e-10
1.46051e-10
1.46053e-10
1.46054e-10
1.46055e-10
1.46057e-10
1.46058e-10
1.4606e-10
1.46061e-10
1.46062e-10
1.46063e-10
1.46064e-10
1.46065e-10
1.46065e-10
1.46066e-10
1.46066e-10
1.46066e-10
1.46066e-10
1.46065e-10
1.46065e-10
1.46064e-10
1.46063e-10
1.46062e-10
1.4606e-10
1.46059e-10
1.46057e-10
1.46056e-10
1.46054e-10
1.46053e-10
1.46051e-10
1.4605e-10
1.46048e-10
1.46047e-10
1.46046e-10
1.46044e-10
1.46043e-10
1.46042e-10
1.46042e-10
1.46041e-10
1.4604e-10
1.4604e-10
1.46039e-10
1.46039e-10
1.46039e-10
1.46038e-10
1.46038e-10
1.46038e-10
1.46038e-10
1.46038e-10
1.46038e-10
1.46038e-10
1.46038e-10
1.46038e-10
1.46038e-10
1.46038e-10
1.46038e-10
1.46038e-10
1.46038e-10
1.46038e-10
1.46038e-10
1.46038e-10
1.46038e-10
1.46038e-10
1.46038e-10
1.46038e-10
1.46038e-10
1.46038e-10
1.46038e-10
1.46038e-10
1.46038e-10
1.46038e-10
1.46038e-10
1.46038e-10
1.46038e-10
1.46038e-10
1.46038e-10
1.46039e-10
1.46039e-10
1.46039e-10
1.46039e-10
1.46039e-10
1.4604e-10
1.4604e-10
1.4604e-10
1.46041e-10
1.46041e-10
1.46042e-10
1.46042e-10
1.46043e-10
1.46044e-10
1.46045e-10
1.46046e-10
1.46048e-10
1.46049e-10
1.46051e-10
1.46053e-10
1.46055e-10
1.46058e-10
1.46061e-10
1.46064e-10
1.46068e-10
1.46073e-10
1.46078e-10
1.46083e-10
1.4609e-10
1.46097e-10
1.46104e-10
1.46112e-10
1.46121e-10
1.4613e-10
1.4614e-10
1.46151e-10
1.46163e-10
1.46176e-10
1.4619e-10
1.46204e-10
1.4622e-10
1.46235e-10
1.46251e-10
1.46267e-10
1.46281e-10
1.46295e-10
1.46308e-10
1.4632e-10
1.46329e-10
1.46337e-10
1.46343e-10
1.46346e-10
1.46348e-10
1.46347e-10
1.46344e-10
1.46338e-10
1.46331e-10
1.46321e-10
1.46309e-10
1.46296e-10
1.46281e-10
1.46265e-10
1.46248e-10
1.46231e-10
1.46214e-10
1.46197e-10
1.4618e-10
1.46164e-10
1.46149e-10
1.46134e-10
1.4612e-10
1.46107e-10
1.46096e-10
1.46085e-10
1.46076e-10
1.46069e-10
1.46063e-10
1.46058e-10
1.46054e-10
1.4605e-10
1.46047e-10
1.46045e-10
1.46043e-10
1.46042e-10
1.46041e-10
1.4604e-10
1.46039e-10
1.46039e-10
1.46039e-10
1.46038e-10
1.46038e-10
1.46038e-10
1.46038e-10
1.46038e-10
1.46038e-10
1.46038e-10
1.46038e-10
1.46038e-10
1.46038e-10
1.46038e-10
1.46039e-10
1.46039e-10
1.46039e-10
1.46039e-10
1.46039e-10
1.4604e-10
1.4604e-10
1.4604e-10
1.46041e-10
1.46041e-10
1.46042e-10
1.46043e-10
1.46043e-10
1.46044e-10
1.46046e-10
1.46047e-10
1.46048e-10
1.4605e-10
1.46052e-10
1.46055e-10
1.46058e-10
1.46061e-10
1.46065e-10
1.46069e-10
1.46075e-10
1.46081e-10
1.46088e-10
1.46096e-10
1.46106e-10
1.46117e-10
1.4613e-10
1.46145e-10
1.46161e-10
1.4618e-10
1.46202e-10
1.46228e-10
1.46257e-10
1.4629e-10
1.46329e-10
1.46373e-10
1.46424e-10
1.4648e-10
1.46544e-10
1.46613e-10
1.46689e-10
1.46771e-10
1.4686e-10
1.46955e-10
1.47059e-10
1.47172e-10
1.47296e-10
1.47432e-10
1.47578e-10
1.47735e-10
1.47901e-10
1.48072e-10
1.48246e-10
1.4842e-10
1.4859e-10
1.48752e-10
1.48903e-10
1.4904e-10
1.49162e-10
1.49264e-10
1.49346e-10
1.49405e-10
1.49438e-10
1.49448e-10
1.49433e-10
1.49393e-10
1.49327e-10
1.49236e-10
1.49122e-10
1.48988e-10
1.48837e-10
1.48671e-10
1.48494e-10
1.48311e-10
1.48123e-10
1.47933e-10
1.47745e-10
1.47561e-10
1.47383e-10
1.47213e-10
1.47053e-10
1.46903e-10
1.46766e-10
1.46641e-10
1.46531e-10
1.46436e-10
1.46357e-10
1.46293e-10
1.46241e-10
1.46198e-10
1.46164e-10
1.46135e-10
1.46112e-10
1.46093e-10
1.46078e-10
1.46067e-10
1.46059e-10
1.46053e-10
1.46048e-10
1.46045e-10
1.46043e-10
1.46041e-10
1.4604e-10
1.46039e-10
1.46039e-10
1.46038e-10
1.46038e-10
1.46038e-10
1.46038e-10
1.46038e-10
1.46045e-10
1.46046e-10
1.46048e-10
1.4605e-10
1.46052e-10
1.46055e-10
1.46058e-10
1.46061e-10
1.46065e-10
1.4607e-10
1.46076e-10
1.46082e-10
1.4609e-10
1.46099e-10
1.4611e-10
1.46122e-10
1.46136e-10
1.46153e-10
1.46173e-10
1.46196e-10
1.46222e-10
1.46253e-10
1.46289e-10
1.4633e-10
1.46378e-10
1.46435e-10
1.46502e-10
1.4658e-10
1.46672e-10
1.46778e-10
1.46901e-10
1.47042e-10
1.47202e-10
1.47386e-10
1.47595e-10
1.47836e-10
1.48114e-10
1.48437e-10
1.48811e-10
1.49243e-10
1.49738e-10
1.50299e-10
1.50929e-10
1.51628e-10
1.52396e-10
1.5323e-10
1.54129e-10
1.55098e-10
1.56148e-10
1.57297e-10
1.58561e-10
1.59953e-10
1.61475e-10
1.63122e-10
1.64877e-10
1.66717e-10
1.68611e-10
1.70523e-10
1.72416e-10
1.7425e-10
1.7599e-10
1.77601e-10
1.79056e-10
1.80329e-10
1.81398e-10
1.82238e-10
1.82826e-10
1.83139e-10
1.832e-10
1.82983e-10
1.82493e-10
1.81729e-10
1.80697e-10
1.79415e-10
1.77914e-10
1.7623e-10
1.74401e-10
1.72464e-10
1.70452e-10
1.68396e-10
1.66329e-10
1.64283e-10
1.62285e-10
1.6036e-10
1.58523e-10
1.56792e-10
1.55179e-10
1.53699e-10
1.52363e-10
1.51187e-10
1.50183e-10
1.4935e-10
1.48675e-10
1.4813e-10
1.47688e-10
1.47326e-10
1.47028e-10
1.46785e-10
1.46589e-10
1.46437e-10
1.46324e-10
1.46241e-10
1.46182e-10
1.4614e-10
1.46109e-10
1.46087e-10
1.46071e-10
1.4606e-10
1.46052e-10
1.46047e-10
1.46044e-10
1.46042e-10
1.4604e-10
1.46039e-10
1.46039e-10
1.46038e-10
1.46061e-10
1.46065e-10
1.46071e-10
1.46077e-10
1.46085e-10
1.46094e-10
1.46104e-10
1.46116e-10
1.46131e-10
1.46148e-10
1.46168e-10
1.46191e-10
1.46219e-10
1.46251e-10
1.46289e-10
1.46333e-10
1.46384e-10
1.46444e-10
1.46514e-10
1.46595e-10
1.46691e-10
1.46803e-10
1.46935e-10
1.4709e-10
1.47272e-10
1.47484e-10
1.4773e-10
1.48014e-10
1.48344e-10
1.48727e-10
1.49174e-10
1.49698e-10
1.50315e-10
1.51041e-10
1.51892e-10
1.52887e-10
1.54043e-10
1.55375e-10
1.56899e-10
1.58634e-10
1.60611e-10
1.62876e-10
1.65492e-10
1.68533e-10
1.72072e-10
1.76177e-10
1.80907e-10
1.86308e-10
1.92412e-10
1.9923e-10
2.06757e-10
2.14973e-10
2.23851e-10
2.33386e-10
2.43656e-10
2.54847e-10
2.6718e-10
2.8083e-10
2.95877e-10
3.123e-10
3.29982e-10
3.48713e-10
3.68201e-10
3.88088e-10
4.07989e-10
4.27515e-10
4.46294e-10
4.63975e-10
4.80242e-10
4.9484e-10
5.07546e-10
5.18134e-10
5.2635e-10
5.31932e-10
5.34748e-10
5.34878e-10
5.3224e-10
5.26825e-10
5.18571e-10
5.07543e-10
4.93961e-10
4.78157e-10
4.60519e-10
4.41444e-10
4.21291e-10
4.0038e-10
3.79018e-10
3.57526e-10
3.3623e-10
3.15428e-10
2.95355e-10
2.76193e-10
2.58099e-10
2.4122e-10
2.25705e-10
2.11708e-10
1.99392e-10
1.88908e-10
1.8027e-10
1.73287e-10
1.67652e-10
1.63066e-10
1.59297e-10
1.5619e-10
1.53649e-10
1.51618e-10
1.50051e-10
1.48891e-10
1.48057e-10
1.47465e-10
1.47042e-10
1.46735e-10
1.46513e-10
1.46356e-10
1.46248e-10
1.46175e-10
1.46128e-10
1.46096e-10
1.46075e-10
1.46062e-10
1.46053e-10
1.46047e-10
1.46044e-10
1.46281e-10
1.46329e-10
1.46386e-10
1.46453e-10
1.46532e-10
1.46626e-10
1.46735e-10
1.46864e-10
1.47016e-10
1.47195e-10
1.47405e-10
1.47653e-10
1.47944e-10
1.48285e-10
1.48685e-10
1.4915e-10
1.49691e-10
1.50321e-10
1.51057e-10
1.51919e-10
1.52933e-10
1.54126e-10
1.5553e-10
1.57176e-10
1.59102e-10
1.61344e-10
1.63942e-10
1.66943e-10
1.70414e-10
1.74451e-10
1.79177e-10
1.84736e-10
1.91284e-10
1.98987e-10
2.08007e-10
2.1851e-10
2.30648e-10
2.44565e-10
2.60399e-10
2.78332e-10
2.98713e-10
3.22115e-10
3.49255e-10
3.80877e-10
4.17673e-10
4.60243e-10
5.09075e-10
5.64522e-10
6.26775e-10
6.95844e-10
7.71576e-10
8.53703e-10
9.41961e-10
1.03643e-09
1.13844e-09
1.25071e-09
1.37575e-09
1.51489e-09
1.6682e-09
1.83475e-09
2.01283e-09
2.19991e-09
2.39266e-09
2.58727e-09
2.7798e-09
2.9666e-09
3.14443e-09
3.3103e-09
3.4616e-09
3.59623e-09
3.71244e-09
3.80827e-09
3.88124e-09
3.92875e-09
3.94952e-09
3.94608e-09
3.91622e-09
3.86084e-09
3.77811e-09
3.66904e-09
3.53611e-09
3.38269e-09
3.21238e-09
3.02887e-09
2.83535e-09
2.63452e-09
2.42908e-09
2.22192e-09
2.01618e-09
1.81477e-09
1.61987e-09
1.43319e-09
1.25627e-09
1.09062e-09
9.37803e-10
7.99537e-10
6.7763e-10
5.74019e-10
4.89001e-10
4.20294e-10
3.64508e-10
3.18647e-10
2.80589e-10
2.4899e-10
2.23051e-10
2.02292e-10
1.86333e-10
1.74599e-10
1.66233e-10
1.60302e-10
1.56046e-10
1.52952e-10
1.50713e-10
1.49136e-10
1.48065e-10
1.47356e-10
1.46892e-10
1.46586e-10
1.46385e-10
1.46256e-10
1.46173e-10
1.46121e-10
1.46089e-10
1.48566e-10
1.49065e-10
1.49657e-10
1.50357e-10
1.51181e-10
1.52148e-10
1.53285e-10
1.54621e-10
1.56194e-10
1.58048e-10
1.60232e-10
1.62803e-10
1.65821e-10
1.69353e-10
1.73469e-10
1.78251e-10
1.83801e-10
1.90257e-10
1.978e-10
2.06647e-10
2.17047e-10
2.29271e-10
2.4361e-10
2.60372e-10
2.79877e-10
3.02452e-10
3.28447e-10
3.58313e-10
3.92769e-10
4.3286e-10
4.79869e-10
5.35201e-10
6.00315e-10
6.76688e-10
7.65786e-10
8.6903e-10
9.87734e-10
1.12307e-09
1.27619e-09
1.44893e-09
1.64547e-09
1.87263e-09
2.13782e-09
2.44761e-09
2.80734e-09
3.22103e-09
3.69138e-09
4.21948e-09
4.80455e-09
5.44397e-09
6.13384e-09
6.86968e-09
7.64769e-09
8.46893e-09
9.34975e-09
1.03205e-08
1.13945e-08
1.2568e-08
1.38275e-08
1.51557e-08
1.65326e-08
1.79344e-08
1.93337e-08
2.07022e-08
2.20142e-08
2.32499e-08
2.43955e-08
2.54384e-08
2.63672e-08
2.71736e-08
2.78521e-08
2.83929e-08
2.87799e-08
2.89902e-08
2.90457e-08
2.89443e-08
2.86795e-08
2.8257e-08
2.76538e-08
2.68834e-08
2.59618e-08
2.49092e-08
2.37441e-08
2.2487e-08
2.11558e-08
1.97635e-08
1.83243e-08
1.68547e-08
1.53745e-08
1.39034e-08
1.24554e-08
1.10413e-08
9.67334e-09
8.36397e-09
7.12782e-09
5.98367e-09
4.95264e-09
4.06236e-09
3.32523e-09
2.72074e-09
2.21936e-09
1.79804e-09
1.44195e-09
1.14215e-09
8.93497e-10
6.93102e-10
5.38724e-10
4.25524e-10
3.44819e-10
2.87198e-10
2.45333e-10
2.14552e-10
1.92158e-10
1.76424e-10
1.65822e-10
1.58863e-10
1.5431e-10
1.51313e-10
1.49349e-10
1.48088e-10
1.47296e-10
1.46805e-10
1.46502e-10
1.71843e-10
1.76904e-10
1.82888e-10
1.89931e-10
1.9819e-10
2.07858e-10
2.19179e-10
2.32463e-10
2.48075e-10
2.66428e-10
2.87981e-10
3.13232e-10
3.42718e-10
3.77008e-10
4.16713e-10
4.62548e-10
5.15499e-10
5.76984e-10
6.48815e-10
7.3308e-10
8.32054e-10
9.48169e-10
1.084e-09
1.24225e-09
1.42566e-09
1.63703e-09
1.87931e-09
2.15675e-09
2.47721e-09
2.85171e-09
3.29218e-09
3.81021e-09
4.41672e-09
5.12174e-09
5.93416e-09
6.86119e-09
7.90775e-09
9.0763e-09
1.03688e-08
1.17953e-08
1.33916e-08
1.52129e-08
1.72958e-08
1.96565e-08
2.22978e-08
2.52135e-08
2.83889e-08
3.18014e-08
3.5419e-08
3.92044e-08
4.31218e-08
4.71406e-08
5.12393e-08
5.54255e-08
5.98141e-08
6.46472e-08
6.98426e-08
7.52677e-08
8.08067e-08
8.63714e-08
9.18857e-08
9.72689e-08
1.02431e-07
1.07289e-07
1.11772e-07
1.1585e-07
1.19521e-07
1.22771e-07
1.25573e-07
1.27914e-07
1.29795e-07
1.31193e-07
1.31995e-07
1.32209e-07
1.31895e-07
1.31053e-07
1.29712e-07
1.27817e-07
1.25315e-07
1.22226e-07
1.18613e-07
1.14578e-07
1.10139e-07
1.05349e-07
1.00272e-07
9.49242e-08
8.93472e-08
8.35771e-08
7.7672e-08
7.17037e-08
6.57095e-08
5.97027e-08
5.37298e-08
4.783e-08
4.20451e-08
3.64657e-08
3.12005e-08
2.64398e-08
2.23735e-08
1.88618e-08
1.57632e-08
1.30003e-08
1.05379e-08
8.36145e-09
6.47253e-09
4.885e-09
3.61952e-09
2.67095e-09
1.97879e-09
1.46971e-09
1.08824e-09
8.00653e-10
5.88049e-10
4.37948e-10
3.36871e-10
2.70328e-10
2.26388e-10
1.97159e-10
1.7793e-10
1.65641e-10
1.57994e-10
1.53281e-10
1.50378e-10
1.48605e-10
1.4754e-10
3.96296e-10
4.44005e-10
5.0003e-10
5.65499e-10
6.41753e-10
7.30567e-10
8.34319e-10
9.55942e-10
1.09879e-09
1.26654e-09
1.46321e-09
1.69308e-09
1.96072e-09
2.2709e-09
2.62863e-09
3.03998e-09
3.51435e-09
4.06566e-09
4.7101e-09
5.46419e-09
6.34406e-09
7.36531e-09
8.54276e-09
9.88999e-09
1.14186e-08
1.31374e-08
1.50552e-08
1.71928e-08
1.96075e-08
2.23664e-08
2.55144e-08
2.90772e-08
3.30696e-08
3.74972e-08
4.23562e-08
4.76327e-08
5.33007e-08
5.9325e-08
6.56765e-08
7.23742e-08
7.96256e-08
8.77397e-08
9.66554e-08
1.06256e-07
1.16434e-07
1.27092e-07
1.38134e-07
1.49461e-07
1.60952e-07
1.7249e-07
1.83997e-07
1.95426e-07
2.06754e-07
2.17968e-07
2.29087e-07
2.40194e-07
2.5125e-07
2.62133e-07
2.72718e-07
2.82939e-07
2.92732e-07
3.01999e-07
3.10611e-07
3.18483e-07
3.25511e-07
3.3169e-07
3.37142e-07
3.4184e-07
3.45743e-07
3.48772e-07
3.50931e-07
3.52137e-07
3.5194e-07
3.50966e-07
3.48959e-07
3.45891e-07
3.41763e-07
3.36581e-07
3.30375e-07
3.23073e-07
3.14827e-07
3.05653e-07
2.95565e-07
2.84834e-07
2.73505e-07
2.61616e-07
2.49313e-07
2.36596e-07
2.23586e-07
2.10404e-07
1.97106e-07
1.83682e-07
1.70304e-07
1.56955e-07
1.43613e-07
1.30455e-07
1.17618e-07
1.05327e-07
9.37917e-08
8.28618e-08
7.24209e-08
6.24736e-08
5.30653e-08
4.42262e-08
3.60364e-08
2.86519e-08
2.23139e-08
1.7296e-08
1.33602e-08
1.02072e-08
7.63802e-09
5.5527e-09
3.9126e-09
2.70257e-09
1.86145e-09
1.28904e-09
8.97197e-10
6.28185e-10
4.47848e-10
3.31983e-10
2.59754e-10
2.14989e-10
1.8721e-10
1.70204e-10
1.6006e-10
2.39018e-09
2.81037e-09
3.3018e-09
3.87346e-09
4.53615e-09
5.30531e-09
6.20163e-09
7.24822e-09
8.46829e-09
9.88444e-09
1.15184e-08
1.33905e-08
1.55193e-08
1.79205e-08
2.06073e-08
2.36004e-08
2.69499e-08
3.07335e-08
3.50095e-08
3.98137e-08
4.51679e-08
5.10842e-08
5.75667e-08
6.46102e-08
7.21989e-08
8.03026e-08
8.88947e-08
9.80104e-08
1.07988e-07
1.19051e-07
1.31122e-07
1.44092e-07
1.57869e-07
1.72371e-07
1.87515e-07
2.0321e-07
2.19336e-07
2.35768e-07
2.52423e-07
2.69276e-07
2.8641e-07
3.03971e-07
3.21991e-07
3.40424e-07
3.59215e-07
3.78305e-07
3.97599e-07
4.17012e-07
4.36357e-07
4.55441e-07
4.74307e-07
4.93005e-07
5.11572e-07
5.30015e-07
5.4824e-07
5.66269e-07
5.84147e-07
6.01711e-07
6.18719e-07
6.35185e-07
6.50954e-07
6.65781e-07
6.79483e-07
6.91852e-07
7.02724e-07
7.12016e-07