/*--------------------------------*- C++ -*----------------------------------*\
| =========                 |                                                 |
| \\      /  F ield         | OpenFOAM: The Open Source CFD Toolbox           |
|  \\    /   O peration     | Version:  v1706                                 |
|   \\  /    A nd           | Web:      www.OpenFOAM.com                      |
|    \\/     M anipulation  |                                                 |
\*---------------------------------------------------------------------------*/
FoamFile
{
    version     2.0;
    format      ascii;
    class       volScalarField;
    location    "1.2e-05";
    object      Mach;
}
// * * * * * * * * * * * * * * * * * * * * * * * * * * * * * * * * * * * * * //

dimensions      [0 0 0 0 0 0 0];


internalField   nonuniform List<scalar> 
29871
(
11.2859
11.2859
11.2859
11.2859
11.2859
11.2859
11.2859
11.2859
11.2859
11.2859
11.2859
11.2859
11.2859
11.2859
11.2859
11.2859
11.2859
11.2859
11.2859
11.2859
11.2859
11.2859
11.2859
11.2859
11.2859
11.2859
11.2859
11.2859
11.2859
11.2859
11.2859
11.2859
11.2859
11.2859
11.2859
11.2859
11.2859
11.2859
11.2859
11.2859
11.2859
11.2859
11.2859
11.2859
11.2859
11.2859
11.2859
11.2859
11.2859
11.2859
11.2859
11.2859
11.2859
11.2859
11.2859
11.2859
11.2859
11.2859
11.2859
11.2859
11.2859
11.2859
11.2859
11.2859
11.2859
11.2859
11.2859
11.2859
11.2859
11.2859
11.2859
11.2859
11.2859
11.2859
11.2859
11.2859
11.2859
11.2859
11.2859
11.2859
11.2859
11.2859
11.2859
11.2859
11.2859
11.2859
11.2859
11.2859
11.2859
11.2859
11.2859
11.2859
11.2859
11.2859
11.2859
11.2859
11.2859
11.2859
11.2859
11.2859
11.2859
11.2859
11.2859
11.2859
11.2859
11.2859
11.2859
11.2859
11.2859
11.2859
11.2859
11.2859
11.2859
11.2859
11.2859
11.2859
11.2859
11.2859
11.2859
11.2859
11.2859
11.2859
11.2859
11.2859
11.2859
11.2859
11.2859
11.2859
11.2859
11.2859
11.2859
11.2859
11.2859
11.2859
11.2859
11.2859
11.2859
11.2859
11.2859
11.2859
11.2859
11.2859
11.2859
11.2859
11.2859
11.2859
11.2859
11.2859
11.2859
11.2859
11.2859
11.2859
11.2859
11.2859
11.2859
11.2859
11.2859
11.2859
11.2859
11.2859
11.2859
11.2859
11.2859
11.2859
11.2859
11.2859
11.2859
11.2859
11.2859
11.2859
11.2859
11.2859
11.2859
11.2859
11.2859
11.2859
11.2859
11.2859
11.2859
11.2859
11.2859
11.2859
11.2859
11.2859
11.2859
11.2859
11.2859
11.2859
11.2859
11.2859
11.2859
11.2859
11.2859
11.2859
11.2859
11.2859
11.2859
11.2859
11.2859
11.2859
11.2859
11.2859
11.2859
11.2859
11.2859
11.2859
11.2859
11.2859
11.2859
11.2859
11.2859
11.2859
11.2859
11.2859
11.2859
11.2859
11.2859
11.2859
11.2859
11.2859
11.2859
11.2859
11.2859
11.2859
11.2859
11.2859
11.2859
11.2859
11.2859
11.2859
11.2859
11.2859
11.2859
11.2859
11.2859
11.2859
11.2859
11.2859
11.2859
11.2859
11.2859
11.2859
11.2859
11.2859
11.2859
11.2859
11.2859
11.2859
11.2859
11.2859
11.2859
11.2859
11.2859
11.2859
11.2859
11.2859
11.2859
11.2859
11.2859
11.2859
11.2859
11.2859
11.2859
11.2859
11.2859
11.2859
11.2859
11.2859
11.2859
11.2859
11.2859
11.2859
11.2859
11.2859
11.2859
11.2859
11.2859
11.2859
11.2859
11.2859
11.2859
11.2859
11.2859
11.2859
11.2859
11.2859
11.2859
11.2859
11.2859
11.2859
11.2859
11.2859
11.2859
11.2859
11.2859
11.2859
11.2859
11.2859
11.2859
11.2859
11.2859
11.2859
11.2859
11.2859
11.2859
11.2859
11.2859
11.2859
11.2859
11.2859
11.2859
11.2859
11.2859
11.2859
11.2859
11.2859
11.2859
11.2859
11.2859
11.2859
11.2859
11.2859
11.2859
11.2859
11.2859
11.2859
11.2859
11.2859
11.2859
11.2859
11.2859
11.2859
11.2859
11.2859
11.2859
11.2859
11.2859
11.2859
11.2859
11.2859
11.2859
11.2859
11.2859
11.2859
11.2859
11.2859
11.2859
11.2859
11.2859
11.2859
11.2859
11.2859
11.2859
11.2859
11.2859
11.2859
11.2859
11.2859
11.2859
11.2859
11.2859
11.2859
11.2859
11.2859
11.2859
11.2859
11.2859
11.2859
11.2859
11.2859
11.2859
11.2859
11.2859
11.2859
11.2859
11.2859
11.2859
11.2859
11.2859
11.2859
11.2859
11.2859
11.2859
11.2859
11.2859
11.2859
11.2859
11.2859
11.2859
11.2859
11.2859
11.2859
11.2859
11.2859
11.2859
11.2859
11.2859
11.2859
11.2859
11.2859
11.2859
11.2859
11.2859
11.2859
11.2859
11.2859
11.2859
11.2859
11.2859
11.2859
11.2859
11.2859
11.2859
11.2859
11.2859
11.2859
11.2859
11.2859
11.2859
11.2859
11.2859
11.2859
11.2859
11.2859
11.2859
11.2859
11.2859
11.2859
11.2859
11.2859
11.2859
11.2859
11.2859
11.2859
11.2859
11.2859
11.2859
11.2859
11.2859
11.2859
11.2859
11.2859
11.2859
11.2859
11.2859
11.2859
11.2859
11.2859
11.2859
11.2859
11.2859
11.2859
11.2859
11.2859
11.2859
11.2859
11.2859
11.2859
11.2859
11.2859
11.2859
11.2859
11.2859
11.2859
11.2859
11.2859
11.2859
11.2859
11.2859
11.2859
11.2859
11.2859
11.2859
11.2859
11.2859
11.2859
11.2859
11.2859
11.2859
11.2859
11.2859
11.2859
11.2859
11.2859
11.2859
11.2859
11.2859
11.2859
11.2859
11.2859
11.2859
11.2859
11.2859
11.2859
11.2859
11.2859
11.2859
11.2859
11.2859
11.2859
11.2859
11.2859
11.2859
11.2859
11.2859
11.2859
11.2859
11.2859
11.2859
11.2859
11.2859
11.2859
11.2859
11.2859
11.2859
11.2859
11.2859
11.2859
11.2859
11.2859
11.2859
11.2859
11.2859
11.2859
11.2859
11.2859
11.2859
11.2859
11.2859
11.2859
11.2859
11.2859
11.2859
11.2859
11.2859
11.2859
11.2859
11.2859
11.2859
11.2859
11.2859
11.2859
11.2859
11.2859
11.2859
11.2859
11.2859
11.2859
11.2859
11.2859
11.2859
11.2859
11.2859
11.2859
11.2859
11.2859
11.2859
11.2859
11.2859
11.2859
11.2859
11.2859
11.2859
11.2859
11.2859
11.2859
11.2859
11.2859
11.2859
11.2859
11.2859
11.2859
11.2859
11.2859
11.2859
11.2859
11.2859
11.2859
11.2859
11.2859
11.2859
11.2859
11.2859
11.2859
11.2859
11.2859
11.2859
11.2859
11.2859
11.2859
11.2859
11.2859
11.2859
11.2859
11.2859
11.2859
11.2859
11.2859
11.2859
11.2859
11.2859
11.2859
11.2859
11.2859
11.2859
11.2859
11.2859
11.2859
11.2859
11.2859
11.2859
11.2859
11.2859
11.2859
11.2859
11.2859
11.2859
11.2859
11.2859
11.2859
11.2859
11.2859
11.2859
11.2859
11.2859
11.2859
11.2859
11.2859
11.2859
11.2859
11.2859
11.2859
11.2859
11.2859
11.2859
11.2859
11.2859
11.2859
11.2859
11.2859
11.2859
11.2859
11.2859
11.2859
11.2859
11.2859
11.2859
11.2859
11.2859
11.2859
11.2859
11.2859
11.2859
11.2859
11.2859
11.2859
11.2859
11.2859
11.2859
11.2859
11.2859
11.2859
11.2859
11.2859
11.2859
11.2859
11.2859
11.2859
11.2859
11.2859
11.2859
11.2859
11.2859
11.2859
11.2859
11.2859
11.2859
11.2859
11.2859
11.2859
11.2859
11.2859
11.2859
11.2859
11.2859
11.2859
11.2859
11.2859
11.2859
11.2859
11.2859
11.2859
11.2859
11.2859
11.2859
11.2859
11.2859
11.2859
11.2859
11.2859
11.2859
11.2859
11.2859
11.2859
11.2859
11.2859
11.2859
11.2859
11.2859
11.2859
11.2859
11.2859
11.2859
11.2859
11.2859
11.2859
11.2859
11.2859
11.2859
11.2859
11.2859
11.2859
11.2859
11.2859
11.2859
11.2859
11.2859
11.2859
11.2859
11.2859
11.2859
11.2859
11.2859
11.2859
11.2859
11.2859
11.2859
11.2859
11.2859
11.2859
11.2859
11.2859
11.2859
11.2859
11.2859
11.2859
11.2859
11.2859
11.2859
11.2859
11.2859
11.2859
11.2859
11.2859
11.2859
11.2859
11.2859
11.2859
11.2859
11.2859
11.2859
11.2859
11.2859
11.2859
11.2859
11.2859
11.2859
11.2859
11.2859
11.2859
11.2859
11.2859
11.2859
11.2859
11.2859
11.2859
11.2859
11.2859
11.2859
11.2859
11.2859
11.2859
11.2859
11.2859
11.2859
11.2859
11.2859
11.2859
11.2859
11.2859
11.2859
11.2859
11.2859
11.2859
11.2859
11.2859
11.2859
11.2859
11.2859
11.2859
11.2859
11.2859
11.2859
11.2859
11.2859
11.2859
11.2859
11.2859
11.2859
11.2859
11.2859
11.2859
11.2859
11.2859
11.2859
11.2859
11.2859
11.2859
11.2859
11.2859
11.2859
11.2859
11.2859
11.2859
11.2859
11.2859
11.2859
11.2859
11.2859
11.2859
11.2859
11.2859
11.2859
11.2859
11.2859
11.2859
11.2859
11.2859
11.2859
11.2859
11.2859
11.2859
11.2859
11.2859
11.2859
11.2859
11.2859
11.2859
11.2859
11.2859
11.2859
11.2859
11.2859
11.2859
11.2859
11.2859
11.2859
11.2859
11.2859
11.2859
11.2859
11.2859
11.2859
11.2859
11.2859
11.2859
11.2859
11.2859
11.2859
11.2859
11.2859
11.2859
11.2859
11.2859
11.2859
11.2859
11.2859
11.2859
11.2859
11.2859
11.2859
11.2859
11.2859
11.2859
11.2859
11.2859
11.2859
11.2859
11.2859
11.2859
11.2859
11.2859
11.2859
11.2859
11.2859
11.2859
11.2859
11.2859
11.2859
11.2859
11.2859
11.2859
11.2859
11.2859
11.2859
11.2859
11.2859
11.2859
11.2859
11.2859
11.2859
11.2859
11.2859
11.2859
11.2859
11.2859
11.2859
11.2859
11.2859
11.2859
11.2859
11.2859
11.2859
11.2859
11.2859
11.2859
11.2859
11.2859
11.2859
11.2859
11.2859
11.2859
11.2859
11.2859
11.2859
11.2859
11.2859
11.2859
11.2859
11.2859
11.2859
11.2859
11.2859
11.2859
11.2859
11.2859
11.2859
11.2859
11.2859
11.2859
11.2859
11.2859
11.2859
11.2859
11.2859
11.2859
11.2859
11.2859
11.2859
11.2859
11.2859
11.2859
11.2859
11.2859
11.2859
11.2859
11.2859
11.2859
11.2859
11.2859
11.2859
11.2859
11.2859
11.2859
11.2859
11.2859
11.2859
11.2859
11.2859
11.2859
11.2859
11.2859
11.2859
11.2859
11.2859
11.2859
11.2859
11.2859
11.2859
11.2859
11.2859
11.2859
11.2859
11.2859
11.2859
11.2859
11.2859
11.2859
11.2859
11.2859
11.2859
11.2859
11.2859
11.2859
11.2859
11.2859
11.2859
11.2859
11.2859
11.2859
11.2859
11.2859
11.2859
11.2859
11.2859
11.2859
11.2859
11.2859
11.2859
11.2859
11.2859
11.2859
11.2859
11.2859
11.2859
11.2859
11.2859
11.2859
11.2859
11.2859
11.2859
11.2859
11.2859
11.2859
11.2859
11.2859
11.2859
11.2859
11.2859
11.2859
11.2859
11.2859
11.2859
11.2859
11.2859
11.2859
11.2859
11.2859
11.2859
11.2859
11.2859
11.2859
11.2859
11.2859
11.2859
11.2859
11.2859
11.2859
11.2859
11.2859
11.2859
11.2859
11.2859
11.2859
11.2859
11.2859
11.2859
11.2859
11.2859
11.2859
11.2859
11.2859
11.2859
11.2859
11.2859
11.2859
11.2859
11.2859
11.2859
11.2859
11.2859
11.2859
11.2859
11.2859
11.2859
11.2859
11.2859
11.2859
11.2859
11.2859
11.2859
11.2859
11.2859
11.2859
11.2859
11.2859
11.2859
11.2859
11.2859
11.2859
11.2859
11.2859
11.2859
11.2859
11.2859
11.2859
11.2859
11.2859
11.2859
11.2859
11.2859
11.2859
11.2859
11.2859
11.2859
11.2859
11.2859
11.2859
11.2859
11.2859
11.2859
11.2859
11.2859
11.2859
11.2859
11.2859
11.2859
11.2859
11.2859
11.2859
11.2859
11.2859
11.2859
11.2859
11.2859
11.2859
11.2859
11.2859
11.2859
11.2859
11.2859
11.2859
11.2859
11.2859
11.2859
11.2859
11.2859
11.2859
11.2859
11.2859
11.2859
11.2859
11.2859
11.2859
11.2859
11.2859
11.2859
11.2859
11.2859
11.2859
11.2859
11.2859
11.2859
11.2859
11.2859
11.2859
11.2859
11.2859
11.2859
11.2859
11.2859
11.2859
11.2859
11.2859
11.2859
11.2859
11.2859
11.2859
11.2859
11.2859
11.2859
11.2859
11.2859
11.2859
11.2859
11.2859
11.2859
11.2859
11.2859
11.2859
11.2859
11.2859
11.2859
11.2859
11.2859
11.2859
11.2859
11.2859
11.2859
11.2859
11.2859
11.2859
11.2859
11.2859
11.2859
11.2859
11.2859
11.2859
11.2859
11.2859
11.2859
11.2859
11.2859
11.2859
11.2859
11.2859
11.2859
11.2859
11.2859
11.2859
11.2859
11.2859
11.2859
11.2859
11.2859
11.2859
11.2859
11.2859
11.2858
11.2858
11.2858
11.2858
11.2858
11.2858
11.2858
11.2858
11.2858
11.2858
11.2858
11.2858
11.2858
11.2858
11.2858
11.2858
11.2858
11.2858
11.2858
11.2858
11.2858
11.2858
11.2858
11.2858
11.2858
11.2858
11.2858
11.2858
11.2858
11.2858
11.2858
11.2858
11.2858
11.2858
11.2858
11.2858
11.2858
11.2858
11.2858
11.2858
11.2858
11.2858
11.2858
11.2858
11.2858
11.2858
11.2858
11.2858
11.2859
11.2859
11.2859
11.2859
11.2859
11.2859
11.2859
11.2859
11.2859
11.2859
11.2859
11.2859
11.2859
11.2859
11.2859
11.2859
11.2859
11.2859
11.2859
11.2859
11.2859
11.2859
11.2859
11.2859
11.2859
11.2859
11.2859
11.2859
11.2859
11.2859
11.2859
11.2859
11.2859
11.2859
11.2859
11.2859
11.2859
11.2859
11.2859
11.2859
11.2859
11.2859
11.2859
11.2859
11.2859
11.2859
11.2859
11.2858
11.2858
11.2858
11.2858
11.2858
11.2858
11.2858
11.2858
11.2858
11.2858
11.2858
11.2858
11.2858
11.2858
11.2858
11.2858
11.2858
11.2858
11.2858
11.2858
11.2858
11.2857
11.2857
11.2857
11.2857
11.2857
11.2857
11.2857
11.2857
11.2856
11.2856
11.2856
11.2856
11.2856
11.2856
11.2855
11.2855
11.2855
11.2855
11.2855
11.2855
11.2855
11.2855
11.2855
11.2855
11.2855
11.2855
11.2855
11.2855
11.2856
11.2856
11.2856
11.2856
11.2856
11.2856
11.2857
11.2857
11.2857
11.2857
11.2857
11.2857
11.2858
11.2858
11.2858
11.2858
11.2858
11.2858
11.2858
11.2858
11.2858
11.2858
11.2858
11.2858
11.2859
11.2859
11.2859
11.2859
11.2859
11.2859
11.2859
11.2859
11.2859
11.2859
11.2859
11.2859
11.2859
11.2859
11.2859
11.2859
11.2859
11.2859
11.2859
11.2859
11.2859
11.2859
11.2859
11.2859
11.2859
11.2859
11.2858
11.2858
11.2858
11.2858
11.2858
11.2858
11.2858
11.2858
11.2858
11.2858
11.2858
11.2858
11.2858
11.2858
11.2858
11.2858
11.2858
11.2858
11.2857
11.2857
11.2857
11.2857
11.2857
11.2856
11.2856
11.2856
11.2855
11.2855
11.2855
11.2854
11.2854
11.2853
11.2852
11.2852
11.2851
11.285
11.2849
11.2848
11.2848
11.2847
11.2845
11.2844
11.2843
11.2842
11.2841
11.2839
11.2838
11.2837
11.2836
11.2835
11.2834
11.2834
11.2833
11.2833
11.2832
11.2832
11.2832
11.2832
11.2833
11.2833
11.2834
11.2834
11.2835
11.2836
11.2837
11.2839
11.284
11.2841
11.2842
11.2844
11.2845
11.2846
11.2848
11.2849
11.285
11.2851
11.2853
11.2853
11.2854
11.2855
11.2856
11.2856
11.2857
11.2857
11.2857
11.2858
11.2858
11.2858
11.2858
11.2858
11.2858
11.2858
11.2858
11.2858
11.2859
11.2859
11.2859
11.2859
11.2859
11.2859
11.2859
11.2858
11.2858
11.2858
11.2858
11.2858
11.2858
11.2858
11.2858
11.2858
11.2858
11.2858
11.2858
11.2858
11.2858
11.2858
11.2858
11.2858
11.2858
11.2857
11.2857
11.2857
11.2857
11.2856
11.2856
11.2856
11.2855
11.2855
11.2854
11.2854
11.2853
11.2852
11.2851
11.285
11.2849
11.2848
11.2846
11.2845
11.2843
11.284
11.2838
11.2835
11.2832
11.2829
11.2825
11.2821
11.2817
11.2813
11.2808
11.2803
11.2797
11.2791
11.2785
11.2777
11.277
11.2762
11.2753
11.2744
11.2735
11.2726
11.2717
11.2709
11.2701
11.2693
11.2687
11.2681
11.2676
11.2671
11.2668
11.2666
11.2665
11.2665
11.2667
11.2669
11.2673
11.2677
11.2683
11.2689
11.2696
11.2704
11.2713
11.2722
11.2731
11.274
11.275
11.276
11.277
11.278
11.2789
11.2799
11.2807
11.2815
11.2822
11.2828
11.2833
11.2837
11.2841
11.2844
11.2847
11.2849
11.2851
11.2853
11.2854
11.2855
11.2856
11.2857
11.2857
11.2858
11.2858
11.2858
11.2858
11.2858
11.2858
11.2858
11.2859
11.2859
11.2858
11.2858
11.2858
11.2858
11.2857
11.2857
11.2857
11.2857
11.2856
11.2856
11.2856
11.2855
11.2855
11.2854
11.2854
11.2853
11.2852
11.2851
11.285
11.2848
11.2847
11.2845
11.2843
11.2841
11.2838
11.2835
11.2832
11.2828
11.2823
11.2818
11.2812
11.2806
11.2798
11.279
11.2781
11.277
11.2758
11.2745
11.2729
11.2711
11.2691
11.2669
11.2644
11.2618
11.259
11.2559
11.2528
11.2494
11.2458
11.2418
11.2375
11.2328
11.2277
11.2221
11.2163
11.2102
11.204
11.1978
11.1916
11.1857
11.18
11.1746
11.1697
11.1653
11.1614
11.1581
11.1554
11.1534
11.1521
11.1515
11.1518
11.1527
11.1545
11.157
11.1602
11.1641
11.1685
11.1734
11.1788
11.1846
11.1907
11.1971
11.2037
11.2105
11.2173
11.2242
11.231
11.2376
11.2441
11.2501
11.2555
11.2602
11.2642
11.2676
11.2706
11.2731
11.2754
11.2774
11.2791
11.2806
11.2818
11.2827
11.2835
11.2841
11.2845
11.2849
11.2851
11.2853
11.2855
11.2856
11.2857
11.2857
11.2858
11.2858
11.2858
11.2858
11.2857
11.2857
11.2857
11.2856
11.2856
11.2855
11.2855
11.2854
11.2853
11.2853
11.2852
11.285
11.2849
11.2848
11.2846
11.2844
11.2842
11.2839
11.2836
11.2832
11.2828
11.2824
11.2818
11.2812
11.2805
11.2797
11.2788
11.2777
11.2766
11.2752
11.2736
11.2718
11.2697
11.2673
11.2645
11.2612
11.2576
11.2535
11.2489
11.2438
11.2381
11.2317
11.2244
11.216
11.2065
11.1956
11.1834
11.1697
11.1547
11.1384
11.1209
11.1024
11.0829
11.0624
11.0408
11.0176
10.9922
10.9642
10.9336
10.9007
10.8659
10.8297
10.7927
10.7557
10.7193
10.6842
10.6507
10.6194
10.5906
10.5645
10.5412
10.5211
10.5041
10.4906
10.4807
10.4746
10.4725
10.4743
10.48
10.4899
10.5038
10.5214
10.5424
10.5665
10.5935
10.6232
10.6554
10.6899
10.7263
10.7644
10.8038
10.8444
10.8857
10.9275
10.9691
11.0097
11.0483
11.0834
11.1141
11.1404
11.1627
11.182
11.1991
11.2144
11.228
11.2399
11.25
11.2581
11.2645
11.2694
11.2733
11.2764
11.2788
11.2807
11.2822
11.2832
11.284
11.2845
11.2849
11.2852
11.2854
11.2856
11.2857
11.2848
11.2847
11.2844
11.2842
11.2839
11.2836
11.2832
11.2828
11.2823
11.2817
11.2811
11.2803
11.2794
11.2784
11.2772
11.2759
11.2743
11.2726
11.2705
11.2682
11.2655
11.2624
11.2587
11.2546
11.2497
11.2443
11.2381
11.231
11.223
11.2139
11.2034
11.1913
11.1772
11.161
11.1426
11.1216
11.0981
11.072
11.0432
11.0116
10.9766
10.9373
10.8929
10.8424
10.7854
10.7218
10.652
10.5765
10.4961
10.4117
10.3245
10.2354
10.1454
10.0543
9.96061
9.86178
9.75625
9.64433
9.52763
9.40829
9.28859
9.17074
9.0568
8.94851
8.84719
8.75365
8.6683
8.59134
8.52278
8.46245
8.41017
8.36582
8.32935
8.30098
8.28118
8.26943
8.26694
8.27265
8.28682
8.31077
8.34391
8.38574
8.43584
8.49395
8.56015
8.63482
8.71829
8.81069
8.91192
9.02187
9.14073
9.26887
9.40643
9.55311
9.70775
9.86777
10.0284
10.1819
10.3216
10.4457
10.5565
10.657
10.75
10.8367
10.9171
10.9898
11.0527
11.1042
11.1449
11.1767
11.202
11.2224
11.2387
11.2514
11.2609
11.2679
11.273
11.2768
11.2795
11.2815
11.2829
11.2839
11.2845
11.279
11.2778
11.2764
11.2748
11.273
11.2709
11.2685
11.2656
11.2624
11.2586
11.2542
11.2492
11.2433
11.2366
11.2289
11.2202
11.2102
11.1989
11.1858
11.1707
11.1533
11.1333
11.1103
11.0841
11.0544
11.0211
10.9838
10.9423
10.8958
10.8432
10.7833
10.7151
10.638
10.5516
10.4562
10.3521
10.2401
10.1213
9.99673
9.86641
9.72861
9.58054
9.42068
9.24961
9.06951
8.88335
8.69432
8.50556
8.31991
8.13982
7.96709
7.80286
7.64721
7.49898
7.35333
7.2038
7.05
6.89549
6.74442
6.59994
6.46412
6.33842
6.22379
6.12066
6.02894
5.94796
5.87684
5.8148
5.76116
5.71522
5.67638
5.64425
5.61855
5.5994
5.58751
5.58172
5.58245
5.58957
5.60482
5.62674
5.65601
5.69212
5.73499
5.78467
5.84164
5.90686
5.98128
6.06578
6.16107
6.26801
6.38829
6.52437
6.67884
6.85454
7.05377
7.27745
7.52393
7.78168
8.03516
8.2807
8.52264
8.76696
9.0184
9.27939
9.54831
9.81742
10.0717
10.2959
10.4846
10.6421
10.7755
10.8898
10.9862
11.064
11.1238
11.1682
11.2011
11.2256
11.2436
11.2567
11.2659
11.2723
11.2768
11.2416
11.234
11.2253
11.2152
11.2036
11.1902
11.175
11.1574
11.1371
11.1137
11.0869
11.0562
11.0213
10.9819
10.9376
10.8882
10.8329
10.7707
10.7006
10.6214
10.5323
10.4329
10.3229
10.2028
10.0732
9.93491
9.78892
9.63521
9.47204
9.29734
9.11043
8.91242
8.70566
8.49314
8.27804
8.06345
7.85219
7.64666
7.44808
7.25586
7.06516
6.87051
6.67232
6.47452
6.28152
6.09674
5.92245
5.76002
5.61024
5.47329
5.34873
5.23565
5.13299
5.03803
4.94527
4.84626
4.74569
4.64859
4.55794
4.47501
4.40024
4.33382
4.27577
4.22581
4.18344
4.14766
4.1174
4.09205
4.07119
4.05434
4.04101
4.03102
4.0242
4.02049
4.02131
4.02474
4.02981
4.03898
4.055
4.06968
4.08956
4.11203
4.13718
4.16533
4.19665
4.23204
4.27222
4.31789
4.36962
4.42779
4.49382
4.57024
4.65917
4.7632
4.88548
5.02804
5.19188
5.36897
5.54129
5.71491
5.89984
6.1045
6.33663
6.60416
6.91393
7.26789
7.65223
8.03765
8.4088
8.76791
9.12314
9.47727
9.82079
10.1326
10.3956
10.6079
10.7777
10.9133
11.0193
11.0989
11.1564
11.1972
11.226
11.246
11.2596
11.0167
10.9731
10.9236
10.8677
10.8051
10.735
10.6564
10.5683
10.4697
10.36
10.2389
10.1066
9.96369
9.81107
9.64986
9.48074
9.3032
9.11588
8.91819
8.71094
8.49609
8.27622
8.05413
7.83253
7.61392
7.40042
7.19317
6.99148
6.79077
6.58795
6.38429
6.18314
5.98789
5.80115
5.62465
5.45946
5.30617
5.16491
5.03523
4.91429
4.7958
4.67294
4.55018
4.4321
4.32153
4.21991
4.12785
4.04546
3.9727
3.90914
3.85387
3.80587
3.76405
3.72753
3.69614
3.66978
3.64759
3.62913
3.61401
3.60172
3.59206
3.58493
3.58044
3.57837
3.57852
3.5806
3.58358
3.58742
3.59199
3.59729
3.60363
3.61072
3.61857
3.62757
3.63771
3.64867
3.66093
3.67436
3.68847
3.70419
3.72168
3.73541
3.75168
3.76896
3.7869
3.80635
3.82648
3.84741
3.86897
3.89181
3.91645
3.94315
3.97173
4.00384
4.0405
4.08057
4.12348
4.16944
4.22152
4.28458
4.36179
4.45584
4.57078
4.71327
4.89073
5.10879
5.36275
5.62086
5.88406
6.16905
6.49425
6.87448
7.31336
7.78662
8.25924
8.71522
9.15454
9.57542
9.96171
10.2914
10.5558
10.7615
10.9186
11.035
11.1178
9.96824
9.80318
9.62746
9.44261
9.24969
9.04875
8.83942
8.62206
8.39814
8.16993
7.94006
7.71112
7.4855
7.26525
7.05173
6.84508
6.643
6.44225
6.2428
6.04664
5.85626
5.67376
5.50058
5.33759
5.1852
5.04364
4.91255
4.78931
4.6671
4.5432
4.4214
4.30497
4.19588
4.09516
4.00329
3.92042
3.84653
3.78137
3.72417
3.674
3.63046
3.59317
3.56094
3.53294
3.50865
3.48771
3.46996
3.45514
3.44337
3.43468
3.42831
3.42351
3.41979
3.41709
3.41534
3.41461
3.41476
3.41569
3.41761
3.42
3.42288
3.42648
3.43111
3.43704
3.44391
3.45251
3.46166
3.47116
3.48078
3.48831
3.49818
3.50877
3.5188
3.52977
3.54175
3.55327
3.56619
3.58014
3.59309
3.60761
3.62417
3.63848
3.65391
3.66649
3.68127
3.70078
3.71877
3.73685
3.75262
3.76855
3.79009
3.81077
3.82789
3.8478
3.87405
3.90146
3.92773
3.949
3.96787
3.99489
4.02743
4.06199
4.09814
4.13836
4.18456
4.23752
4.2973
4.36591
4.45261
4.56846
4.72413
4.93017
5.19602
5.50442
5.82808
6.17577
6.56956
7.02812
7.54561
8.08539
8.61709
9.12809
9.60735
10.0318
10.38
7.77248
7.52855
7.28975
7.05818
6.83513
6.62066
6.4127
6.20916
6.01027
5.81758
5.63281
5.45733
5.292
5.13723
4.99301
4.85933
4.73451
4.61462
4.49487
4.37741
4.26473
4.15852
4.05972
3.9688
3.88589
3.81096
3.74396
3.68453
3.63205
3.58644
3.54698
3.51252
3.48221
3.45548
3.432
3.41151
3.39384
3.37904
3.36722
3.3578
3.3499
3.34309
3.33735
3.33239
3.32837
3.32495
3.322
3.31964
3.31786
3.31668
3.31755
3.31956
3.322
3.32488
3.32884
3.33187
3.33515
3.33967
3.34371
3.34821
3.35313
3.35809
3.36389
3.36989
3.37541
3.38231
3.38993
3.39725
3.40715
3.41607
3.42441
3.4346
3.44627
3.45666
3.46768
3.48008
3.49164
3.50476
3.51866
3.53144
3.54589
3.56229
3.57542
3.58984
3.60149
3.61607
3.63505
3.65086
3.66752
3.68193
3.69717
3.71555
3.73429
3.74954
3.76836
3.79254
3.8141
3.83599
3.86048
3.8788
3.899
3.92619
3.95438
3.98027
4.00788
4.03419
4.06602
4.09565
4.11628
4.14629
4.18634
4.23362
4.28733
4.34936
4.42107
4.51243
4.6389
4.8174
5.06517
5.38545
5.74249
6.13326
6.57811
7.09562
7.67254
8.26813
5.36807
5.1973
5.03818
4.89058
4.75427
4.62744
4.50621
4.38765
4.27334
4.16495
4.06362
3.9699
3.88402
3.80593
3.73544
3.67237
3.61643
3.56742
3.52505
3.4882
3.45591
3.42745
3.40232
3.38014
3.36064
3.34367
3.32933
3.31762
3.30783
3.29944
3.292
3.28536
3.27939
3.27385
3.26883
3.26422
3.26005
3.25636
3.25429
3.25369
3.25347
3.25309
3.25327
3.25325
3.25428
3.25486
3.25543
3.25605
3.2577
3.25863
3.25979
3.26134
3.26351
3.26685
3.2714
3.27519
3.2803
3.28591
3.29163
3.29779
3.30447
3.31137
3.31842
3.32491
3.33137
3.33829
3.34436
3.35232
3.36235
3.37061
3.37965
3.39058
3.40239
3.41272
3.42426
3.43667
3.44801
3.46088
3.47461
3.48702
3.50061
3.51689
3.52956
3.5431
3.55398
3.56903
3.58658
3.60067
3.61633
3.63037
3.6453
3.66192
3.67971
3.69534
3.71127
3.73114
3.74986
3.76985
3.79233
3.81384
3.83191
3.85593
3.87835
3.90238
3.92623
3.94984
3.97574
4.00309
4.02936
4.05008
4.07858
4.11154
4.14632
4.18168
4.20411
4.23264
4.27195
4.32129
4.38112
4.45096
4.54178
4.67225
4.86504
5.14099
5.49544
5.89683
6.35093
6.87923
3.93886
3.84914
3.76771
3.69437
3.62878
3.57065
3.52
3.47641
3.4388
3.4062
3.37781
3.35298
3.33126
3.31227
3.29577
3.28168
3.27013
3.26062
3.2525
3.24537
3.23884
3.23293
3.22742
3.22227
3.21742
3.21295
3.20899
3.20673
3.20515
3.20384
3.20253
3.20127
3.20045
3.19926
3.19836
3.19732
3.19655
3.19601
3.19496
3.19395
3.19385
3.19431
3.19529
3.19733
3.19933
3.20182
3.20464
3.20769
3.21102
3.21413
3.21631
3.21842
3.22141
3.22566
3.22952
3.23445
3.24045
3.24659
3.25281
3.25936
3.26617
3.27297
3.27956
3.28612
3.29318
3.29978
3.30577
3.314
3.32258
3.32983
3.33845
3.34963
3.35975
3.36986
3.38142
3.39327
3.4043
3.41675
3.43014
3.44225
3.45504
3.47092
3.48373
3.49593
3.50708
3.52274
3.53891
3.55244
3.56658
3.58117
3.59553
3.61177
3.62907
3.64506
3.66001
3.67818
3.69566
3.71423
3.73518
3.75572
3.77652
3.79722
3.81814
3.84032
3.86245
3.88397
3.90633
3.92989
3.95358
3.97834
4.00501
4.03162
4.05998
4.08831
4.11546
4.14059
4.1697
4.20526
4.23921
4.26246
4.28985
4.32907
4.3806
4.44184
4.51716
4.62615
4.79432
5.04746
3.31142
3.28699
3.26593
3.2478
3.23227
3.21924
3.20879
3.20034
3.19319
3.18694
3.18126
3.17613
3.17141
3.167
3.16296
3.15929
3.15698
3.15565
3.15434
3.15322
3.15186
3.15084
3.14971
3.14863
3.14721
3.14639
3.14537
3.14379
3.14221
3.1415
3.14122
3.14147
3.14202
3.14305
3.14413
3.14541
3.14691
3.14844
3.14895
3.14906
3.14975
3.15096
3.15276
3.15514
3.15804
3.16122
3.16455
3.16794
3.17116
3.17417
3.17708
3.17963
3.18271
3.18628
3.18959
3.194
3.19935
3.20487
3.21079
3.21723
3.22392
3.2307
3.23753
3.24452
3.25167
3.25847
3.26485
3.27306
3.28029
3.2874
3.29576
3.30624
3.31487
3.32459
3.336
3.347
3.35772
3.36983
3.38296
3.39468
3.40688
3.42167
3.43479
3.44647
3.45879
3.47395
3.48887
3.5022
3.51525
3.52974
3.54418
3.55952
3.57564
3.59173
3.60756
3.62486
3.64182
3.65937
3.67875
3.69864
3.71875
3.7388
3.75911
3.77983
3.80082
3.82194
3.84361
3.86619
3.88978
3.91448
3.93899
3.96374
3.98912
4.01411
4.03902
4.06566
4.09406
4.1225
4.14953
4.17795
4.20508
4.23667
4.26988
4.29475
4.31766
4.35092
4.39705
4.45153
3.1196
3.11475
3.11042
3.10648
3.10298
3.09993
3.09837
3.09759
3.09677
3.09606
3.09521
3.09457
3.09403
3.09319
3.09266
3.09224
3.09127
3.09004
3.08944
3.08926
3.08943
3.09007
3.09076
3.09178
3.09284
3.09403
3.09512
3.09518
3.09459
3.09495
3.09566
3.0966
3.09786
3.09948
3.10122
3.10295
3.10452
3.1057
3.10676
3.10758
3.10827
3.1092
3.11057
3.11231
3.11456
3.11727
3.12034
3.12365
3.12706
3.1305
3.13395
3.13723
3.14051
3.14376
3.14709
3.15106
3.15568
3.16052
3.16596
3.17199
3.17835
3.18496
3.19187
3.19907
3.20639
3.21366
3.22078
3.22842
3.23537
3.24245
3.25125
3.26017
3.26831
3.27751
3.28873
3.29863
3.30901
3.32081
3.3335
3.34474
3.35656
3.37043
3.3837
3.39533
3.40793
3.42256
3.43647
3.44944
3.46245
3.47656
3.49128
3.50429
3.52016
3.53624
3.55278
3.56955
3.58619
3.60331
3.62154
3.64042
3.65949
3.67877
3.69834
3.71814
3.7382
3.75874
3.78004
3.80233
3.8256
3.84944
3.87342
3.89761
3.92186
3.94603
3.97083
3.99713
4.02436
4.05131
4.07659
4.10255
4.13087
4.15954
4.18513
4.21257
4.24103
4.27184
4.30074
4.32107
4.34293
3.03242
3.03239
3.03202
3.03207
3.03217
3.03176
3.03126
3.03126
3.0317
3.0325
3.03355
3.03498
3.03635
3.03786
3.03943
3.0401
3.04028
3.04059
3.04167
3.04247
3.04375
3.04516
3.04664
3.04805
3.04919
3.04988
3.05048
3.05071
3.0509
3.05116
3.05173
3.05249
3.05355
3.05489
3.05643
3.05803
3.05959
3.06111
3.06246
3.0636
3.06462
3.06575
3.06714
3.06888
3.07105
3.07364
3.07662
3.07991
3.08345
3.08717
3.09092
3.09461
3.09825
3.10187
3.10572
3.10987
3.11434
3.11935
3.12485
3.13074
3.13702
3.14374
3.15082
3.15815
3.16561
3.17313
3.18059
3.18794
3.19521
3.204
3.2118
3.21987
3.22894
3.23948
3.2486
3.25859
3.27028
3.28213
3.29297
3.30447
3.31796
3.33083
3.34246
3.35497
3.36912
3.38222
3.39481
3.40777
3.4216
3.43655
3.44789
3.46363
3.47966
3.49572
3.512
3.52874
3.54571
3.56307
3.58092
3.59906
3.61748
3.63624
3.65528
3.67462
3.69449
3.71521
3.73698
3.75964
3.78278
3.80618
3.82973
3.85333
3.87716
3.90184
3.92781
3.95453
3.98089
4.00661
4.03308
4.0609
4.0883
4.11355
4.13934
4.16826
4.19698
4.22167
4.2484
4.27503
2.9714
2.97343
2.97509
2.97704
2.97907
2.98018
2.98101
2.98214
2.98357
2.98508
2.98679
2.98858
2.9903
2.9918
2.99285
2.99378
2.99449
2.99499
2.99555
2.99612
2.99688
2.99778
2.99884
3
3.00115
3.00219
3.00312
3.00385
3.00433
3.00463
3.00494
3.00536
3.00599
3.00688
3.00802
3.00938
3.01093
3.01258
3.01425
3.01584
3.01728
3.01864
3.02005
3.02162
3.02349
3.0257
3.02829
3.03126
3.03459
3.03821
3.04204
3.04599
3.04999
3.05397
3.05796
3.06208
3.06646
3.0712
3.0763
3.08178
3.08769
3.09407
3.10085
3.10796
3.11533
3.12287
3.13048
3.13815
3.14583
3.154
3.16173
3.16971
3.17896
3.18836
3.19724
3.20681
3.21853
3.22929
3.2399
3.25111
3.26448
3.27652
3.28816
3.30048
3.31414
3.3266
3.33888
3.35158
3.36555
3.37914
3.39082
3.40666
3.42205
3.43743
3.45326
3.46982
3.48656
3.50338
3.52045
3.53778
3.55541
3.5734
3.59173
3.61043
3.62966
3.64971
3.67073
3.6926
3.71501
3.7377
3.76053
3.7835
3.8069
3.83121
3.85661
3.88263
3.90863
3.93474
3.96163
3.98912
4.01614
4.04247
4.06967
4.09819
4.12572
4.15102
4.17741
4.20582
2.9272
2.92926
2.9311
2.93249
2.93386
2.93508
2.93616
2.9372
2.93829
2.93947
2.94076
2.9421
2.94344
2.94466
2.94579
2.94677
2.94753
2.94808
2.94852
2.94896
2.94948
2.95012
2.9509
2.95179
2.95277
2.95378
2.95473
2.95555
2.95618
2.95666
2.95709
2.95757
2.9582
2.95902
2.96008
2.96136
2.96286
2.96452
2.96625
2.96798
2.96966
2.97131
2.97299
2.97481
2.97686
2.97921
2.98189
2.98492
2.9883
2.99197
2.9959
3.00001
3.00417
3.00837
3.01265
3.01709
3.02172
3.0266
3.03182
3.03743
3.04347
3.04989
3.05669
3.06381
3.07119
3.07882
3.08659
3.09445
3.10236
3.11033
3.11832
3.12744
3.13602
3.14486
3.15418
3.16565
3.17553
3.18593
3.197
3.21004
3.22131
3.23285
3.24509
3.25816
3.27009
3.28212
3.29457
3.30862
3.31998
3.33359
3.3489
3.3636
3.37846
3.39386
3.41001
3.4264
3.44277
3.45925
3.47593
3.49289
3.51021
3.52791
3.546
3.56462
3.58398
3.60421
3.62524
3.64682
3.66872
3.69081
3.71314
3.73599
3.75972
3.78437
3.80959
3.83508
3.86104
3.88771
3.91474
3.9417
3.96891
3.997
4.02542
4.05307
4.08024
4.10829
4.13642
2.88215
2.88376
2.88525
2.88668
2.88799
2.88912
2.89007
2.89093
2.89176
2.89264
2.89359
2.8946
2.89565
2.89672
2.89776
2.89869
2.89945
2.90004
2.9005
2.90092
2.90136
2.90187
2.90248
2.90321
2.90404
2.90493
2.90583
2.90665
2.90737
2.90798
2.90854
2.90914
2.90984
2.91069
2.91174
2.91301
2.91449
2.91614
2.9179
2.91973
2.92157
2.92343
2.92535
2.92741
2.92966
2.93216
2.93497
2.93809
2.94154
2.9453
2.9493
2.95347
2.95776
2.96217
2.96669
2.97132
2.97613
2.98121
2.98661
2.99236
2.99847
3.00494
3.01177
3.01893
3.0264
3.03408
3.0419
3.04983
3.05793
3.06607
3.07474
3.08314
3.09188
3.10118
3.11192
3.12135
3.13151
3.14258
3.15497
3.16574
3.17707
3.1893
3.20169
3.21321
3.22494
3.23747
3.25024
3.2613
3.27612
3.29052
3.30467
3.31914
3.33414
3.34985
3.36578
3.3817
3.39768
3.41383
3.43025
3.44701
3.46413
3.48165
3.49969
3.5184
3.53787
3.55805
3.57878
3.59987
3.62121
3.64289
3.66514
3.68818
3.71201
3.73638
3.7612
3.78659
3.81261
3.83904
3.86581
3.89322
3.92138
3.94971
3.97787
4.00635
4.0353
4.06375
4.0912
4.11856
2.83515
2.83641
2.83769
2.83897
2.84023
2.84139
2.84242
2.84331
2.84409
2.84482
2.84554
2.84629
2.84709
2.84795
2.84884
2.84972
2.85055
2.85127
2.85186
2.85235
2.85278
2.8532