/*--------------------------------*- C++ -*----------------------------------*\
| =========                 |                                                 |
| \\      /  F ield         | OpenFOAM: The Open Source CFD Toolbox           |
|  \\    /   O peration     | Version:  v1706                                 |
|   \\  /    A nd           | Web:      www.OpenFOAM.com                      |
|    \\/     M anipulation  |                                                 |
\*---------------------------------------------------------------------------*/
FoamFile
{
    version     2.0;
    format      ascii;
    class       volScalarField;
    location    "1.2e-05";
    object      mu;
}
// * * * * * * * * * * * * * * * * * * * * * * * * * * * * * * * * * * * * * //

dimensions      [1 -1 -1 0 0 0 0];


internalField   nonuniform List<scalar> 
29871
(
1.0351e-05
1.0351e-05
1.0351e-05
1.0351e-05
1.0351e-05
1.0351e-05
1.0351e-05
1.0351e-05
1.0351e-05
1.0351e-05
1.0351e-05
1.0351e-05
1.0351e-05
1.0351e-05
1.0351e-05
1.0351e-05
1.0351e-05
1.0351e-05
1.0351e-05
1.0351e-05
1.0351e-05
1.0351e-05
1.0351e-05
1.0351e-05
1.0351e-05
1.0351e-05
1.0351e-05
1.0351e-05
1.0351e-05
1.0351e-05
1.0351e-05
1.0351e-05
1.0351e-05
1.0351e-05
1.0351e-05
1.0351e-05
1.0351e-05
1.0351e-05
1.0351e-05
1.0351e-05
1.0351e-05
1.0351e-05
1.0351e-05
1.0351e-05
1.0351e-05
1.0351e-05
1.0351e-05
1.0351e-05
1.0351e-05
1.0351e-05
1.0351e-05
1.0351e-05
1.0351e-05
1.0351e-05
1.0351e-05
1.0351e-05
1.0351e-05
1.0351e-05
1.0351e-05
1.0351e-05
1.0351e-05
1.0351e-05
1.0351e-05
1.0351e-05
1.0351e-05
1.0351e-05
1.0351e-05
1.0351e-05
1.0351e-05
1.0351e-05
1.0351e-05
1.0351e-05
1.0351e-05
1.0351e-05
1.0351e-05
1.0351e-05
1.0351e-05
1.0351e-05
1.0351e-05
1.0351e-05
1.0351e-05
1.0351e-05
1.0351e-05
1.0351e-05
1.0351e-05
1.0351e-05
1.0351e-05
1.0351e-05
1.0351e-05
1.0351e-05
1.0351e-05
1.0351e-05
1.0351e-05
1.0351e-05
1.0351e-05
1.0351e-05
1.0351e-05
1.0351e-05
1.0351e-05
1.0351e-05
1.0351e-05
1.0351e-05
1.0351e-05
1.0351e-05
1.0351e-05
1.0351e-05
1.0351e-05
1.0351e-05
1.0351e-05
1.0351e-05
1.0351e-05
1.0351e-05
1.0351e-05
1.0351e-05
1.0351e-05
1.0351e-05
1.0351e-05
1.0351e-05
1.0351e-05
1.0351e-05
1.0351e-05
1.0351e-05
1.0351e-05
1.0351e-05
1.0351e-05
1.0351e-05
1.0351e-05
1.0351e-05
1.0351e-05
1.0351e-05
1.0351e-05
1.0351e-05
1.0351e-05
1.0351e-05
1.0351e-05
1.0351e-05
1.0351e-05
1.0351e-05
1.0351e-05
1.0351e-05
1.0351e-05
1.0351e-05
1.0351e-05
1.0351e-05
1.0351e-05
1.0351e-05
1.0351e-05
1.0351e-05
1.0351e-05
1.0351e-05
1.0351e-05
1.0351e-05
1.0351e-05
1.0351e-05
1.0351e-05
1.0351e-05
1.0351e-05
1.0351e-05
1.0351e-05
1.0351e-05
1.0351e-05
1.0351e-05
1.0351e-05
1.0351e-05
1.0351e-05
1.0351e-05
1.0351e-05
1.0351e-05
1.0351e-05
1.0351e-05
1.0351e-05
1.0351e-05
1.0351e-05
1.0351e-05
1.0351e-05
1.0351e-05
1.0351e-05
1.0351e-05
1.0351e-05
1.0351e-05
1.0351e-05
1.0351e-05
1.0351e-05
1.0351e-05
1.0351e-05
1.0351e-05
1.0351e-05
1.0351e-05
1.0351e-05
1.0351e-05
1.0351e-05
1.0351e-05
1.0351e-05
1.0351e-05
1.0351e-05
1.0351e-05
1.0351e-05
1.0351e-05
1.0351e-05
1.0351e-05
1.0351e-05
1.0351e-05
1.0351e-05
1.0351e-05
1.0351e-05
1.0351e-05
1.0351e-05
1.0351e-05
1.0351e-05
1.0351e-05
1.0351e-05
1.0351e-05
1.0351e-05
1.0351e-05
1.0351e-05
1.0351e-05
1.0351e-05
1.0351e-05
1.0351e-05
1.0351e-05
1.0351e-05
1.0351e-05
1.0351e-05
1.0351e-05
1.0351e-05
1.0351e-05
1.0351e-05
1.0351e-05
1.0351e-05
1.0351e-05
1.0351e-05
1.0351e-05
1.0351e-05
1.0351e-05
1.0351e-05
1.0351e-05
1.0351e-05
1.0351e-05
1.0351e-05
1.0351e-05
1.0351e-05
1.0351e-05
1.0351e-05
1.0351e-05
1.0351e-05
1.0351e-05
1.0351e-05
1.0351e-05
1.0351e-05
1.0351e-05
1.0351e-05
1.0351e-05
1.0351e-05
1.0351e-05
1.0351e-05
1.0351e-05
1.0351e-05
1.0351e-05
1.0351e-05
1.0351e-05
1.0351e-05
1.0351e-05
1.0351e-05
1.0351e-05
1.0351e-05
1.0351e-05
1.0351e-05
1.0351e-05
1.0351e-05
1.0351e-05
1.0351e-05
1.0351e-05
1.0351e-05
1.0351e-05
1.0351e-05
1.0351e-05
1.0351e-05
1.0351e-05
1.0351e-05
1.0351e-05
1.0351e-05
1.0351e-05
1.0351e-05
1.0351e-05
1.0351e-05
1.0351e-05
1.0351e-05
1.0351e-05
1.0351e-05
1.0351e-05
1.0351e-05
1.0351e-05
1.0351e-05
1.0351e-05
1.0351e-05
1.0351e-05
1.0351e-05
1.0351e-05
1.0351e-05
1.0351e-05
1.0351e-05
1.0351e-05
1.0351e-05
1.0351e-05
1.0351e-05
1.0351e-05
1.0351e-05
1.0351e-05
1.0351e-05
1.0351e-05
1.0351e-05
1.0351e-05
1.0351e-05
1.0351e-05
1.0351e-05
1.0351e-05
1.0351e-05
1.0351e-05
1.0351e-05
1.0351e-05
1.0351e-05
1.0351e-05
1.0351e-05
1.0351e-05
1.0351e-05
1.0351e-05
1.0351e-05
1.0351e-05
1.0351e-05
1.0351e-05
1.0351e-05
1.0351e-05
1.0351e-05
1.0351e-05
1.0351e-05
1.0351e-05
1.0351e-05
1.0351e-05
1.0351e-05
1.0351e-05
1.0351e-05
1.0351e-05
1.0351e-05
1.0351e-05
1.0351e-05
1.0351e-05
1.0351e-05
1.0351e-05
1.0351e-05
1.0351e-05
1.0351e-05
1.0351e-05
1.0351e-05
1.0351e-05
1.0351e-05
1.0351e-05
1.0351e-05
1.0351e-05
1.0351e-05
1.0351e-05
1.0351e-05
1.0351e-05
1.0351e-05
1.0351e-05
1.0351e-05
1.0351e-05
1.0351e-05
1.0351e-05
1.0351e-05
1.0351e-05
1.0351e-05
1.0351e-05
1.0351e-05
1.0351e-05
1.0351e-05
1.0351e-05
1.0351e-05
1.0351e-05
1.0351e-05
1.0351e-05
1.0351e-05
1.0351e-05
1.0351e-05
1.0351e-05
1.0351e-05
1.0351e-05
1.0351e-05
1.0351e-05
1.0351e-05
1.0351e-05
1.0351e-05
1.0351e-05
1.0351e-05
1.0351e-05
1.0351e-05
1.0351e-05
1.0351e-05
1.0351e-05
1.0351e-05
1.0351e-05
1.0351e-05
1.0351e-05
1.0351e-05
1.0351e-05
1.0351e-05
1.0351e-05
1.0351e-05
1.0351e-05
1.0351e-05
1.0351e-05
1.0351e-05
1.0351e-05
1.0351e-05
1.0351e-05
1.0351e-05
1.0351e-05
1.0351e-05
1.0351e-05
1.0351e-05
1.0351e-05
1.0351e-05
1.0351e-05
1.0351e-05
1.0351e-05
1.0351e-05
1.0351e-05
1.0351e-05
1.0351e-05
1.0351e-05
1.0351e-05
1.0351e-05
1.0351e-05
1.0351e-05
1.0351e-05
1.0351e-05
1.0351e-05
1.0351e-05
1.0351e-05
1.0351e-05
1.0351e-05
1.0351e-05
1.0351e-05
1.0351e-05
1.0351e-05
1.0351e-05
1.0351e-05
1.0351e-05
1.0351e-05
1.0351e-05
1.0351e-05
1.0351e-05
1.0351e-05
1.0351e-05
1.0351e-05
1.0351e-05
1.0351e-05
1.0351e-05
1.0351e-05
1.0351e-05
1.0351e-05
1.0351e-05
1.0351e-05
1.0351e-05
1.0351e-05
1.0351e-05
1.0351e-05
1.0351e-05
1.0351e-05
1.0351e-05
1.0351e-05
1.0351e-05
1.0351e-05
1.0351e-05
1.0351e-05
1.0351e-05
1.0351e-05
1.0351e-05
1.0351e-05
1.0351e-05
1.0351e-05
1.0351e-05
1.0351e-05
1.0351e-05
1.0351e-05
1.0351e-05
1.0351e-05
1.0351e-05
1.0351e-05
1.0351e-05
1.0351e-05
1.0351e-05
1.0351e-05
1.0351e-05
1.0351e-05
1.0351e-05
1.0351e-05
1.0351e-05
1.0351e-05
1.0351e-05
1.0351e-05
1.0351e-05
1.0351e-05
1.0351e-05
1.0351e-05
1.0351e-05
1.0351e-05
1.0351e-05
1.0351e-05
1.0351e-05
1.0351e-05
1.0351e-05
1.0351e-05
1.0351e-05
1.0351e-05
1.0351e-05
1.0351e-05
1.0351e-05
1.0351e-05
1.0351e-05
1.0351e-05
1.0351e-05
1.0351e-05
1.0351e-05
1.0351e-05
1.0351e-05
1.0351e-05
1.0351e-05
1.0351e-05
1.0351e-05
1.0351e-05
1.0351e-05
1.0351e-05
1.0351e-05
1.0351e-05
1.0351e-05
1.0351e-05
1.0351e-05
1.0351e-05
1.0351e-05
1.0351e-05
1.0351e-05
1.0351e-05
1.0351e-05
1.0351e-05
1.0351e-05
1.0351e-05
1.0351e-05
1.0351e-05
1.0351e-05
1.0351e-05
1.0351e-05
1.0351e-05
1.0351e-05
1.0351e-05
1.0351e-05
1.0351e-05
1.0351e-05
1.0351e-05
1.0351e-05
1.0351e-05
1.0351e-05
1.0351e-05
1.0351e-05
1.0351e-05
1.0351e-05
1.0351e-05
1.0351e-05
1.0351e-05
1.0351e-05
1.0351e-05
1.0351e-05
1.0351e-05
1.0351e-05
1.0351e-05
1.0351e-05
1.0351e-05
1.0351e-05
1.0351e-05
1.0351e-05
1.0351e-05
1.0351e-05
1.0351e-05
1.0351e-05
1.0351e-05
1.0351e-05
1.0351e-05
1.0351e-05
1.0351e-05
1.0351e-05
1.0351e-05
1.0351e-05
1.0351e-05
1.0351e-05
1.0351e-05
1.0351e-05
1.0351e-05
1.0351e-05
1.0351e-05
1.0351e-05
1.0351e-05
1.0351e-05
1.0351e-05
1.0351e-05
1.0351e-05
1.0351e-05
1.0351e-05
1.0351e-05
1.0351e-05
1.0351e-05
1.0351e-05
1.0351e-05
1.0351e-05
1.0351e-05
1.0351e-05
1.0351e-05
1.0351e-05
1.0351e-05
1.0351e-05
1.0351e-05
1.0351e-05
1.0351e-05
1.0351e-05
1.0351e-05
1.0351e-05
1.0351e-05
1.0351e-05
1.0351e-05
1.0351e-05
1.0351e-05
1.0351e-05
1.0351e-05
1.0351e-05
1.0351e-05
1.0351e-05
1.0351e-05
1.0351e-05
1.0351e-05
1.0351e-05
1.0351e-05
1.0351e-05
1.0351e-05
1.0351e-05
1.0351e-05
1.0351e-05
1.0351e-05
1.0351e-05
1.0351e-05
1.0351e-05
1.0351e-05
1.0351e-05
1.0351e-05
1.0351e-05
1.0351e-05
1.0351e-05
1.0351e-05
1.0351e-05
1.0351e-05
1.0351e-05
1.0351e-05
1.0351e-05
1.0351e-05
1.0351e-05
1.0351e-05
1.0351e-05
1.0351e-05
1.0351e-05
1.0351e-05
1.0351e-05
1.0351e-05
1.0351e-05
1.0351e-05
1.0351e-05
1.0351e-05
1.0351e-05
1.0351e-05
1.0351e-05
1.0351e-05
1.0351e-05
1.0351e-05
1.0351e-05
1.0351e-05
1.0351e-05
1.0351e-05
1.0351e-05
1.0351e-05
1.0351e-05
1.0351e-05
1.0351e-05
1.0351e-05
1.0351e-05
1.0351e-05
1.0351e-05
1.0351e-05
1.0351e-05
1.0351e-05
1.0351e-05
1.0351e-05
1.0351e-05
1.0351e-05
1.0351e-05
1.0351e-05
1.0351e-05
1.0351e-05
1.0351e-05
1.0351e-05
1.0351e-05
1.0351e-05
1.0351e-05
1.0351e-05
1.0351e-05
1.0351e-05
1.0351e-05
1.0351e-05
1.0351e-05
1.0351e-05
1.0351e-05
1.0351e-05
1.0351e-05
1.0351e-05
1.0351e-05
1.0351e-05
1.0351e-05
1.0351e-05
1.0351e-05
1.0351e-05
1.0351e-05
1.0351e-05
1.0351e-05
1.0351e-05
1.0351e-05
1.0351e-05
1.0351e-05
1.0351e-05
1.0351e-05
1.0351e-05
1.0351e-05
1.0351e-05
1.0351e-05
1.0351e-05
1.0351e-05
1.0351e-05
1.0351e-05
1.0351e-05
1.0351e-05
1.0351e-05
1.0351e-05
1.0351e-05
1.0351e-05
1.0351e-05
1.0351e-05
1.0351e-05
1.0351e-05
1.0351e-05
1.0351e-05
1.0351e-05
1.0351e-05
1.0351e-05
1.0351e-05
1.0351e-05
1.0351e-05
1.0351e-05
1.0351e-05
1.0351e-05
1.0351e-05
1.0351e-05
1.0351e-05
1.0351e-05
1.0351e-05
1.0351e-05
1.0351e-05
1.0351e-05
1.0351e-05
1.0351e-05
1.0351e-05
1.0351e-05
1.0351e-05
1.0351e-05
1.0351e-05
1.0351e-05
1.0351e-05
1.0351e-05
1.0351e-05
1.0351e-05
1.0351e-05
1.0351e-05
1.0351e-05
1.0351e-05
1.0351e-05
1.0351e-05
1.0351e-05
1.0351e-05
1.0351e-05
1.0351e-05
1.0351e-05
1.0351e-05
1.0351e-05
1.0351e-05
1.0351e-05
1.0351e-05
1.0351e-05
1.0351e-05
1.0351e-05
1.0351e-05
1.0351e-05
1.0351e-05
1.0351e-05
1.0351e-05
1.0351e-05
1.0351e-05
1.0351e-05
1.0351e-05
1.0351e-05
1.0351e-05
1.0351e-05
1.0351e-05
1.0351e-05
1.0351e-05
1.0351e-05
1.0351e-05
1.0351e-05
1.0351e-05
1.0351e-05
1.0351e-05
1.0351e-05
1.0351e-05
1.0351e-05
1.0351e-05
1.0351e-05
1.0351e-05
1.0351e-05
1.0351e-05
1.0351e-05
1.0351e-05
1.0351e-05
1.0351e-05
1.0351e-05
1.0351e-05
1.0351e-05
1.0351e-05
1.0351e-05
1.0351e-05
1.0351e-05
1.0351e-05
1.0351e-05
1.0351e-05
1.0351e-05
1.0351e-05
1.0351e-05
1.0351e-05
1.0351e-05
1.0351e-05
1.0351e-05
1.0351e-05
1.0351e-05
1.0351e-05
1.0351e-05
1.0351e-05
1.0351e-05
1.0351e-05
1.0351e-05
1.0351e-05
1.0351e-05
1.0351e-05
1.0351e-05
1.0351e-05
1.0351e-05
1.0351e-05
1.0351e-05
1.0351e-05
1.0351e-05
1.0351e-05
1.0351e-05
1.0351e-05
1.0351e-05
1.0351e-05
1.0351e-05
1.0351e-05
1.0351e-05
1.0351e-05
1.0351e-05
1.0351e-05
1.0351e-05
1.0351e-05
1.0351e-05
1.0351e-05
1.0351e-05
1.0351e-05
1.0351e-05
1.0351e-05
1.0351e-05
1.0351e-05
1.0351e-05
1.0351e-05
1.0351e-05
1.0351e-05
1.0351e-05
1.0351e-05
1.0351e-05
1.0351e-05
1.0351e-05
1.0351e-05
1.0351e-05
1.0351e-05
1.0351e-05
1.0351e-05
1.0351e-05
1.0351e-05
1.0351e-05
1.0351e-05
1.0351e-05
1.0351e-05
1.0351e-05
1.0351e-05
1.0351e-05
1.0351e-05
1.0351e-05
1.0351e-05
1.0351e-05
1.0351e-05
1.0351e-05
1.0351e-05
1.0351e-05
1.0351e-05
1.0351e-05
1.0351e-05
1.0351e-05
1.0351e-05
1.0351e-05
1.0351e-05
1.0351e-05
1.0351e-05
1.0351e-05
1.0351e-05
1.0351e-05
1.0351e-05
1.0351e-05
1.0351e-05
1.0351e-05
1.0351e-05
1.0351e-05
1.0351e-05
1.0351e-05
1.0351e-05
1.0351e-05
1.0351e-05
1.0351e-05
1.0351e-05
1.0351e-05
1.0351e-05
1.0351e-05
1.0351e-05
1.0351e-05
1.0351e-05
1.0351e-05
1.0351e-05
1.0351e-05
1.0351e-05
1.0351e-05
1.0351e-05
1.0351e-05
1.0351e-05
1.0351e-05
1.0351e-05
1.0351e-05
1.0351e-05
1.0351e-05
1.0351e-05
1.0351e-05
1.0351e-05
1.0351e-05
1.0351e-05
1.0351e-05
1.0351e-05
1.0351e-05
1.0351e-05
1.0351e-05
1.0351e-05
1.0351e-05
1.0351e-05
1.0351e-05
1.0351e-05
1.0351e-05
1.0351e-05
1.0351e-05
1.0351e-05
1.0351e-05
1.0351e-05
1.0351e-05
1.0351e-05
1.0351e-05
1.0351e-05
1.0351e-05
1.0351e-05
1.0351e-05
1.0351e-05
1.0351e-05
1.0351e-05
1.0351e-05
1.0351e-05
1.0351e-05
1.0351e-05
1.0351e-05
1.0351e-05
1.0351e-05
1.0351e-05
1.0351e-05
1.0351e-05
1.0351e-05
1.0351e-05
1.0351e-05
1.0351e-05
1.0351e-05
1.0351e-05
1.0351e-05
1.0351e-05
1.0351e-05
1.0351e-05
1.0351e-05
1.0351e-05
1.0351e-05
1.0351e-05
1.0351e-05
1.0351e-05
1.0351e-05
1.0351e-05
1.0351e-05
1.0351e-05
1.0351e-05
1.0351e-05
1.0351e-05
1.0351e-05
1.0351e-05
1.0351e-05
1.0351e-05
1.0351e-05
1.0351e-05
1.0351e-05
1.0351e-05
1.0351e-05
1.0351e-05
1.0351e-05
1.0351e-05
1.0351e-05
1.0351e-05
1.0351e-05
1.0351e-05
1.0351e-05
1.0351e-05
1.0351e-05
1.0351e-05
1.0351e-05
1.0351e-05
1.0351e-05
1.0351e-05
1.0351e-05
1.0351e-05
1.0351e-05
1.0351e-05
1.0351e-05
1.0351e-05
1.0351e-05
1.0351e-05
1.0351e-05
1.0351e-05
1.0351e-05
1.0351e-05
1.0351e-05
1.0351e-05
1.0351e-05
1.0351e-05
1.0351e-05
1.0351e-05
1.0351e-05
1.0351e-05
1.0351e-05
1.0351e-05
1.0351e-05
1.0351e-05
1.0351e-05
1.0351e-05
1.0351e-05
1.0351e-05
1.0351e-05
1.0351e-05
1.0351e-05
1.0351e-05
1.0351e-05
1.0351e-05
1.0351e-05
1.0351e-05
1.0351e-05
1.0351e-05
1.0351e-05
1.0351e-05
1.0351e-05
1.0351e-05
1.0351e-05
1.0351e-05
1.0351e-05
1.0351e-05
1.0351e-05
1.0351e-05
1.0351e-05
1.0351e-05
1.0351e-05
1.0351e-05
1.0351e-05
1.0351e-05
1.0351e-05
1.0351e-05
1.0351e-05
1.0351e-05
1.0351e-05
1.0351e-05
1.0351e-05
1.0351e-05
1.0351e-05
1.0351e-05
1.0351e-05
1.0351e-05
1.0351e-05
1.0351e-05
1.0351e-05
1.0351e-05
1.0351e-05
1.0351e-05
1.0351e-05
1.0351e-05
1.0351e-05
1.0351e-05
1.0351e-05
1.0351e-05
1.0351e-05
1.0351e-05
1.0351e-05
1.0351e-05
1.0351e-05
1.0351e-05
1.0351e-05
1.0351e-05
1.0351e-05
1.0351e-05
1.0351e-05
1.0351e-05
1.0351e-05
1.0351e-05
1.0351e-05
1.0351e-05
1.0351e-05
1.0351e-05
1.0351e-05
1.0351e-05
1.0351e-05
1.0351e-05
1.0351e-05
1.0351e-05
1.0351e-05
1.0351e-05
1.0351e-05
1.0351e-05
1.0351e-05
1.0351e-05
1.0351e-05
1.0351e-05
1.0351e-05
1.0351e-05
1.0351e-05
1.0351e-05
1.0351e-05
1.0351e-05
1.0351e-05
1.0351e-05
1.0351e-05
1.0351e-05
1.0351e-05
1.0351e-05
1.0351e-05
1.0351e-05
1.0351e-05
1.0351e-05
1.0351e-05
1.0351e-05
1.0351e-05
1.0351e-05
1.0351e-05
1.0351e-05
1.0351e-05
1.0351e-05
1.0351e-05
1.0351e-05
1.0351e-05
1.0351e-05
1.0351e-05
1.0351e-05
1.0351e-05
1.0351e-05
1.0351e-05
1.0351e-05
1.0351e-05
1.0351e-05
1.0351e-05
1.0351e-05
1.0351e-05
1.0351e-05
1.0351e-05
1.0351e-05
1.0351e-05
1.0351e-05
1.0351e-05
1.0351e-05
1.0351e-05
1.0351e-05
1.0351e-05
1.0351e-05
1.0351e-05
1.0351e-05
1.0351e-05
1.0351e-05
1.0351e-05
1.0351e-05
1.0351e-05
1.0351e-05
1.0351e-05
1.0351e-05
1.0351e-05
1.0351e-05
1.0351e-05
1.0351e-05
1.0351e-05
1.0351e-05
1.0351e-05
1.0351e-05
1.0351e-05
1.0351e-05
1.0351e-05
1.0351e-05
1.0351e-05
1.0351e-05
1.0351e-05
1.0351e-05
1.0351e-05
1.0351e-05
1.0351e-05
1.0351e-05
1.0351e-05
1.0351e-05
1.03511e-05
1.03511e-05
1.03511e-05
1.03511e-05
1.03511e-05
1.03511e-05
1.03511e-05
1.03511e-05
1.03511e-05
1.03511e-05
1.03511e-05
1.03511e-05
1.03511e-05
1.03511e-05
1.03511e-05
1.03511e-05
1.03511e-05
1.0351e-05
1.0351e-05
1.0351e-05
1.0351e-05
1.0351e-05
1.0351e-05
1.0351e-05
1.0351e-05
1.0351e-05
1.0351e-05
1.0351e-05
1.0351e-05
1.0351e-05
1.0351e-05
1.0351e-05
1.0351e-05
1.0351e-05
1.0351e-05
1.0351e-05
1.0351e-05
1.0351e-05
1.0351e-05
1.0351e-05
1.0351e-05
1.0351e-05
1.0351e-05
1.0351e-05
1.0351e-05
1.0351e-05
1.0351e-05
1.0351e-05
1.0351e-05
1.0351e-05
1.0351e-05
1.0351e-05
1.0351e-05
1.0351e-05
1.0351e-05
1.0351e-05
1.0351e-05
1.0351e-05
1.0351e-05
1.0351e-05
1.0351e-05
1.0351e-05
1.0351e-05
1.0351e-05
1.0351e-05
1.0351e-05
1.0351e-05
1.0351e-05
1.0351e-05
1.0351e-05
1.0351e-05
1.0351e-05
1.0351e-05
1.0351e-05
1.0351e-05
1.0351e-05
1.0351e-05
1.0351e-05
1.0351e-05
1.0351e-05
1.0351e-05
1.0351e-05
1.0351e-05
1.0351e-05
1.0351e-05
1.0351e-05
1.0351e-05
1.0351e-05
1.0351e-05
1.03511e-05
1.03511e-05
1.03511e-05
1.03511e-05
1.03511e-05
1.03511e-05
1.03511e-05
1.03511e-05
1.03511e-05
1.03511e-05
1.03512e-05
1.03512e-05
1.03512e-05
1.03512e-05
1.03512e-05
1.03512e-05
1.03513e-05
1.03513e-05
1.03513e-05
1.03513e-05
1.03513e-05
1.03514e-05
1.03514e-05
1.03514e-05
1.03514e-05
1.03514e-05
1.03514e-05
1.03514e-05
1.03515e-05
1.03515e-05
1.03515e-05
1.03515e-05
1.03514e-05
1.03514e-05
1.03514e-05
1.03514e-05
1.03514e-05
1.03514e-05
1.03514e-05
1.03513e-05
1.03513e-05
1.03513e-05
1.03513e-05
1.03513e-05
1.03512e-05
1.03512e-05
1.03512e-05
1.03512e-05
1.03511e-05
1.03511e-05
1.03511e-05
1.03511e-05
1.03511e-05
1.03511e-05
1.03511e-05
1.0351e-05
1.0351e-05
1.0351e-05
1.0351e-05
1.0351e-05
1.0351e-05
1.0351e-05
1.0351e-05
1.0351e-05
1.0351e-05
1.0351e-05
1.0351e-05
1.0351e-05
1.0351e-05
1.0351e-05
1.0351e-05
1.0351e-05
1.0351e-05
1.0351e-05
1.0351e-05
1.0351e-05
1.0351e-05
1.0351e-05
1.0351e-05
1.0351e-05
1.0351e-05
1.0351e-05
1.0351e-05
1.0351e-05
1.0351e-05
1.0351e-05
1.0351e-05
1.0351e-05
1.0351e-05
1.0351e-05
1.0351e-05
1.0351e-05
1.0351e-05
1.0351e-05
1.0351e-05
1.0351e-05
1.0351e-05
1.03511e-05
1.03511e-05
1.03511e-05
1.03511e-05
1.03511e-05
1.03511e-05
1.03511e-05
1.03511e-05
1.03511e-05
1.03512e-05
1.03512e-05
1.03512e-05
1.03512e-05
1.03513e-05
1.03513e-05
1.03514e-05
1.03514e-05
1.03515e-05
1.03515e-05
1.03516e-05
1.03516e-05
1.03517e-05
1.03518e-05
1.03519e-05
1.0352e-05
1.03521e-05
1.03522e-05
1.03523e-05
1.03524e-05
1.03525e-05
1.03527e-05
1.03528e-05
1.0353e-05
1.03531e-05
1.03533e-05
1.03535e-05
1.03536e-05
1.03537e-05
1.03539e-05
1.0354e-05
1.03541e-05
1.03542e-05
1.03543e-05
1.03543e-05
1.03544e-05
1.03544e-05
1.03544e-05
1.03544e-05
1.03543e-05
1.03543e-05
1.03542e-05
1.03541e-05
1.0354e-05
1.03539e-05
1.03537e-05
1.03536e-05
1.03534e-05
1.03533e-05
1.03531e-05
1.03529e-05
1.03527e-05
1.03526e-05
1.03524e-05
1.03522e-05
1.03521e-05
1.03519e-05
1.03518e-05
1.03517e-05
1.03516e-05
1.03515e-05
1.03514e-05
1.03513e-05
1.03513e-05
1.03512e-05
1.03512e-05
1.03511e-05
1.03511e-05
1.03511e-05
1.03511e-05
1.0351e-05
1.0351e-05
1.0351e-05
1.0351e-05
1.0351e-05
1.0351e-05
1.0351e-05
1.0351e-05
1.0351e-05
1.0351e-05
1.0351e-05
1.0351e-05
1.0351e-05
1.0351e-05
1.0351e-05
1.0351e-05
1.0351e-05
1.0351e-05
1.0351e-05
1.0351e-05
1.0351e-05
1.0351e-05
1.03511e-05
1.03511e-05
1.03511e-05
1.03511e-05
1.03511e-05
1.03511e-05
1.03511e-05
1.03511e-05
1.03512e-05
1.03512e-05
1.03512e-05
1.03512e-05
1.03513e-05
1.03513e-05
1.03514e-05
1.03514e-05
1.03515e-05
1.03515e-05
1.03516e-05
1.03517e-05
1.03518e-05
1.03519e-05
1.03521e-05
1.03522e-05
1.03524e-05
1.03526e-05
1.03528e-05
1.0353e-05
1.03533e-05
1.03536e-05
1.0354e-05
1.03544e-05
1.03548e-05
1.03553e-05
1.03558e-05
1.03563e-05
1.03569e-05
1.03575e-05
1.03582e-05
1.03589e-05
1.03597e-05
1.03605e-05
1.03614e-05
1.03624e-05
1.03635e-05
1.03646e-05
1.03657e-05
1.03669e-05
1.0368e-05
1.03692e-05
1.03702e-05
1.03713e-05
1.03722e-05
1.03731e-05
1.03739e-05
1.03745e-05
1.03751e-05
1.03755e-05
1.03758e-05
1.03759e-05
1.03759e-05
1.03757e-05
1.03754e-05
1.03749e-05
1.03744e-05
1.03736e-05
1.03728e-05
1.03719e-05
1.03709e-05
1.03698e-05
1.03686e-05
1.03674e-05
1.03662e-05
1.03649e-05
1.03637e-05
1.03624e-05
1.03611e-05
1.03599e-05
1.03587e-05
1.03576e-05
1.03566e-05
1.03557e-05
1.0355e-05
1.03543e-05
1.03538e-05
1.03533e-05
1.03529e-05
1.03525e-05
1.03522e-05
1.0352e-05
1.03517e-05
1.03516e-05
1.03514e-05
1.03513e-05
1.03512e-05
1.03512e-05
1.03511e-05
1.03511e-05
1.03511e-05
1.0351e-05
1.0351e-05
1.0351e-05
1.0351e-05
1.0351e-05
1.0351e-05
1.03511e-05
1.03511e-05
1.03511e-05
1.03511e-05
1.03512e-05
1.03512e-05
1.03512e-05
1.03512e-05
1.03513e-05
1.03513e-05
1.03514e-05
1.03514e-05
1.03515e-05
1.03516e-05
1.03516e-05
1.03517e-05
1.03519e-05
1.0352e-05
1.03521e-05
1.03523e-05
1.03525e-05
1.03527e-05
1.0353e-05
1.03533e-05
1.03536e-05
1.0354e-05
1.03544e-05
1.03549e-05
1.03555e-05
1.03562e-05
1.03569e-05
1.03578e-05
1.03588e-05
1.03598e-05
1.0361e-05
1.03624e-05
1.03639e-05
1.03657e-05
1.03677e-05
1.037e-05
1.03726e-05
1.03754e-05
1.03786e-05
1.0382e-05
1.03856e-05
1.03895e-05
1.03936e-05
1.0398e-05
1.04027e-05
1.04078e-05
1.04134e-05
1.04196e-05
1.04263e-05
1.04336e-05
1.04413e-05
1.04493e-05
1.04575e-05
1.04658e-05
1.0474e-05
1.04819e-05
1.04895e-05
1.04967e-05
1.05032e-05
1.05092e-05
1.05144e-05
1.05188e-05
1.05224e-05
1.05251e-05
1.05269e-05
1.05276e-05
1.05274e-05
1.05261e-05
1.05238e-05
1.05204e-05
1.05162e-05
1.05111e-05
1.05052e-05
1.04987e-05
1.04916e-05
1.04839e-05
1.04758e-05
1.04674e-05
1.04587e-05
1.04498e-05
1.04408e-05
1.04318e-05
1.04229e-05
1.04141e-05
1.04057e-05
1.03978e-05
1.03906e-05
1.03844e-05
1.03791e-05
1.03747e-05
1.03708e-05
1.03675e-05
1.03646e-05
1.0362e-05
1.03597e-05
1.03578e-05
1.03563e-05
1.0355e-05
1.03541e-05
1.03533e-05
1.03528e-05
1.03523e-05
1.0352e-05
1.03517e-05
1.03515e-05
1.03513e-05
1.03512e-05
1.03512e-05
1.03511e-05
1.03511e-05
1.03511e-05
1.0351e-05
1.03512e-05
1.03512e-05
1.03513e-05
1.03513e-05
1.03514e-05
1.03514e-05
1.03515e-05
1.03516e-05
1.03517e-05
1.03518e-05
1.03519e-05
1.03521e-05
1.03522e-05
1.03524e-05
1.03526e-05
1.03529e-05
1.03532e-05
1.03535e-05
1.03539e-05
1.03543e-05
1.03549e-05
1.03555e-05
1.03561e-05
1.03569e-05
1.03578e-05
1.03589e-05
1.03601e-05
1.03614e-05
1.0363e-05
1.03647e-05
1.03668e-05
1.03691e-05
1.03718e-05
1.0375e-05
1.03786e-05
1.03827e-05
1.03874e-05
1.03927e-05
1.03987e-05
1.04053e-05
1.04127e-05
1.04211e-05
1.04306e-05
1.04415e-05
1.0454e-05
1.04683e-05
1.04845e-05
1.05026e-05
1.05226e-05
1.05444e-05
1.05679e-05
1.05929e-05
1.06193e-05
1.06471e-05
1.06765e-05
1.07083e-05
1.07432e-05
1.07817e-05
1.08239e-05
1.08696e-05
1.09184e-05
1.09696e-05
1.10223e-05
1.10755e-05
1.11283e-05
1.11798e-05
1.12293e-05
1.12759e-05
1.13192e-05
1.13587e-05
1.13941e-05
1.1425e-05
1.14511e-05
1.1472e-05
1.14874e-05
1.14971e-05
1.15004e-05
1.1498e-05
1.14894e-05
1.14744e-05
1.14533e-05
1.14265e-05
1.13947e-05
1.13583e-05
1.13179e-05
1.12736e-05
1.12258e-05
1.1175e-05
1.11216e-05
1.10664e-05
1.10096e-05
1.09517e-05
1.08931e-05
1.08345e-05
1.07766e-05
1.07205e-05
1.06677e-05
1.062e-05
1.05785e-05
1.05433e-05
1.05134e-05
1.04877e-05
1.04652e-05
1.0445e-05
1.04271e-05
1.04114e-05
1.03981e-05
1.03873e-05
1.03789e-05
1.03724e-05
1.03673e-05
1.03633e-05
1.03601e-05
1.03576e-05
1.03558e-05
1.03544e-05
1.03534e-05
1.03527e-05
1.03522e-05
1.03518e-05
1.03516e-05
1.03514e-05
1.03512e-05
1.03523e-05
1.03526e-05
1.03528e-05
1.03531e-05
1.03535e-05
1.03539e-05
1.03544e-05
1.03549e-05
1.03556e-05
1.03563e-05
1.03572e-05
1.03581e-05
1.03593e-05
1.03606e-05
1.03621e-05
1.03639e-05
1.03659e-05
1.03681e-05
1.03707e-05
1.03738e-05
1.03773e-05
1.03813e-05
1.0386e-05
1.03915e-05
1.03977e-05
1.04048e-05
1.04129e-05
1.0422e-05
1.04324e-05
1.04443e-05
1.04581e-05
1.04741e-05
1.04926e-05
1.0514e-05
1.05386e-05
1.05667e-05
1.05983e-05
1.06337e-05
1.06729e-05
1.07163e-05
1.07647e-05
1.08192e-05
1.08814e-05
1.09526e-05
1.10338e-05
1.11254e-05
1.12275e-05
1.13399e-05
1.14617e-05
1.15919e-05
1.17292e-05
1.18724e-05
1.20203e-05
1.2173e-05
1.23333e-05
1.2506e-05
1.26949e-05
1.29008e-05
1.31219e-05
1.33552e-05
1.35967e-05
1.38421e-05
1.40866e-05
1.43257e-05
1.45557e-05
1.47734e-05
1.49768e-05
1.51642e-05
1.53344e-05
1.54868e-05
1.56209e-05
1.57362e-05
1.58322e-05
1.59077e-05
1.59611e-05
1.59933e-05
1.60002e-05
1.59879e-05
1.59509e-05
1.58891e-05
1.58038e-05
1.56968e-05
1.55698e-05
1.54245e-05
1.52615e-05
1.50811e-05
1.48834e-05
1.46693e-05
1.44402e-05
1.41977e-05
1.39428e-05
1.36759e-05
1.33983e-05
1.31118e-05
1.282e-05
1.25284e-05
1.22453e-05
1.19833e-05
1.17522e-05
1.15532e-05
1.13809e-05
1.12286e-05
1.10912e-05
1.09657e-05
1.08515e-05
1.07499e-05
1.06632e-05
1.05929e-05
1.0538e-05
1.04953e-05
1.04617e-05
1.04348e-05
1.04133e-05
1.03964e-05
1.03838e-05
1.03745e-05
1.03678e-05
1.03628e-05
1.03593e-05
1.03567e-05
1.03549e-05
1.03536e-05
1.03527e-05
1.03598e-05
1.03613e-05
1.03631e-05
1.03652e-05
1.03676e-05
1.03703e-05
1.03735e-05
1.03771e-05
1.03814e-05
1.03863e-05
1.0392e-05
1.03985e-05
1.04061e-05
1.04149e-05
1.04249e-05
1.04363e-05
1.04493e-05
1.04642e-05
1.04814e-05
1.05013e-05
1.05244e-05
1.05511e-05
1.05819e-05
1.06172e-05
1.06575e-05
1.07031e-05
1.07545e-05
1.08122e-05
1.08775e-05
1.09521e-05
1.10378e-05
1.11366e-05
1.12499e-05
1.1379e-05
1.15245e-05
1.16868e-05
1.18657e-05
1.20606e-05
1.2271e-05
1.24978e-05
1.27449e-05
1.30195e-05
1.33271e-05
1.36701e-05
1.4048e-05
1.44578e-05
1.48952e-05
1.53545e-05
1.58294e-05
1.63135e-05
1.68005e-05
1.72858e-05
1.7766e-05
1.8244e-05
1.87334e-05
1.92541e-05
1.98094e-05
2.03905e-05
2.09851e-05
2.15814e-05
2.21692e-05
2.27389e-05
2.32815e-05
2.37901e-05
2.42595e-05
2.4688e-05
2.50761e-05
2.54242e-05
2.57329e-05
2.60034e-05
2.62369e-05
2.6434e-05
2.6595e-05
2.67186e-05
2.6799e-05
2.68421e-05
2.68432e-05
2.68124e-05
2.67325e-05
2.66078e-05
2.64415e-05
2.62366e-05
2.59946e-05
2.57167e-05
2.54025e-05
2.50495e-05
2.46554e-05
2.42191e-05
2.37408e-05
2.32205e-05
2.2656e-05
2.20429e-05
2.13781e-05
2.06596e-05
1.98894e-05
1.90768e-05
1.82421e-05
1.7429e-05
1.66823e-05
1.60063e-05
1.53832e-05
1.47941e-05
1.42257e-05
1.36726e-05
1.31373e-05
1.26327e-05
1.21814e-05
1.18032e-05
1.14992e-05
1.12559e-05
1.10573e-05
1.08923e-05
1.07565e-05
1.06488e-05
1.05672e-05
1.05073e-05
1.04633e-05
1.04308e-05
1.04068e-05
1.03895e-05
1.03773e-05
1.03688e-05
1.03629e-05
1.04084e-05
1.04183e-05
1.04298e-05
1.0443e-05
1.04582e-05
1.04757e-05
1.04959e-05
1.05192e-05
1.05462e-05
1.05774e-05
1.06135e-05
1.06551e-05
1.07027e-05
1.07571e-05
1.08186e-05
1.08882e-05
1.09668e-05
1.10563e-05
1.11586e-05
1.12759e-05
1.141e-05
1.15627e-05
1.17353e-05
1.19288e-05
1.21436e-05
1.23799e-05
1.2638e-05
1.29194e-05
1.32295e-05
1.35752e-05
1.39618e-05
1.43921e-05
1.48658e-05
1.53809e-05
1.59335e-05
1.65183e-05
1.71292e-05
1.77594e-05
1.84039e-05
1.90647e-05
1.97574e-05
2.05016e-05
2.13e-05
2.21433e-05
2.30179e-05
2.39097e-05
2.48052e-05
2.5692e-05
2.65585e-05
2.73951e-05
2.81958e-05
2.89575e-05
2.96808e-05
3.03744e-05
3.10776e-05
3.18578e-05
3.2682e-05
3.35099e-05
3.43128e-05
3.50739e-05
3.57834e-05
3.64344e-05
3.70216e-05
3.75432e-05
3.79991e-05
3.83948e-05
3.87389e-05
3.90356e-05
3.92874e-05
3.94972e-05
3.96689e-05
3.9804e-05
3.99047e-05
3.99731e-05
3.99878e-05
3.99734e-05
3.99354e-05
3.98633e-05
3.97526e-05
3.95967e-05
3.94034e-05
3.91864e-05
3.89417e-05
3.86669e-05
3.83613e-05
3.80174e-05
3.76317e-05
3.71986e-05
3.67133e-05
3.61738e-05
3.55716e-05
3.48897e-05
3.41159e-05
3.32374e-05
3.22398e-05
3.11234e-05
2.98996e-05
2.86398e-05
2.74785e-05
2.63855e-05
2.5306e-05
2.42001e-05
2.30427e-05
2.18183e-05
2.05262e-05
1.91932e-05
1.7893e-05
1.67213e-05
1.57054e-05
1.4817e-05
1.40181e-05
1.32891e-05
1.26362e-05
1.20841e-05
1.16465e-05
1.13121e-05
1.10569e-05
1.08607e-05
1.07115e-05
1.06018e-05
1.05237e-05
1.04689e-05
1.04305e-05
1.04039e-05
1.03857e-05
1.07091e-05
1.07692e-05
1.08382e-05
1.09169e-05
1.10064e-05
1.11081e-05
1.12239e-05
1.13561e-05
1.1507e-05
1.16786e-05
1.18726e-05
1.20905e-05
1.23333e-05
1.26015e-05
1.28955e-05
1.32164e-05
1.35675e-05
1.39547e-05
1.43834e-05
1.48568e-05
1.53758e-05
1.59392e-05
1.65443e-05
1.7187e-05
1.78623e-05
1.85644e-05
1.92888e-05
2.00389e-05
2.08306e-05
2.1677e-05
2.25769e-05
2.35209e-05
2.44972e-05
2.54936e-05
2.64982e-05
2.74993e-05
2.84859e-05
2.94484e-05
3.03822e-05
3.12941e-05
3.22325e-05
3.32549e-05
3.43266e-05
3.54074e-05
3.64657e-05
3.74798e-05
3.8435e-05
3.93213e-05
4.01318e-05
4.08637e-05
4.15203e-05
4.21074e-05
4.26324e-05
4.31003e-05
4.35132e-05
4.38696e-05
4.41766e-05
4.44375e-05
4.46546e-05
4.48327e-05
4.49751e-05
4.50831e-05
4.51571e-05
4.52031e-05
4.52208e-05
4.52172e-05
4.5208e-05
4.51912e-05
4.51672e-05
4.5133e-05
4.50868e-05
4.50311e-05
4.49671e-05
4.48928e-05
4.48044e-05
4.47048e-05
4.45905e-05
4.44644e-05
4.43359e-05
4.41948e-05
4.40512e-05
4.3893e-05
4.37207e-05
4.35465e-05
4.33603e-05
4.3161e-05
4.29568e-05
4.27434e-05
4.25203e-05
4.22829e-05
4.20287e-05
4.17501e-05
4.14506e-05
4.11162e-05
4.07368e-05
4.03218e-05
3.98689e-05
3.93679e-05
3.88018e-05
3.81384e-05
3.73546e-05
3.64358e-05
3.53613e-05
3.40933e-05
3.25971e-05
3.08677e-05
2.89891e-05
2.72234e-05
2.55914e-05
2.40143e-05
2.24165e-05
2.07653e-05
1.90923e-05
1.75141e-05
1.6135e-05
1.49661e-05
1.39676e-05
1.3108e-05
1.23886e-05
1.18214e-05
1.13959e-05
1.10831e-05
1.08545e-05
1.06906e-05
1.05766e-05
1.23278e-05
1.26186e-05
1.29407e-05
1.32943e-05
1.36805e-05
1.41025e-05
1.45654e-05
1.50729e-05
1.5627e-05
1.62274e-05
1.68721e-05
1.75578e-05
1.82799e-05
1.90333e-05
1.98124e-05
2.06168e-05
2.14546e-05
2.2338e-05
2.32683e-05
2.42388e-05
2.52398e-05
2.62612e-05
2.7293e-05
2.83258e-05
2.93505e-05
3.03584e-05
3.13449e-05
3.23167e-05
3.33321e-05
3.44149e-05
3.55328e-05
3.66527e-05
3.77489e-05
3.88026e-05
3.98001e-05
4.07317e-05
4.159e-05
4.2371e-05
4.30772e-05
4.37127e-05
4.42799e-05
4.4779e-05
4.52194e-05
4.56074e-05
4.59477e-05
4.62436e-05
4.6496e-05
4.67076e-05
4.68765e-05
4.7004e-05
4.71041e-05
4.71862e-05
4.72552e-05
4.73144e-05
4.73614e-05
4.73965e-05
4.7424e-05
4.7442e-05
4.74439e-05
4.74392e-05
4.74256e-05
4.73985e-05
4.73574e-05
4.73018e-05
4.72303e-05
4.71445e-05
4.70479e-05
4.69498e-05
4.68558e-05
4.67518e-05
4.66368e-05
4.65268e-05
4.64163e-05
4.62974e-05
4.61763e-05
4.60505e-05
4.59172e-05
4.57847e-05
4.56462e-05
4.5496e-05
4.53586e-05
4.52228e-05
4.5088e-05
4.49402e-05
4.47619e-05
4.45911e-05
4.44309e-05
4.42745e-05
4.41168e-05
4.39313e-05
4.37488e-05
4.35725e-05
4.33818e-05
4.3156e-05
4.29317e-05
4.2716e-05
4.2504e-05
4.23043e-05
4.20673e-05
4.17917e-05
4.1481e-05
4.11463e-05
4.07838e-05
4.03703e-05
3.98854e-05
3.93196e-05
3.86593e-05
3.78943e-05
3.69698e-05
3.58156e-05
3.43702e-05
3.25901e-05
3.04688e-05
2.82182e-05
2.61003e-05
2.41092e-05
2.21613e-05
2.02132e-05
1.83301e-05
1.66489e-05
1.52268e-05
1.40397e-05
1.30554e-05
1.22699e-05
1.16791e-05
1.73724e-05
1.81396e-05
1.89467e-05
1.97875e-05
2.06563e-05
2.15516e-05
2.24802e-05
2.34488e-05
2.44552e-05
2.54911e-05
2.65469e-05
2.76128e-05
2.86798e-05
2.97401e-05
3.07861e-05
3.18119e-05
3.28184e-05
3.38346e-05
3.49033e-05
3.60041e-05
3.71105e-05
3.81997e-05
3.92538e-05
4.02595e-05
4.12076e-05
4.20909e-05
4.2904e-05
4.36454e-05
4.43164e-05
4.49154e-05
4.54463e-05
4.59187e-05
4.63397e-05
4.67144e-05
4.70457e-05
4.73353e-05
4.75853e-05
4.77932e-05
4.796e-05
4.80967e-05
4.82146e-05
4.83202e-05
4.84146e-05
4.84998e-05
4.8576e-05
4.86443e-05
4.87045e-05
4.87541e-05
4.87929e-05
4.88176e-05
4.88152e-05
4.87995e-05
4.87716e-05