/*--------------------------------*- C++ -*----------------------------------*\
| =========                 |                                                 |
| \\      /  F ield         | OpenFOAM: The Open Source CFD Toolbox           |
|  \\    /   O peration     | Version:  v1706                                 |
|   \\  /    A nd           | Web:      www.OpenFOAM.com                      |
|    \\/     M anipulation  |                                                 |
\*---------------------------------------------------------------------------*/
FoamFile
{
    version     2.0;
    format      ascii;
    class       volScalarField;
    location    "1.2e-05";
    object      p;
}
// * * * * * * * * * * * * * * * * * * * * * * * * * * * * * * * * * * * * * //

dimensions      [1 -1 -2 0 0 0 0];


internalField   nonuniform List<scalar> 
29871
(
21.9139
21.9139
21.9139
21.9139
21.9139
21.9139
21.9139
21.9139
21.9139
21.9139
21.9139
21.9139
21.9139
21.9139
21.9139
21.9139
21.9139
21.9139
21.9139
21.9139
21.9139
21.9139
21.9139
21.9139
21.9139
21.9139
21.9139
21.9139
21.9139
21.9139
21.9139
21.9139
21.9139
21.9139
21.9139
21.9139
21.9139
21.9139
21.9139
21.9139
21.9139
21.9139
21.9139
21.9139
21.9139
21.9139
21.9139
21.9139
21.9139
21.9139
21.9139
21.9139
21.9139
21.9139
21.9139
21.9139
21.9139
21.9139
21.9139
21.9139
21.9139
21.9139
21.9139
21.9139
21.9139
21.9139
21.9139
21.9139
21.9139
21.9139
21.9139
21.9139
21.9139
21.9139
21.9139
21.9139
21.9139
21.9139
21.9139
21.9139
21.9139
21.9139
21.9139
21.9139
21.9139
21.9139
21.9139
21.9139
21.9139
21.9139
21.9139
21.9139
21.9139
21.9139
21.9139
21.9139
21.9139
21.9139
21.9139
21.9139
21.9139
21.9139
21.9139
21.9139
21.9139
21.9139
21.9139
21.9139
21.9139
21.9139
21.9139
21.9139
21.9139
21.9139
21.9139
21.9139
21.9139
21.9139
21.9139
21.9139
21.9139
21.9139
21.9139
21.9139
21.9139
21.9139
21.9139
21.9139
21.9139
21.9139
21.9139
21.9139
21.9139
21.9139
21.9139
21.9139
21.9139
21.9139
21.9139
21.9139
21.9139
21.9139
21.9139
21.9139
21.9139
21.9139
21.9139
21.9139
21.9139
21.9139
21.9139
21.9139
21.9139
21.9139
21.9139
21.9139
21.9139
21.9139
21.9139
21.9139
21.9139
21.9139
21.9139
21.9139
21.9139
21.9139
21.9139
21.9139
21.9139
21.9139
21.9139
21.9139
21.9139
21.9139
21.9139
21.9139
21.9139
21.9139
21.9139
21.9139
21.9139
21.9139
21.9139
21.9139
21.9139
21.9139
21.9139
21.9139
21.9139
21.9139
21.9139
21.9139
21.9139
21.9139
21.9139
21.9139
21.9139
21.9139
21.9139
21.9139
21.9139
21.9139
21.9139
21.9139
21.9139
21.9139
21.9139
21.9139
21.9139
21.9139
21.9139
21.9139
21.9139
21.9139
21.9139
21.9139
21.9139
21.9139
21.9139
21.9139
21.9139
21.9139
21.9139
21.9139
21.9139
21.9139
21.9139
21.9139
21.9139
21.9139
21.9139
21.9139
21.9139
21.9139
21.9139
21.9139
21.9139
21.9139
21.9139
21.9139
21.9139
21.9139
21.9139
21.9139
21.9139
21.9139
21.9139
21.9139
21.9139
21.9139
21.9139
21.9139
21.9139
21.9139
21.9139
21.9139
21.9139
21.9139
21.9139
21.9139
21.9139
21.9139
21.9139
21.9139
21.9139
21.9139
21.9139
21.9139
21.9139
21.9139
21.9139
21.9139
21.9139
21.9139
21.9139
21.9139
21.9139
21.9139
21.9139
21.9139
21.9139
21.9139
21.9139
21.9139
21.9139
21.9139
21.9139
21.9139
21.9139
21.9139
21.9139
21.9139
21.9139
21.9139
21.9139
21.9139
21.9139
21.9139
21.9139
21.9139
21.9139
21.9139
21.9139
21.9139
21.9139
21.9139
21.9139
21.9139
21.9139
21.9139
21.9139
21.9139
21.9139
21.9139
21.9139
21.9139
21.9139
21.9139
21.9139
21.9139
21.9139
21.9139
21.9139
21.9139
21.9139
21.9139
21.9139
21.9139
21.9139
21.9139
21.9139
21.9139
21.9139
21.9139
21.9139
21.9139
21.9139
21.9139
21.9139
21.9139
21.9139
21.9139
21.9139
21.9139
21.9139
21.9139
21.9139
21.9139
21.9139
21.9139
21.9139
21.9139
21.9139
21.9139
21.9139
21.9139
21.9139
21.9139
21.9139
21.9139
21.9139
21.9139
21.9139
21.9139
21.9139
21.9139
21.9139
21.9139
21.9139
21.9139
21.9139
21.9139
21.9139
21.9139
21.9139
21.9139
21.9139
21.9139
21.9139
21.9139
21.9139
21.9139
21.9139
21.9139
21.9139
21.9139
21.9139
21.9139
21.9139
21.9139
21.9139
21.9139
21.9139
21.9139
21.9139
21.9139
21.9139
21.9139
21.9139
21.9139
21.9139
21.9139
21.9139
21.9139
21.9139
21.9139
21.9139
21.9139
21.9139
21.9139
21.9139
21.9139
21.9139
21.9139
21.9139
21.9139
21.9139
21.9139
21.9139
21.9139
21.9139
21.9139
21.9139
21.9139
21.9139
21.9139
21.9139
21.9139
21.9139
21.9139
21.9139
21.9139
21.9139
21.9139
21.9139
21.9139
21.9139
21.9139
21.9139
21.9139
21.9139
21.9139
21.9139
21.9139
21.9139
21.9139
21.9139
21.9139
21.9139
21.9139
21.9139
21.9139
21.9139
21.9139
21.9139
21.9139
21.9139
21.9139
21.9139
21.9139
21.9139
21.9139
21.9139
21.9139
21.9139
21.9139
21.9139
21.9139
21.9139
21.9139
21.9139
21.9139
21.9139
21.9139
21.9139
21.9139
21.9139
21.9139
21.9139
21.9139
21.9139
21.9139
21.9139
21.9139
21.9139
21.9139
21.9139
21.9139
21.9139
21.9139
21.9139
21.9139
21.9139
21.9139
21.9139
21.9139
21.9139
21.9139
21.9139
21.9139
21.9139
21.9139
21.9139
21.9139
21.9139
21.9139
21.9139
21.9139
21.9139
21.9139
21.9139
21.9139
21.9139
21.9139
21.9139
21.9139
21.9139
21.9139
21.9139
21.9139
21.9139
21.9139
21.9139
21.9139
21.9139
21.9139
21.9139
21.9139
21.9139
21.9139
21.9139
21.9139
21.9139
21.9139
21.9139
21.9139
21.9139
21.9139
21.9139
21.9139
21.9139
21.9139
21.9139
21.9139
21.9139
21.9139
21.9139
21.9139
21.9139
21.9139
21.9139
21.9139
21.9139
21.9139
21.9139
21.9139
21.9139
21.9139
21.9139
21.9139
21.9139
21.9139
21.9139
21.9139
21.9139
21.9139
21.9139
21.9139
21.9139
21.9139
21.9139
21.9139
21.9139
21.9139
21.9139
21.9139
21.9139
21.9139
21.9139
21.9139
21.9139
21.9139
21.9139
21.9139
21.9139
21.9139
21.9139
21.9139
21.9139
21.9139
21.9139
21.9139
21.9139
21.9139
21.9139
21.9139
21.9139
21.9139
21.9139
21.9139
21.9139
21.9139
21.9139
21.9139
21.9139
21.9139
21.9139
21.9139
21.9139
21.9139
21.9139
21.9139
21.9139
21.9139
21.9139
21.9139
21.9139
21.9139
21.9139
21.9139
21.9139
21.9139
21.9139
21.9139
21.9139
21.9139
21.9139
21.9139
21.9139
21.9139
21.9139
21.9139
21.9139
21.9139
21.9139
21.9139
21.9139
21.9139
21.9139
21.9139
21.9139
21.9139
21.9139
21.9139
21.9139
21.9139
21.9139
21.9139
21.9139
21.9139
21.9139
21.9139
21.9139
21.9139
21.9139
21.9139
21.9139
21.9139
21.9139
21.9139
21.9139
21.9139
21.9139
21.9139
21.9139
21.9139
21.9139
21.9139
21.9139
21.9139
21.9139
21.9139
21.9139
21.9139
21.9139
21.9139
21.9139
21.9139
21.9139
21.9139
21.9139
21.9139
21.9139
21.9139
21.9139
21.9139
21.9139
21.9139
21.9139
21.9139
21.9139
21.9139
21.9139
21.9139
21.9139
21.9139
21.9139
21.9139
21.9139
21.9139
21.9139
21.9139
21.9139
21.9139
21.9139
21.9139
21.9139
21.9139
21.9139
21.9139
21.9139
21.9139
21.9139
21.9139
21.9139
21.9139
21.9139
21.9139
21.9139
21.9139
21.9139
21.9139
21.9139
21.9139
21.9139
21.9139
21.9139
21.9139
21.9139
21.9139
21.9139
21.9139
21.9139
21.9139
21.9139
21.9139
21.9139
21.9139
21.9139
21.9139
21.9139
21.9139
21.9139
21.9139
21.9139
21.9139
21.9139
21.9139
21.9139
21.9139
21.9139
21.9139
21.9139
21.9139
21.9139
21.9139
21.9139
21.9139
21.9139
21.9139
21.9139
21.9139
21.9139
21.9139
21.9139
21.9139
21.9139
21.9139
21.9139
21.9139
21.9139
21.9139
21.9139
21.9139
21.9139
21.9139
21.9139
21.9139
21.9139
21.9139
21.9139
21.9139
21.9139
21.9139
21.9139
21.9139
21.9139
21.9139
21.9139
21.9139
21.9139
21.9139
21.9139
21.9139
21.9139
21.9139
21.9139
21.9139
21.9139
21.9139
21.9139
21.9139
21.9139
21.9139
21.9139
21.9139
21.9139
21.9139
21.9139
21.9139
21.9139
21.9139
21.9139
21.9139
21.9139
21.9139
21.9139
21.9139
21.9139
21.9139
21.9139
21.9139
21.9139
21.9139
21.9139
21.9139
21.9139
21.9139
21.9139
21.9139
21.9139
21.9139
21.9139
21.9139
21.9139
21.9139
21.9139
21.9139
21.9139
21.9139
21.9139
21.9139
21.9139
21.9139
21.9139
21.9139
21.9139
21.9139
21.9139
21.9139
21.9139
21.9139
21.9139
21.9139
21.9139
21.9139
21.9139
21.9139
21.9139
21.9139
21.9139
21.9139
21.9139
21.9139
21.9139
21.9139
21.9139
21.9139
21.9139
21.9139
21.9139
21.9139
21.9139
21.9139
21.9139
21.9139
21.9139
21.9139
21.9139
21.9139
21.9139
21.9139
21.9139
21.9139
21.9139
21.9139
21.9139
21.9139
21.9139
21.9139
21.9139
21.9139
21.9139
21.9139
21.9139
21.9139
21.9139
21.9139
21.9139
21.9139
21.9139
21.9139
21.9139
21.9139
21.9139
21.9139
21.9139
21.9139
21.9139
21.9139
21.9139
21.9139
21.9139
21.9139
21.9139
21.9139
21.9139
21.9139
21.9139
21.9139
21.9139
21.9139
21.9139
21.9139
21.9139
21.9139
21.9139
21.9139
21.9139
21.9139
21.9139
21.9139
21.9139
21.9139
21.9139
21.9139
21.9139
21.9139
21.9139
21.9139
21.9139
21.9139
21.9139
21.9139
21.9139
21.9139
21.9139
21.9139
21.9139
21.9139
21.9139
21.9139
21.9139
21.9139
21.9139
21.9139
21.9139
21.9139
21.9139
21.9139
21.9139
21.9139
21.9139
21.9139
21.9139
21.9139
21.9139
21.9139
21.9139
21.9139
21.9139
21.9139
21.9139
21.9139
21.9139
21.9139
21.9139
21.9139
21.9139
21.9139
21.9139
21.9139
21.9139
21.9139
21.9139
21.9139
21.9139
21.9139
21.9139
21.9139
21.9139
21.9139
21.9139
21.9139
21.9139
21.9139
21.9139
21.9139
21.9139
21.9139
21.9139
21.9139
21.9139
21.9139
21.9139
21.9139
21.9139
21.9139
21.9139
21.9139
21.9139
21.9139
21.9139
21.9139
21.9139
21.9139
21.9139
21.9139
21.9139
21.9139
21.9139
21.9139
21.9139
21.9139
21.9139
21.9139
21.9139
21.9139
21.9139
21.9139
21.9139
21.9139
21.9139
21.9139
21.9139
21.9139
21.9139
21.9139
21.9139
21.9139
21.9139
21.9139
21.9139
21.9139
21.9139
21.9139
21.9139
21.9139
21.9139
21.9139
21.9139
21.9139
21.9139
21.9139
21.9139
21.9139
21.9139
21.9139
21.9139
21.9139
21.9139
21.9139
21.9139
21.9139
21.9139
21.9139
21.9139
21.9139
21.9139
21.9139
21.9139
21.9139
21.9139
21.9139
21.9139
21.9139
21.9139
21.9139
21.9139
21.9139
21.9139
21.9139
21.9139
21.9139
21.9139
21.9139
21.9139
21.9139
21.9139
21.9139
21.9139
21.9139
21.9139
21.9139
21.9139
21.9139
21.9139
21.9139
21.9139
21.9139
21.9139
21.9139
21.9139
21.9139
21.9139
21.9139
21.9139
21.9139
21.9139
21.9139
21.9139
21.9139
21.9139
21.9139
21.9139
21.9139
21.9139
21.9139
21.9139
21.9139
21.9139
21.9139
21.9139
21.9139
21.9139
21.9139
21.9139
21.9139
21.9139
21.9139
21.9139
21.9139
21.9139
21.9139
21.9139
21.9139
21.9139
21.9139
21.9139
21.9139
21.9139
21.9139
21.9139
21.9139
21.9139
21.9139
21.9139
21.9139
21.9139
21.9139
21.9139
21.9139
21.9139
21.9139
21.9139
21.9139
21.9139
21.9139
21.9139
21.9139
21.9139
21.9139
21.9139
21.9139
21.9139
21.9139
21.9139
21.9139
21.9139
21.9139
21.9139
21.9139
21.9139
21.9139
21.9139
21.9139
21.9139
21.9139
21.9139
21.9139
21.9139
21.9139
21.9139
21.9139
21.9139
21.9139
21.9139
21.9139
21.9139
21.9139
21.9139
21.9139
21.9139
21.9139
21.9139
21.9139
21.9139
21.9139
21.9139
21.9139
21.9139
21.9139
21.9139
21.9139
21.9139
21.9139
21.9139
21.9139
21.9139
21.9139
21.9139
21.9139
21.9139
21.9139
21.9139
21.9139
21.9139
21.9139
21.9139
21.9139
21.9139
21.9139
21.9139
21.9139
21.9139
21.9139
21.9139
21.9139
21.9139
21.9139
21.9139
21.9139
21.914
21.914
21.914
21.914
21.914
21.914
21.914
21.914
21.914
21.914
21.914
21.914
21.914
21.9141
21.9141
21.9141
21.9141
21.9141
21.9141
21.9141
21.9141
21.9141
21.9141
21.9141
21.9141
21.9141
21.9141
21.9141
21.9141
21.9141
21.9141
21.914
21.914
21.914
21.914
21.914
21.914
21.914
21.914
21.914
21.914
21.914
21.9139
21.9139
21.9139
21.9139
21.9139
21.9139
21.9139
21.9139
21.9139
21.9139
21.9139
21.9139
21.9139
21.9139
21.9139
21.9139
21.9139
21.9139
21.9139
21.9139
21.9139
21.9139
21.9139
21.9139
21.9139
21.9139
21.9139
21.9139
21.9139
21.9139
21.9139
21.9139
21.9139
21.9139
21.9139
21.9139
21.9139
21.9139
21.9139
21.9139
21.9139
21.9139
21.9139
21.9139
21.9139
21.9139
21.9139
21.9139
21.9139
21.9139
21.9139
21.9139
21.914
21.914
21.914
21.914
21.914
21.914
21.914
21.914
21.914
21.9141
21.9141
21.9141
21.9141
21.9142
21.9142
21.9142
21.9143
21.9143
21.9144
21.9144
21.9144
21.9145
21.9145
21.9146
21.9147
21.9147
21.9148
21.9149
21.9149
21.915
21.9151
21.9151
21.9152
21.9152
21.9153
21.9153
21.9153
21.9153
21.9154
21.9154
21.9154
21.9153
21.9153
21.9153
21.9152
21.9152
21.9151
21.9151
21.915
21.915
21.9149
21.9148
21.9147
21.9147
21.9146
21.9145
21.9144
21.9144
21.9143
21.9142
21.9142
21.9141
21.9141
21.9141
21.914
21.914
21.914
21.914
21.914
21.9139
21.9139
21.9139
21.9139
21.9139
21.9139
21.9139
21.9139
21.9139
21.9139
21.9139
21.9139
21.9139
21.9139
21.9139
21.9139
21.9139
21.9139
21.9139
21.9139
21.9139
21.9139
21.9139
21.9139
21.9139
21.9139
21.9139
21.9139
21.9139
21.914
21.914
21.914
21.914
21.914
21.914
21.914
21.914
21.9141
21.9141
21.9141
21.9141
21.9142
21.9142
21.9143
21.9143
21.9144
21.9144
21.9145
21.9146
21.9147
21.9148
21.9149
21.915
21.9152
21.9153
21.9155
21.9157
21.9159
21.9162
21.9164
21.9167
21.917
21.9173
21.9176
21.918
21.9183
21.9188
21.9192
21.9197
21.9202
21.9207
21.9212
21.9217
21.9222
21.9226
21.9231
21.9235
21.9238
21.9241
21.9244
21.9246
21.9247
21.9248
21.9248
21.9247
21.9246
21.9244
21.9242
21.9239
21.9235
21.9231
21.9227
21.9222
21.9217
21.9212
21.9207
21.9201
21.9196
21.919
21.9184
21.9179
21.9174
21.9169
21.9164
21.916
21.9157
21.9154
21.9152
21.9149
21.9148
21.9146
21.9145
21.9143
21.9142
21.9142
21.9141
21.914
21.914
21.914
21.914
21.9139
21.9139
21.9139
21.9139
21.9139
21.9139
21.9139
21.9139
21.9139
21.9139
21.9139
21.914
21.914
21.914
21.914
21.914
21.914
21.914
21.9141
21.9141
21.9141
21.9141
21.9142
21.9142
21.9143
21.9143
21.9144
21.9145
21.9146
21.9147
21.9148
21.9149
21.915
21.9152
21.9154
21.9156
21.9159
21.9162
21.9165
21.9169
21.9173
21.9177
21.9183
21.9189
21.9195
21.9203
21.9212
21.9221
21.9233
21.9245
21.9259
21.9274
21.929
21.9307
21.9325
21.9345
21.9365
21.9388
21.9412
21.9438
21.9467
21.9498
21.9531
21.9565
21.9601
21.9637
21.9674
21.9709
21.9744
21.9777
21.9807
21.9835
21.9859
21.988
21.9898
21.9911
21.9921
21.9925
21.9925
21.9921
21.9912
21.9898
21.988
21.9858
21.9832
21.9803
21.9772
21.9738
21.9701
21.9664
21.9625
21.9585
21.9545
21.9504
21.9464
21.9425
21.9388
21.9353
21.9321
21.9292
21.9268
21.9248
21.923
21.9215
21.9201
21.919
21.9179
21.9171
21.9163
21.9158
21.9153
21.915
21.9147
21.9145
21.9143
21.9142
21.9141
21.9141
21.914
21.914
21.914
21.9139
21.9139
21.9142
21.9142
21.9142
21.9143
21.9144
21.9144
21.9145
21.9146
21.9147
21.9149
21.915
21.9152
21.9154
21.9156
21.9159
21.9162
21.9166
21.917
21.9174
21.918
21.9186
21.9193
21.92
21.9209
21.922
21.9232
21.9246
21.9262
21.928
21.9301
21.9325
21.9352
21.9381
21.9415
21.9452
21.9495
21.9543
21.9598
21.9661
21.9732
21.9811
21.99
21.9998
22.0104
22.0218
22.034
22.0469
22.0605
22.0752
22.0912
22.1088
22.1282
22.1493
22.1722
22.1964
22.2217
22.2477
22.2739
22.2998
22.3251
22.3493
22.372
22.393
22.412
22.4288
22.4431
22.4549
22.4637
22.4697
22.4724
22.4719
22.4682
22.4612
22.451
22.4378
22.422
22.4037
22.3833
22.361
22.3369
22.3115
22.2849
22.2574
22.2294
22.201
22.1724
22.1441
22.1163
22.0895
22.0643
22.0415
22.0216
22.0045
21.9901
21.9778
21.9671
21.9577
21.9494
21.9421
21.936
21.931
21.9271
21.924
21.9216
21.9197
21.9182
21.917
21.9162
21.9155
21.915
21.9147
21.9145
21.9143
21.9142
21.9141
21.914
21.9145
21.9146
21.9147
21.9149
21.915
21.9152
21.9154
21.9157
21.916
21.9163
21.9167
21.9172
21.9177
21.9183
21.919
21.9198
21.9207
21.9217
21.9229
21.9243
21.9259
21.9277
21.9299
21.9324
21.9352
21.9385
21.9422
21.9464
21.9512
21.9567
21.963
21.9703
21.9787
21.9885
21.9997
22.0125
22.0271
22.0435
22.0619
22.0825
22.1054
22.1313
22.1609
22.1949
22.2339
22.2786
22.3292
22.3858
22.4485
22.517
22.5909
22.6697
22.753
22.8408
22.9339
23.0345
23.1448
23.2663
23.3996
23.544
23.6985
23.8611
24.0292
24.1999
24.3703
24.5375
24.6988
24.8518
24.9945
25.1255
25.2434
25.347
25.4352
25.5066
25.5599
25.5946
25.6085
25.6033
25.5774
25.5304
25.4631
25.377
25.2741
25.1562
25.0247
24.8806
24.7252
24.56
24.3869
24.2077
24.0241
23.8372
23.6487
23.4605
23.2751
23.0959
22.9277
22.7756
22.6435
22.5311
22.4357
22.3534
22.2812
22.2168
22.1595
22.1092
22.0665
22.0318
22.0045
21.9833
21.9668
21.9538
21.9435
21.9356
21.9296
21.9252
21.9219
21.9196
21.9179
21.9166
21.9157
21.9151
21.9147
21.918
21.9187
21.9195
21.9205
21.9216
21.9229
21.9244
21.9261
21.928
21.9303
21.933
21.9361
21.9396
21.9437
21.9484
21.9538
21.96
21.9671
21.9752
21.9846
21.9955
22.008
22.0226
22.0393
22.0585
22.0804
22.1054
22.1336
22.1658
22.2027
22.2454
22.2949
22.3525
22.4193
22.4961
22.5837
22.6829
22.7939
22.9173
23.0541
23.2066
23.3789
23.5758
23.8014
24.0589
24.3505
24.6771
25.0384
25.433
25.8584
26.3111
26.7872
27.284
27.8013
28.3485
28.944
29.603
30.3308
31.124
31.9731
32.8651
33.7847
34.7147
35.6382
36.5396
37.406
38.2271
38.9943
39.7007
40.3413
40.9123
41.4099
41.8301
42.1671
42.4125
42.5691
42.6224
42.5891
42.4515
42.2108
41.8712
41.4407
40.928
40.341
39.6844
38.9606
38.1728
37.3259
36.4275
35.4857
34.5063
33.4933
32.4527
31.3931
30.3282
29.2784
28.2718
27.3499
26.5461
25.8621
25.2775
24.7673
24.3119
23.9
23.528
23.1992
22.9201
22.6944
22.5178
22.3806
22.2723
22.1855
22.116
22.0617
22.0207
21.9905
21.9685
21.9525
21.9408
21.9325
21.9266
21.9225
21.9196
21.9411
21.9458
21.9513
21.9577
21.965
21.9735
21.9833
21.9946
22.0077
22.0229
22.0405
22.0609
22.0843
22.1112
22.1421
22.1772
22.2174
22.2635
22.3166
22.3781
22.4496
22.5326
22.6286
22.7389
22.8651
23.0083
23.1699
23.3521
23.5586
23.795
24.0676
24.3824
24.7449
25.1596
25.6302
26.1592
26.748
27.3965
28.1049
28.8769
29.7291
30.6892
31.7832
33.0272
34.4267
35.9788
37.6739
39.4974
41.4304
43.4516
45.5393
47.6745
49.843
52.0567
54.3717
56.8672
59.5602
62.4267
65.4325
68.5436
71.7238
74.9292
78.1097
81.2155
84.2029
87.0422
89.7139
92.2017
94.4923
96.5763
98.4456
100.089
101.498
102.649
103.497
104.069
104.348
104.338
103.931
103.196
102.143
100.791
99.1546
97.2526
95.0932
92.6748
90.0029
87.0926
83.9694
80.6557
77.16
73.4847
69.6401
65.644
61.5352
57.3838
53.3075
49.5019
46.1213
43.1454
40.48
38.0369
35.7548
33.6018
31.5791
29.7217
28.0972
26.7618
25.7076
24.8787
24.2131
23.6685
23.2254
22.8768
22.6139
22.4206
22.2785
22.1733
22.0957
22.0394
21.9996
21.9719
21.9527
22.0907
22.1212
22.1565
22.1973
22.2442
22.2981
22.3603
22.4322
22.5155
22.6122
22.7244
22.8539
23.0028
23.1732
23.3669
23.5865
23.8357
24.1203
24.447
24.8229
25.255
25.7496
26.3125
26.9489
27.6629
28.4578
29.3372
30.3097
31.3972
32.6308
34.0392
35.643
37.4542
39.4771
41.7092
44.1425
46.7634
49.5552
52.5036
55.6294
59.0058
62.7222
66.8065
71.249
76.0312
81.1328
86.5276
92.1795
98.0405
104.058
110.189
116.398
122.676
129.021
135.852
144.233
154.143
165.283
177.322
190.004
203.126
216.498
229.911
243.166
256.077
268.552
280.541
291.935
302.599
312.487
321.585
329.778
337.001
343.175
347.861
351.341
353.894
355.345
354.631
352.223
348.409
343.576
337.64
330.611
322.625
313.489
303.121
291.494
278.711
265.028
250.477
234.911
218.403
201.124
183.25
165.163
147.262
130.918
117.857
107.212
97.9352
89.3827
81.2315
73.3449
65.7234
58.5125
52.0205
46.5395
42.0295
38.2651
35.0309
32.2048
29.7689
27.7733
26.2324
25.0807
24.2196
23.5692
23.0818
22.7265
22.4743
22.2971
22.1728
22.0863
22.0272
23.0186
23.2063
23.4225
23.6704
23.9535
24.2769
24.6472
25.0722
25.56
26.1185
26.7549
27.4761
28.2881
29.1963
30.2058
31.3243
32.5684
33.9663
35.5475
37.3371
39.3528
41.6059
44.1016
46.8399
49.8155
53.0193
56.4451
60.1264
64.1438
68.5664
73.4119
78.6762
84.3561
90.4517
96.9598
103.867
111.15
118.773
126.729
135.016
144.253
155.591
169.16
184.796
202.266
221.358
241.879
263.648
286.44
310.022
334.21
358.831
383.744
408.863
433.734
457.188
479.08
499.427
518.267
535.637
551.551
565.935
578.585
589.537
598.939
607.064
614.459
621.249
627.589
633.294
638.18
642.371
645.953
648.735
650.595
651.684
651.514
650.646
649.264
646.29
643.236
639.168
633.772
628.221
621.918
614.384
606.001
596.57
586.383
575.327
563.108
549.349
534.636
518.173
499.166
478.236
455.479
430.493
402.68
372.033
339.314
305.521
271.327
236.982
202.977
170.252
141.162
119.126
102.625
89.3713
77.8903
67.5376
58.2585
50.3674
44.0108
38.9619
34.8868
31.5539
28.8846
26.8531
25.3724
24.3104
23.5508
23.0147
22.6454
28.2538
29.237
30.3409
31.5722
32.9405
34.4643
36.1711
38.0892
40.2422
42.6476
45.3171
48.2568
51.4676
54.9459
58.685
62.702
67.0528
71.8036
76.9757
82.5661
88.5721
94.9998
101.861
109.165
116.918
125.111
133.756
142.861
153.319
165.974
180.95
198.166
217.498
238.823
262.027
286.979
313.509
341.407
370.489
400.634
431.194
460.912
489.603
517.268
543.861
569.245
593.163
615.488
635.845
653.929
670.179
685.073
699.003
712.28
724.707
736.123
746.665
756.108
764.278
771.512
777.796
782.916
786.811
789.27
790.315
789.397
787.004
784.502
782.402
779.514
775.379
771.705
768.225
764.109
759.957
755.565
750.75
746.531
741.932
735.92
731.134
727.564
724.889
721.494
715.47
709.409
704.927
701.629
698.372
692.811
687.456
683.753
679.352
672.106
664.42
657.921
653.071
649.024
641.736
629.566
612.193
591.05
567.17
540.038
509.227
474.791
436.557
394.88
350.363
303.846
256.76
210.838
168.172
133.675
109.028
90.964
76.6164
64.5546
54.4513
46.3756
40.0964
35.2006
31.3714
28.4609
26.3553
47.2609
50.5918
54.2406
58.2067
62.4856
67.098
72.0958
77.5244
83.3877
89.6708
96.363
103.467
110.995
118.966
127.395
136.304
145.701
156.011
168.207
182.56
199.12
217.835
238.624
261.406
286.108
312.632
340.826
370.517
401.616
433.158
464.22
494.644
524.392
553.402
581.48
608.351
633.864
657.562
678.992
698.395
716.391
733.334
749.094
763.707
777.062
789.295
800.557
810.681
819.641
827.436
833.018
836.191
837.718
838.319
838.022
836.893
834.938
832.891
831.044
828.991
826.617
824.064
821.542
819.714
818.426
817.309
815.862
812.924
809.858
807.46
804.032
799.278
795.021
791.216
786.73
782.207
777.53
772.435
768.096
763.289
757.025
752.082
748.729
746.385
743.221
737.058
731.101
727.051
724.179
721.325
715.938
711.155
707.981
704.031
697.059
690.157
685.061
681.096
678.099
673.983
666.803
658.492
651.873
646.587
641.867
636.483
630.7
626.578
619.403
604.907
581.096
549.295
510.951
466.089
416.256
362.109
305.609
249.34
195.837
150.008
117.128
94.1642
77.0297
63.4042
52.5387
44.1641
106.902
115.124
123.789
132.919
142.555
152.71
163.907
176.93
192.046
209.334
228.772
250.297
273.83
299.29
326.578
355.561
386.087
417.659
449.195
480.345
511.01
541.088
570.46
598.937
626.277
652.305
676.536
698.555
718.834
737.584
755.019
771.176
786.111
799.971
812.772
824.524
835.252
844.811
852.237
856.898
859.909
861.873
863.128
863.699
863.371
862.854
862.152
861.288
860.456
860.373
861.038
862.146
863
863.036
862.254
860.44
857.635
854.861
852.151
849.171
845.728
841.881
838.019
834.586
831.496
829.252
826.538
822.404
819.234
816.296
811.7
805.676
801.222
796.831
791.298
786.01
780.851
775.255
770.501
765.489
758.951
753.689
750.359
748.231
744.797
738.568
733.53
730.007
727.707
725.192
720.777
716.723
714.103
711.211
705.803
700.501
696.216
692.484
690.73
689.096
683.71
677.646
672.922
668.642
665.141
660.795
656.647
653.446
649.227
643.166
635.918
628.837
622.598
618.872
612.911
599.576
575.334
539.128
491.664
437.355
376.848
312.712
248.48
188.623
140.717
107.952
85.4278
68.7471
246.248
269.836
295.559
323.298
352.921
384.277
416.703
449.268
481.578
513.422
544.663
575.131
604.647
632.988
659.983
685.295
708.435
729.55
748.915
766.655
783.081
798.199
812.185
825.137
837.099
848.015
857.626
864.849
869.58
872.896
875.455
877.109
878.384
879.016
879.246
879.34
879.391
879.99
881.712
884.303
886.61
888
888.658
888.287
887.254
885.753
883.855
881.572
879.15
876.815
875.009
873.55
872.066
870.741
868.853
865.612
861.481
857.487
853.568
849.367
844.795
840.046
835.377
830.574
826.196
822.809
818.652
814.238
811.687
808.6
803.231
798.128
794.589
790.077
784.253
779.278
774.336
768.709
763.843
758.977
752.787
747.317
743.941
741.6
737.435
731.395
726.894
723.565
720.992
718.863
715.33
711.42
708.541
705.946
701.237
696.54
692.499
688.698
686.261
684.738
681.823
678.333
674.852
671.56
669.59
668.513
667.148
665.707
664.25
660.781
656.018
650.993
646.472
644.365
640.057
634.174
628.116
622.722
619.464
613.546
600.511
574.943
533.539
480.028
418.857
350.512
279.053
210.399
558.909
591.254
622.42
652.178
680.352
706.595
730.401
751.831
771.21
788.783
804.872
819.556
833.018
845.366
856.598
866.553
874.291
879.468
883.05
885.861
887.941
889.399
890.477
891.047
891.444
891.888
893.012
895.48
898.69
901.386
903.313
904.225
904.722
904.265
903.417
902.136
900.499
898.76
897.431
897.004
896.785
896.178
895.054
893.124
890.658
887.809
884.655
881.287
877.84
874.337
870.98
867.787
864.93
863.096
860.857
857.508
853.975
850.646
847.021
842.851
838.296
833.649
828.911
823.973
819.437
815.169
810.101
806.044
803.328
799.483
793.817
790.155
786.823
781.84
776.246
771.948
767.158
761.333
756.551
751.959
746.197
740.601
737.027
734.053
729.344
723.761
719.651
716.384
713.54
711.336
708.649
704.89
701.502
698.519
694.635
690.499
686.695
682.987
679.88
677.661
675.625
673.39
670.786
668.101
666.172
665.325
664.775
663.928
662.609
660.898
659.267
657.316
655.358
654.587
653.924
651.755
648.108
645.004
643.54
638.845
633.095
627.765
624.854
621.229
612.25
591.171
551.966
498.49
818.829
834.344
848.344
860.99
872.285
882.074
889.306
893.973
897.222
899.73
901.524
902.767
903.569
904.004
904.339
905.162
907.267
910.484
913.343
915.577
916.874
917.487
917.561
916.923
915.866
914.47
912.896
911.985
911.827
911.775
911.408
910.563
909.179
907.266
905.047
902.596
900.008
897.326
894.599
892.296
890.461
888.953
887.561
885.895
883.843
881.413
878.624
875.533
872.237
868.776
865.169
861.462
858.189
855.471
852.44
849.061
846.095
843.138
839.664
835.627
831.304
826.868
822.22
817.467
812.848
807.985
802.826
798.908
795.421
790.58
785.571
782.597
779.015
773.491
768.795
765.026
760.149
754.205
749.853
745.545
739.964
734.399
730.749
727.228
722.185
717.063
713.272
710.041
707.024
704.48
702.576
699.149
695.128
691.554
688.023
684.495
681.055
677.572
674.298
671.671
669.662
667.837
665.844
663.741
661.946
660.798
660.11
659.391
658.336
657.188
656.195
655.235
654.437
654.121
654.226
654.104
653.198
652.467
652.955
652.679
650.441
647.833
647.261
644.419
639.079
634.273
632.735
629.693
620.589
918.92
919.716
920.017
920.155
920.856
922.937
925.954
928.545
930.388
931.304
931.611
931.232
930.257
928.842
927.096
925.683
925.137
924.734
924.308
923.44
922.168
920.434
918.401
916.167
913.832
911.404
908.978
906.986
905.445
904.213
903.183
902.013
900.542
898.763
896.712
894.46
892.017
889.39
886.78
884.342
882.173
880.259
878.434
876.511
874.366
871.914
869.143
866.104
862.827
859.29
855.609
852.113
848.709
845.13
841.739
838.783
835.74
832.269
828.435
824.432
820.25
815.816
811.275
806.619
801.608
796.711
792.533
788.204
782.872
778.728
775.595
771.385
765.796
762.067
758.453
753.274
747.608
743.78
739.602
733.949
728.66
725.113
721.213
716.001
711.285
707.727
704.57
701.539
698.835
697.31
693.901
689.445
685.599
682.216
678.963
675.762
672.632
669.585
666.903
664.784
663.036
661.352
659.652
658.085
656.839
655.923
655.11
654.219
653.311
652.479
651.803
651.424
651.441
651.759
652.009
652.024
652.379
653.464
654.398
654.28
654.149
655.654
656.574
654.959
653.278
653.786
651.241
646.469
948.662
948.218
947.061
945.341
943.181
941.428
940.32
939.352
938.256
936.79
935.019
932.861
930.493
928.013
925.474
922.811
920.427
918.471
916.961
915.677
914.466
913.089
911.501
909.714
907.781
905.696
903.471
901.276
899.272
897.52
896.06
894.753
893.424
891.945
890.254
888.349
886.225
883.886
881.405
878.878
876.415
874.101
871.933
869.829
867.675
865.354
862.794
859.983
856.909
853.558
850.036
846.456
842.746
838.965
835.44
832.166
828.818
825.257
821.573
817.8
813.821
809.61
805.249
800.652
795.796
791.11
786.623
781.738
776.61
772.7
769.016
764.141
759.153
755.87
752.101
746.573
741.622
738.133
733.897
728.12
723.384
719.923
715.765
710.501
706.202
702.826
699.75
696.825
694.389
692.672
688.672
684.208
680.497
677.259
674.114
671.032
668.143
665.391
662.872
660.756
659.008
657.448
655.972
654.603
653.415
652.425
651.55
650.719
649.929
649.221
648.704
648.516
648.7
649.097
649.464
649.858
650.65
651.894
653.009
653.715
654.807
656.859
658.547
658.955
659.819
662.439
663.55
662.181
949.342
946.551
943.62
940.634
937.499
934.61
932.156
930.114
928.306
926.572
924.76
922.833
920.805
918.69
916.429
914.124
911.946
910.02
908.363
906.945
905.63
904.293
902.856
901.297
899.594
897.738
895.779
893.808
891.911
890.175
888.605
887.139
885.676
884.122
882.423
880.538
878.448
876.169
873.744
871.24
868.741
866.306
863.941
861.601
859.207
856.686
853.986
851.057
847.887
844.524
840.978
837.235
833.433
829.754
826.161
822.525
818.847
815.191
811.491
807.626
803.585
799.375
794.923
790.314
785.758
781.102
776.093
771.297
767.194
762.914
757.766
753.469
750.102
745.966
740.331
736.191
732.794
728.37
722.638
718.496
715.036
710.659
705.522
701.616
698.404
695.444
692.699
690.785
688.077
683.591
679.491
676.071
672.97
669.909
666.906
664.149
661.614
659.296
657.273
655.549
654.038
652.669
651.428
650.327
649.358
648.488
647.691
646.975
646.382
646.011
645.965
646.248
646.707
647.203
647.844
648.839
650.098
651.278
652.427
654.033
656.096
657.866
659.289
661.391
664.231
666.123
667.205
937.485
935
932.484
929.847
927.171
924.629
922.327
920.288
918.465
916.774
915.119
913.441
911.708
909.886
907.972
906.029
904.14
902.376
900.782
899.34
897.99
896.653
895.275
893.811
892.226
890.52
888.722
886.883
885.072
883.335
881.686
880.092
878.492
876.826
875.043
873.1
870.98
868.688
866.252
863.725
861.166
858.615
856.08
853.535
850.938
848.233
845.368
842.318
839.08
835.629
831.977
828.229
824.468
820.684
816.867
813.08
809.353
805.61
801.773
797.825
793.731
789.449
785.059
780.609
775.949
771.089
766.481
762.121
757.436
752.452
748.42
744.727
740.177
734.827
731.22
727.742
723.081
717.607
713.899
710.399
705.846
700.976
697.377
694.332
691.536
689.125
687.267
683.386
679.019
675.319
672.136
669.161
666.184
663.265
660.607
658.219
656.06
654.142
652.463
650.985
649.668
648.498
647.463
646.542
645.711
644.961
644.315
643.829
643.588
643.658
644.015
644.539
645.165
645.987
647.096
648.38
649.684
651.137
652.956
654.959
656.824
658.792
661.31
663.996
666.235
668.621
671.89
674.898
928.751
926.598
924.469
922.311
920.103
917.893
915.749
913.73
911.869
910.159
908.554
907.003
905.463
903.895
902.266
900.579
898.863
897.165
895.533
893.996
892.552
891.17
889.808
888.423
886.972
885.43
883.788
882.063
880.289
878.509
876.754
875.033
873.327