/*--------------------------------*- C++ -*----------------------------------*\
| =========                 |                                                 |
| \\      /  F ield         | OpenFOAM: The Open Source CFD Toolbox           |
|  \\    /   O peration     | Version:  v1706                                 |
|   \\  /    A nd           | Web:      www.OpenFOAM.com                      |
|    \\/     M anipulation  |                                                 |
\*---------------------------------------------------------------------------*/
FoamFile
{
    version     2.0;
    format      ascii;
    class       volScalarField;
    location    "1.2e-05";
    object      rho;
}
// * * * * * * * * * * * * * * * * * * * * * * * * * * * * * * * * * * * * * //

dimensions      [1 -3 0 0 0 0 0];


internalField   nonuniform List<scalar> 
29871
(
0.000511309
0.000511309
0.000511309
0.000511309
0.000511309
0.000511309
0.000511309
0.000511309
0.000511309
0.000511309
0.000511309
0.000511309
0.000511309
0.000511309
0.000511309
0.000511309
0.000511309
0.000511309
0.000511309
0.000511309
0.000511309
0.000511309
0.000511309
0.000511309
0.000511309
0.000511309
0.000511309
0.000511309
0.000511309
0.000511309
0.000511309
0.000511309
0.000511309
0.000511309
0.000511309
0.000511309
0.000511309
0.000511309
0.000511309
0.000511309
0.000511309
0.000511309
0.000511309
0.000511309
0.000511309
0.000511309
0.000511309
0.000511309
0.000511309
0.000511309
0.000511309
0.000511309
0.000511309
0.000511309
0.000511309
0.000511309
0.000511309
0.000511309
0.000511309
0.000511309
0.000511309
0.000511309
0.000511309
0.000511309
0.000511309
0.000511309
0.000511309
0.000511309
0.000511309
0.000511309
0.000511309
0.000511309
0.000511309
0.000511309
0.000511309
0.000511309
0.000511309
0.000511309
0.000511309
0.000511309
0.000511309
0.000511309
0.000511309
0.000511309
0.000511309
0.000511309
0.000511309
0.000511309
0.000511309
0.000511309
0.000511309
0.000511309
0.000511309
0.000511309
0.000511309
0.000511309
0.000511309
0.000511309
0.000511309
0.000511309
0.000511309
0.000511309
0.000511309
0.000511309
0.000511309
0.000511309
0.000511309
0.000511309
0.000511309
0.000511309
0.000511309
0.000511309
0.000511309
0.000511309
0.000511309
0.000511309
0.000511309
0.000511309
0.000511309
0.000511309
0.000511309
0.000511309
0.000511309
0.000511309
0.000511309
0.000511309
0.000511309
0.000511309
0.000511309
0.000511309
0.000511309
0.000511309
0.000511309
0.000511309
0.000511309
0.000511309
0.000511309
0.000511309
0.000511309
0.000511309
0.000511309
0.000511309
0.000511309
0.000511309
0.000511309
0.000511309
0.000511309
0.000511309
0.000511309
0.000511309
0.000511309
0.000511309
0.000511309
0.000511309
0.000511309
0.000511309
0.000511309
0.000511309
0.000511309
0.000511309
0.000511309
0.000511309
0.000511309
0.000511309
0.000511309
0.000511309
0.000511309
0.000511309
0.000511309
0.000511309
0.000511309
0.000511309
0.000511309
0.000511309
0.000511309
0.000511309
0.000511309
0.000511309
0.000511309
0.000511309
0.000511309
0.000511309
0.000511309
0.000511309
0.000511309
0.000511309
0.000511309
0.000511309
0.000511309
0.000511309
0.000511309
0.000511309
0.000511309
0.000511309
0.000511309
0.000511309
0.000511309
0.000511309
0.000511309
0.000511309
0.000511309
0.000511309
0.000511309
0.000511309
0.000511309
0.000511309
0.000511309
0.000511309
0.000511309
0.000511309
0.000511309
0.000511309
0.000511309
0.000511309
0.000511309
0.000511309
0.000511309
0.000511309
0.000511309
0.000511309
0.000511309
0.000511309
0.000511309
0.000511309
0.000511309
0.000511309
0.000511309
0.000511309
0.000511309
0.000511309
0.000511309
0.000511309
0.000511309
0.000511309
0.000511309
0.000511309
0.000511309
0.000511309
0.000511309
0.000511309
0.000511309
0.000511309
0.000511309
0.000511309
0.000511309
0.000511309
0.000511309
0.000511309
0.000511309
0.000511309
0.000511309
0.000511309
0.000511309
0.000511309
0.000511309
0.000511309
0.000511309
0.000511309
0.000511309
0.000511309
0.000511309
0.000511309
0.000511309
0.000511309
0.000511309
0.000511309
0.000511309
0.000511309
0.000511309
0.000511309
0.000511309
0.000511309
0.000511309
0.000511309
0.000511309
0.000511309
0.000511309
0.000511309
0.000511309
0.000511309
0.000511309
0.000511309
0.000511309
0.000511309
0.000511309
0.000511309
0.000511309
0.000511309
0.000511309
0.000511309
0.000511309
0.000511309
0.000511309
0.000511309
0.000511309
0.000511309
0.000511309
0.000511309
0.000511309
0.000511309
0.000511309
0.000511309
0.000511309
0.000511309
0.000511309
0.000511309
0.000511309
0.000511309
0.000511309
0.000511309
0.000511309
0.000511309
0.000511309
0.000511309
0.000511309
0.000511309
0.000511309
0.000511309
0.000511309
0.000511309
0.000511309
0.000511309
0.000511309
0.000511309
0.000511309
0.000511309
0.000511309
0.000511309
0.000511309
0.000511309
0.000511309
0.000511309
0.000511309
0.000511309
0.000511309
0.000511309
0.000511309
0.000511309
0.000511309
0.000511309
0.000511309
0.000511309
0.000511309
0.000511309
0.000511309
0.000511309
0.000511309
0.000511309
0.000511309
0.000511309
0.000511309
0.000511309
0.000511309
0.000511309
0.000511309
0.000511309
0.000511309
0.000511309
0.000511309
0.000511309
0.000511309
0.000511309
0.000511309
0.000511309
0.000511309
0.000511309
0.000511309
0.000511309
0.000511309
0.000511309
0.000511309
0.000511309
0.000511309
0.000511309
0.000511309
0.000511309
0.000511309
0.000511309
0.000511309
0.000511309
0.000511309
0.000511309
0.000511309
0.000511309
0.000511309
0.000511309
0.000511309
0.000511309
0.000511309
0.000511309
0.000511309
0.000511309
0.000511309
0.000511309
0.000511309
0.000511309
0.000511309
0.000511309
0.000511309
0.000511309
0.000511309
0.000511309
0.000511309
0.000511309
0.000511309
0.000511309
0.000511309
0.000511309
0.000511309
0.000511309
0.000511309
0.000511309
0.000511309
0.000511309
0.000511309
0.000511309
0.000511309
0.000511309
0.000511309
0.000511309
0.000511309
0.000511309
0.000511309
0.000511309
0.000511309
0.000511309
0.000511309
0.000511309
0.000511309
0.000511309
0.000511309
0.000511309
0.000511309
0.000511309
0.000511309
0.000511309
0.000511309
0.000511309
0.000511309
0.000511309
0.000511309
0.000511309
0.000511309
0.000511309
0.000511309
0.000511309
0.000511309
0.000511309
0.000511309
0.000511309
0.000511309
0.000511309
0.000511309
0.000511309
0.000511309
0.000511309
0.000511309
0.000511309
0.000511309
0.000511309
0.000511309
0.000511309
0.000511309
0.000511309
0.000511309
0.000511309
0.000511309
0.000511309
0.000511309
0.000511309
0.000511309
0.000511309
0.000511309
0.000511309
0.000511309
0.000511309
0.000511309
0.000511309
0.000511309
0.000511309
0.000511309
0.000511309
0.000511309
0.000511309
0.000511309
0.000511309
0.000511309
0.000511309
0.000511309
0.000511309
0.000511309
0.000511309
0.000511309
0.000511309
0.000511309
0.000511309
0.000511309
0.000511309
0.000511309
0.000511309
0.000511309
0.000511309
0.000511309
0.000511309
0.000511309
0.000511309
0.000511309
0.000511309
0.000511309
0.000511309
0.000511309
0.000511309
0.000511309
0.000511309
0.000511309
0.000511309
0.000511309
0.000511309
0.000511309
0.000511309
0.000511309
0.000511309
0.000511309
0.000511309
0.000511309
0.000511309
0.000511309
0.000511309
0.000511309
0.000511309
0.000511309
0.000511309
0.000511309
0.000511309
0.000511309
0.000511309
0.000511309
0.000511309
0.000511309
0.000511309
0.000511309
0.000511309
0.000511309
0.000511309
0.000511309
0.000511309
0.000511309
0.000511309
0.000511309
0.000511309
0.000511309
0.000511309
0.000511309
0.000511309
0.000511309
0.000511309
0.000511309
0.000511309
0.000511309
0.000511309
0.000511309
0.000511309
0.000511309
0.000511309
0.000511309
0.000511309
0.000511309
0.000511309
0.000511309
0.000511309
0.000511309
0.000511309
0.000511309
0.000511309
0.000511309
0.000511309
0.000511309
0.000511309
0.000511309
0.000511309
0.000511309
0.000511309
0.000511309
0.000511309
0.000511309
0.000511309
0.000511309
0.000511309
0.000511309
0.000511309
0.000511309
0.000511309
0.000511309
0.000511309
0.000511309
0.000511309
0.000511309
0.000511309
0.000511309
0.000511309
0.000511309
0.000511309
0.000511309
0.000511309
0.000511309
0.000511309
0.000511309
0.000511309
0.000511309
0.000511309
0.000511309
0.000511309
0.000511309
0.000511309
0.000511309
0.000511309
0.000511309
0.000511309
0.000511309
0.000511309
0.000511309
0.000511309
0.000511309
0.000511309
0.000511309
0.000511309
0.000511309
0.000511309
0.000511309
0.000511309
0.000511309
0.000511309
0.000511309
0.000511309
0.000511309
0.000511309
0.000511309
0.000511309
0.000511309
0.000511309
0.000511309
0.000511309
0.000511309
0.000511309
0.000511309
0.000511309
0.000511309
0.000511309
0.000511309
0.000511309
0.000511309
0.000511309
0.000511309
0.000511309
0.000511309
0.000511309
0.000511309
0.000511309
0.000511309
0.000511309
0.000511309
0.000511309
0.000511309
0.000511309
0.000511309
0.000511309
0.000511309
0.000511309
0.000511309
0.000511309
0.000511309
0.000511309
0.000511309
0.000511309
0.000511309
0.000511309
0.000511309
0.000511309
0.000511309
0.000511309
0.000511309
0.000511309
0.000511309
0.000511309
0.000511309
0.000511309
0.000511309
0.000511309
0.000511309
0.000511309
0.000511309
0.000511309
0.000511309
0.000511309
0.000511309
0.000511309
0.000511309
0.000511309
0.000511309
0.000511309
0.000511309
0.000511309
0.000511309
0.000511309
0.000511309
0.000511309
0.000511309
0.000511309
0.000511309
0.000511309
0.000511309
0.000511309
0.000511309
0.000511309
0.000511309
0.000511309
0.000511309
0.000511309
0.000511309
0.000511309
0.000511309
0.000511309
0.000511309
0.000511309
0.000511309
0.000511309
0.000511309
0.000511309
0.000511309
0.000511309
0.000511309
0.000511309
0.000511309
0.000511309
0.000511309
0.000511309
0.000511309
0.000511309
0.000511309
0.000511309
0.000511309
0.000511309
0.000511309
0.000511309
0.000511309
0.000511309
0.000511309
0.000511309
0.000511309
0.000511309
0.000511309
0.000511309
0.000511309
0.000511309
0.000511309
0.000511309
0.000511309
0.000511309
0.000511309
0.000511309
0.000511309
0.000511309
0.000511309
0.000511309
0.000511309
0.000511309
0.000511309
0.000511309
0.000511309
0.000511309
0.000511309
0.000511309
0.000511309
0.000511309
0.000511309
0.000511309
0.000511309
0.000511309
0.000511309
0.000511309
0.000511309
0.000511309
0.000511309
0.000511309
0.000511309
0.000511309
0.000511309
0.000511309
0.000511309
0.000511309
0.000511309
0.000511309
0.000511309
0.000511309
0.000511309
0.000511309
0.000511309
0.000511309
0.000511309
0.000511309
0.000511309
0.000511309
0.000511309
0.000511309
0.000511309
0.000511309
0.000511309
0.000511309
0.000511309
0.000511309
0.000511309
0.000511309
0.000511309
0.000511309
0.000511309
0.000511309
0.000511309
0.000511309
0.000511309
0.000511309
0.000511309
0.000511309
0.000511309
0.000511309
0.000511309
0.000511309
0.000511309
0.000511309
0.000511309
0.000511309
0.000511309
0.000511309
0.000511309
0.000511309
0.000511309
0.000511309
0.000511309
0.000511309
0.000511309
0.000511309
0.000511309
0.000511309
0.000511309
0.000511309
0.000511309
0.000511309
0.000511309
0.000511309
0.000511309
0.000511309
0.000511309
0.000511309
0.000511309
0.000511309
0.000511309
0.000511309
0.000511309
0.000511309
0.000511309
0.000511309
0.000511309
0.000511309
0.000511309
0.000511309
0.000511309
0.000511309
0.000511309
0.000511309
0.000511309
0.000511309
0.000511309
0.000511309
0.000511309
0.000511309
0.000511309
0.000511309
0.000511309
0.000511309
0.000511309
0.000511309
0.000511309
0.000511309
0.000511309
0.000511309
0.000511309
0.000511309
0.000511309
0.000511309
0.000511309
0.000511309
0.000511309
0.000511309
0.000511309
0.000511309
0.000511309
0.000511309
0.000511309
0.000511309
0.000511309
0.000511309
0.000511309
0.000511309
0.000511309
0.000511309
0.000511309
0.000511309
0.000511309
0.000511309
0.000511309
0.000511309
0.000511309
0.000511309
0.000511309
0.000511309
0.000511309
0.000511309
0.000511309
0.000511309
0.000511309
0.000511309
0.000511309
0.000511309
0.000511309
0.000511309
0.000511309
0.000511309
0.000511309
0.000511309
0.000511309
0.000511309
0.000511309
0.000511309
0.000511309
0.000511309
0.000511309
0.000511309
0.000511309
0.000511309
0.000511309
0.000511309
0.000511309
0.000511309
0.000511309
0.000511309
0.000511309
0.000511309
0.000511309
0.000511309
0.000511309
0.000511309
0.000511309
0.000511309
0.000511309
0.000511309
0.000511309
0.000511309
0.000511309
0.000511309
0.000511309
0.000511309
0.000511309
0.000511309
0.000511309
0.000511309
0.000511309
0.000511309
0.000511309
0.000511309
0.000511309
0.000511309
0.000511309
0.000511309
0.000511309
0.000511309
0.000511309
0.000511309
0.000511309
0.000511309
0.000511309
0.000511309
0.000511309
0.000511309
0.000511309
0.000511309
0.000511309
0.000511309
0.000511309
0.000511309
0.000511309
0.000511309
0.000511309
0.000511309
0.000511309
0.000511309
0.000511309
0.000511309
0.000511309
0.000511309
0.000511309
0.000511309
0.000511309
0.000511309
0.000511309
0.000511309
0.000511309
0.000511309
0.000511309
0.000511309
0.000511309
0.000511309
0.000511309
0.000511309
0.000511309
0.000511309
0.000511309
0.000511309
0.000511309
0.000511309
0.000511309
0.000511309
0.000511309
0.000511309
0.000511309
0.000511309
0.000511309
0.000511309
0.000511309
0.000511309
0.000511309
0.000511309
0.000511309
0.000511309
0.000511309
0.000511309
0.000511309
0.000511309
0.000511309
0.000511309
0.000511309
0.000511309
0.000511309
0.000511309
0.000511309
0.000511309
0.000511309
0.000511309
0.000511309
0.000511309
0.000511309
0.000511309
0.000511309
0.000511309
0.000511309
0.000511309
0.000511309
0.000511309
0.000511309
0.000511309
0.000511309
0.000511309
0.000511309
0.000511309
0.000511309
0.000511309
0.000511309
0.000511309
0.000511309
0.000511309
0.000511309
0.000511309
0.000511309
0.000511309
0.000511309
0.000511309
0.000511309
0.000511309
0.000511309
0.000511309
0.000511309
0.000511309
0.000511309
0.000511309
0.000511309
0.000511309
0.000511309
0.000511309
0.000511309
0.000511309
0.000511309
0.000511309
0.000511309
0.000511309
0.000511309
0.000511309
0.000511309
0.000511309
0.000511309
0.000511309
0.000511309
0.000511309
0.000511309
0.000511309
0.000511309
0.000511309
0.000511309
0.000511309
0.000511309
0.000511309
0.000511309
0.000511309
0.000511309
0.000511309
0.000511309
0.000511309
0.000511309
0.000511309
0.000511309
0.000511309
0.000511309
0.000511309
0.000511309
0.000511309
0.000511309
0.000511309
0.000511309
0.000511309
0.000511309
0.000511309
0.000511309
0.000511309
0.000511309
0.000511309
0.000511309
0.000511309
0.000511309
0.000511309
0.000511309
0.000511309
0.000511309
0.000511309
0.000511309
0.000511309
0.000511309
0.000511309
0.000511309
0.000511309
0.000511309
0.000511309
0.000511309
0.000511309
0.000511309
0.000511309
0.000511309
0.000511309
0.000511309
0.000511309
0.000511309
0.000511309
0.000511309
0.000511309
0.000511309
0.000511309
0.000511309
0.000511309
0.000511309
0.000511309
0.000511309
0.000511309
0.000511309
0.000511309
0.000511309
0.000511309
0.000511309
0.000511309
0.000511309
0.000511309
0.000511309
0.000511309
0.000511309
0.000511309
0.000511309
0.000511309
0.000511309
0.000511309
0.000511309
0.000511309
0.000511309
0.000511309
0.000511309
0.000511309
0.000511309
0.000511309
0.000511309
0.000511309
0.000511309
0.000511309
0.000511309
0.000511309
0.000511309
0.000511309
0.000511309
0.000511309
0.000511309
0.000511309
0.000511309
0.000511309
0.000511309
0.000511309
0.000511309
0.000511309
0.000511309
0.000511309
0.000511309
0.000511309
0.000511309
0.000511309
0.000511309
0.000511309
0.000511309
0.000511309
0.000511309
0.000511309
0.000511309
0.000511309
0.000511309
0.000511309
0.000511309
0.000511309
0.000511309
0.000511309
0.000511309
0.000511309
0.000511309
0.000511309
0.00051131
0.00051131
0.00051131
0.00051131
0.00051131
0.00051131
0.00051131
0.00051131
0.00051131
0.00051131
0.00051131
0.00051131
0.00051131
0.00051131
0.00051131
0.00051131
0.00051131
0.00051131
0.00051131
0.00051131
0.00051131
0.00051131
0.00051131
0.00051131
0.00051131
0.00051131
0.00051131
0.00051131
0.00051131
0.00051131
0.00051131
0.00051131
0.00051131
0.00051131
0.00051131
0.00051131
0.00051131
0.00051131
0.00051131
0.00051131
0.000511309
0.000511309
0.000511309
0.000511309
0.000511309
0.000511309
0.000511309
0.000511309
0.000511309
0.000511309
0.000511309
0.000511309
0.000511309
0.000511309
0.000511309
0.000511309
0.000511309
0.000511309
0.000511309
0.000511309
0.000511309
0.000511309
0.000511309
0.000511309
0.000511309
0.000511309
0.000511309
0.000511309
0.000511309
0.000511309
0.000511309
0.000511309
0.000511309
0.000511309
0.000511309
0.000511309
0.000511309
0.000511309
0.000511309
0.000511309
0.000511309
0.000511309
0.000511309
0.000511309
0.000511309
0.000511309
0.000511309
0.000511309
0.000511309
0.000511309
0.000511309
0.000511309
0.000511309
0.000511309
0.00051131
0.00051131
0.00051131
0.00051131
0.00051131
0.00051131
0.00051131
0.00051131
0.00051131
0.00051131
0.00051131
0.00051131
0.00051131
0.00051131
0.00051131
0.00051131
0.00051131
0.000511311
0.000511311
0.000511311
0.000511311
0.000511311
0.000511311
0.000511311
0.000511311
0.000511312
0.000511312
0.000511312
0.000511312
0.000511312
0.000511312
0.000511313
0.000511313
0.000511313
0.000511313
0.000511313
0.000511313
0.000511313
0.000511313
0.000511313
0.000511313
0.000511313
0.000511313
0.000511313
0.000511313
0.000511313
0.000511312
0.000511312
0.000511312
0.000511312
0.000511312
0.000511311
0.000511311
0.000511311
0.000511311
0.000511311
0.000511311
0.00051131
0.00051131
0.00051131
0.00051131
0.00051131
0.00051131
0.00051131
0.00051131
0.00051131
0.00051131
0.000511309
0.000511309
0.000511309
0.000511309
0.000511309
0.000511309
0.000511309
0.000511309
0.000511309
0.000511309
0.000511309
0.000511309
0.000511309
0.000511309
0.000511309
0.000511309
0.000511309
0.000511309
0.000511309
0.000511309
0.000511309
0.000511309
0.000511309
0.000511309
0.000511309
0.000511309
0.000511309
0.000511309
0.000511309
0.000511309
0.000511309
0.000511309
0.00051131
0.00051131
0.00051131
0.00051131
0.00051131
0.00051131
0.00051131
0.00051131
0.00051131
0.00051131
0.00051131
0.00051131
0.00051131
0.00051131
0.000511311
0.000511311
0.000511311
0.000511311
0.000511311
0.000511312
0.000511312
0.000511312
0.000511313
0.000511313
0.000511313
0.000511314
0.000511314
0.000511315
0.000511316
0.000511316
0.000511317
0.000511318
0.000511318
0.000511319
0.00051132
0.000511321
0.000511323
0.000511324
0.000511325
0.000511326
0.000511327
0.000511329
0.00051133
0.000511331
0.000511332
0.000511333
0.000511334
0.000511335
0.000511335
0.000511336
0.000511336
0.000511336
0.000511336
0.000511336
0.000511336
0.000511335
0.000511335
0.000511334
0.000511333
0.000511332
0.000511331
0.00051133
0.000511329
0.000511327
0.000511326
0.000511325
0.000511323
0.000511322
0.000511321
0.000511319
0.000511318
0.000511317
0.000511316
0.000511315
0.000511314
0.000511313
0.000511312
0.000511312
0.000511311
0.000511311
0.000511311
0.00051131
0.00051131
0.00051131
0.00051131
0.00051131
0.00051131
0.00051131
0.000511309
0.000511309
0.000511309
0.000511309
0.000511309
0.000511309
0.000511309
0.000511309
0.000511309
0.000511309
0.000511309
0.000511309
0.000511309
0.00051131
0.00051131
0.00051131
0.00051131
0.00051131
0.00051131
0.00051131
0.00051131
0.00051131
0.00051131
0.00051131
0.00051131
0.00051131
0.00051131
0.000511311
0.000511311
0.000511311
0.000511311
0.000511311
0.000511312
0.000511312
0.000511313
0.000511313
0.000511314
0.000511314
0.000511315
0.000511316
0.000511316
0.000511317
0.000511318
0.00051132
0.000511321
0.000511323
0.000511324
0.000511327
0.000511329
0.000511332
0.000511335
0.000511338
0.000511342
0.000511345
0.000511349
0.000511354
0.000511358
0.000511363
0.000511368
0.000511373
0.000511379
0.000511385
0.000511392
0.000511399
0.000511406
0.000511413
0.00051142
0.000511428
0.000511436
0.000511443
0.00051145
0.000511456
0.000511462
0.000511468
0.000511472
0.000511476
0.000511479
0.000511482
0.000511483
0.000511483
0.000511482
0.00051148
0.000511477
0.000511473
0.000511468
0.000511463
0.000511457
0.00051145
0.000511442
0.000511434
0.000511426
0.000511417
0.000511408
0.000511399
0.00051139
0.000511381
0.000511373
0.000511365
0.000511357
0.00051135
0.000511345
0.000511339
0.000511335
0.000511331
0.000511327
0.000511324
0.000511321
0.000511319
0.000511317
0.000511315
0.000511314
0.000511313
0.000511312
0.000511311
0.000511311
0.00051131
0.00051131
0.00051131
0.00051131
0.00051131
0.00051131
0.000511309
0.000511309
0.00051131
0.00051131
0.00051131
0.00051131
0.00051131
0.00051131
0.000511311
0.000511311
0.000511311
0.000511311
0.000511312
0.000511312
0.000511312
0.000511313
0.000511313
0.000511314
0.000511315
0.000511316
0.000511317
0.000511318
0.000511319
0.00051132
0.000511322
0.000511323
0.000511325
0.000511328
0.000511331
0.000511334
0.000511338
0.000511342
0.000511347
0.000511352
0.000511358
0.000511365
0.000511373
0.000511381
0.000511391
0.000511401
0.000511413
0.000511426
0.000511441
0.000511457
0.000511475
0.000511494
0.000511516
0.000511539
0.000511564
0.000511591
0.000511619
0.000511651
0.000511686
0.000511724
0.000511768
0.000511814
0.000511865
0.000511917
0.000511971
0.000512026
0.000512081
0.000512135
0.000512187
0.000512237
0.000512284
0.000512328
0.000512367
0.000512402
0.000512432
0.000512456
0.000512474
0.000512486
0.000512492
0.000512491
0.000512483
0.000512468
0.000512447
0.00051242
0.000512388
0.00051235
0.000512308
0.000512262
0.000512212
0.000512159
0.000512103
0.000512045
0.000511986
0.000511925
0.000511864
0.000511803
0.000511743
0.000511685
0.000511631
0.000511583
0.00051154
0.000511504
0.000511473
0.000511446
0.000511423
0.000511402
0.000511384
0.000511369
0.000511357
0.000511347
0.000511338
0.000511332
0.000511326
0.000511322
0.000511319
0.000511316
0.000511314
0.000511313
0.000511312
0.000511311
0.000511311
0.00051131
0.00051131
0.00051131
0.000511311
0.000511311
0.000511311
0.000511311
0.000511312
0.000511312
0.000511312
0.000511313
0.000511313
0.000511314
0.000511315
0.000511316
0.000511317
0.000511318
0.000511319
0.000511321
0.000511322
0.000511324
0.000511327
0.000511329
0.000511332
0.000511336
0.00051134
0.000511344
0.00051135
0.000511356
0.000511364
0.000511372
0.000511381
0.000511392
0.000511404
0.000511418
0.000511433
0.000511451
0.000511471
0.000511493
0.000511519
0.000511547
0.00051158
0.000511616
0.000511657
0.000511703
0.000511756
0.000511818
0.000511889
0.000511972
0.000512066
0.000512172
0.00051229
0.000512418
0.000512556
0.000512704
0.000512861
0.000513026
0.0005132
0.000513385
0.000513583
0.000513793
0.000514016
0.000514254
0.000514506
0.000514774
0.000515056
0.000515349
0.00051565
0.000515954
0.000516255
0.000516548
0.000516829
0.000517095
0.000517341
0.000517564
0.000517763
0.000517934
0.000518074
0.000518182
0.000518257
0.00051829
0.000518285
0.000518241
0.000518158
0.000518038
0.000517882
0.000517694
0.000517475
0.000517227
0.000516952
0.000516654
0.000516338
0.000516006
0.000515662
0.00051531
0.000514952
0.000514592
0.000514236
0.00051389
0.000513564
0.000513265
0.000512999
0.000512765
0.000512557
0.000512374
0.00051221
0.000512063
0.00051193
0.000511812
0.000511709
0.000511622
0.000511551
0.000511495
0.000511451
0.000511416
0.00051139
0.000511369
0.000511354
0.000511342
0.000511333
0.000511326
0.000511321
0.000511318
0.000511315
0.000511313
0.000511312
0.000511317
0.000511318
0.00051132
0.000511322
0.000511324
0.000511326
0.000511329
0.000511332
0.000511335
0.000511339
0.000511344
0.000511349
0.000511356
0.000511364
0.000511372
0.000511382
0.000511394
0.000511407
0.000511422
0.000511439
0.000511459
0.000511481
0.000511506
0.000511535
0.000511567
0.000511604
0.000511646
0.000511694
0.000511748
0.00051181
0.000511883
0.000511968
0.000512068
0.000512185
0.000512321
0.000512477
0.000512653
0.000512851
0.00051307
0.000513311
0.000513579
0.000513877
0.000514208
0.000514577
0.000514988
0.000515444
0.000515952
0.000516517
0.000517142
0.00051783
0.000518577
0.00051938
0.000520234
0.000521133
0.000522086
0.000523134
0.00052432
0.000525666
0.000527169
0.000528809
0.000530555
0.000532374
0.000534233
0.000536101
0.00053795
0.000539756
0.000541496
0.000543149
0.000544698
0.000546131
0.000547436
0.000548603
0.000549624
0.000550488
0.000551175
0.000551695
0.000552052
0.000552181
0.000552109
0.000551851
0.000551395
0.000550748
0.000549925
0.000548938
0.000547798
0.00054651
0.000545078
0.00054351
0.000541819
0.000540018
0.000538118
0.000536128
0.000534057
0.000531919
0.00052974
0.000527553
0.000525398
0.000523363
0.000521549
0.00052
0.000518692
0.000517572
0.000516591
0.000515714
0.00051493
0.000514243
0.00051366
0.000513182
0.000512794
0.000512479
0.000512222
0.000512012
0.000511841
0.000511704
0.000511598
0.000511518
0.000511458
0.000511415
0.000511384
0.000511362
0.000511346
0.000511335
0.000511327
0.000511356
0.000511364
0.000511374
0.000511385
0.000511398
0.000511413
0.000511431
0.000511451
0.000511474
0.0005115
0.00051153
0.000511564
0.000511603
0.000511647
0.000511697
0.000511754
0.000511819
0.000511893
0.000511978
0.000512079
0.000512196
0.000512335
0.000512497
0.000512684
0.0005129
0.000513145
0.000513422
0.000513732
0.000514081
0.000514475
0.00051492
0.00051542
0.000515983
0.000516616
0.000517329
0.000518134
0.000519039
0.000520052
0.000521179
0.000522421
0.0005238
0.000525378
0.000527222
0.000529377
0.000531859
0.000534661
0.000537757
0.000541117
0.000544707
0.000548491
0.000552432
0.000556498
0.000560649
0.000564911
0.000569303
0.000573779
0.000578302
0.000582907
0.000587692
0.00059275
0.000598119
0.000603775
0.000609642
0.000615624
0.000621618
0.000627533
0.000633288
0.00063882
0.000644083
0.000649037
0.000653641
0.000657853
0.000661642
0.000664956
0.000667712
0.000669929
0.000671674
0.000672637
0.000672704
0.000672156
0.000670945
0.000669041
0.000666457
0.000663219
0.000659336
0.000654816
0.000649686
0.000644005
0.000637851
0.000631275
0.000624307
0.000616989
0.000609373
0.000601518
0.00059353
0.000585543
0.000577825
0.000570687
0.000564155
0.000558119
0.000552515
0.000547304
0.000542429
0.000537828
0.000533477
0.000529403
0.000525728
0.000522606
0.000520093
0.000518123
0.000516573
0.000515341
0.000514367
0.000513612
0.000513034
0.000512593
0.000512254
0.000511994
0.000511797
0.00051165
0.000511543
0.000511468
0.000511415
0.000511602
0.000511652
0.000511708
0.000511772
0.000511845
0.000511929
0.000512024
0.000512135
0.000512264
0.000512416
0.000512593
0.000512802
0.000513044
0.000513324
0.000513643
0.000514005
0.000514415
0.000514879
0.000515404
0.000515996
0.000516662
0.00051741
0.000518251
0.000519197
0.000520263
0.000521462
0.000522808
0.00052431
0.000526005
0.000527963
0.000530257
0.000532946
0.000536061
0.000539606
0.000543572
0.000547937
0.000552675
0.000557759
0.000563151
0.000568901
0.000575027
0.000581463
0.000588172
0.000595222
0.000602775
0.000611006
0.000620032
0.000629894
0.000640561
0.000651953
0.000663985
0.000676561
0.000689653
0.00070302
0.000717712
0.000736885
0.0007608
0.000788648
0.000819429
0.000852362
0.000886875
0.00092248
0.000958663
0.000994916
0.00103077
0.00106593
0.00110015
0.00113307
0.00116428
0.00119368
0.00122124
0.0012466
0.00126954
0.00128979
0.00130673
0.00132044
0.00133173
0.00134043
0.00134276
0.00134071
0.00133498
0.00132631
0.00131445
0.00129945
0.00128171
0.00126063
0.00123582
0.00120712
0.00117481
0.00113967
0.00110176
0.00106061
0.00101636
0.000969451
0.000920348
0.00086988
0.000818732
0.000771471
0.000734483
0.000705809
0.000682151
0.000661282
0.000642057
0.000624034
0.00060719
0.000591851
0.000578504
0.000567202
0.000557572
0.000549234
0.000541936
0.000535521
0.000529934
0.000525255
0.000521553
0.000518756
0.000516689
0.000515177
0.000514083
0.000513294
0.000512723
0.000512303
0.000511996
0.000511774
0.000511617
0.000512982
0.00051327
0.000513606
0.000513994
0.000514441
0.000514953
0.000515537
0.000516201
0.000516951
0.000517795
0.000518742
0.000519801
0.000520987
0.000522315
0.000523804
0.000525468
0.000527333
0.000529459
0.000531921
0.000534791
0.00053812
0.000541937
0.000546249
0.000551049
0.00055632
0.000562043
0.000568192
0.000574841
0.000581975
0.000589513
0.000597425
0.00060579
0.000614787
0.000624629
0.00063549
0.000647476
0.000660628
0.000674918
0.000690366
0.000706684
0.0007255
0.000750199
0.000781394
0.000818588
0.000860998
0.000907947
0.00095892
0.00101348
0.00107111
0.00113129
0.00119353
0.00125735
0.00132228
0.00138818
0.00145374
0.00151553
0.00157317
0.00162697
0.00167724
0.00172413
0.00176774
0.00180796
0.00184426
0.00187657
0.00190547
0.00193152
0.00195559
0.00197819
0.00199981
0.00202004
0.00203844
0.00205524
0.00207068
0.00208424
0.00209578
0.0021056
0.00211234
0.00211761
0.00212139
0.00212077
0.00212005
0.0021169
0.00211021
0.00210304
0.00209401
0.00208156
0.00206635
0.00204792
0.00202723
0.00200409
0.00197756
0.00194663
0.001913
0.00187444
0.00182841
0.00177612
0.00171758
0.00165129
0.00157506
0.00148939
0.00139695
0.00130075
0.00120272
0.00110344
0.00100401
0.000906327
0.000817941
0.000751469
0.000703785
0.000667849
0.000638719
0.000614044
0.00059327
0.000576358
0.000562717
0.000551527
0.000542202
0.000534419
0.000528074
0.000523147
0.000519509
0.000516927
0.000515145
0.000513934
0.000513108
0.000520665
0.00052208
0.000523662
0.00052543
0.000527402
0.000529611
0.000532119
0.000535005
0.000538343
0.000542192
0.000546589
0.000551549
0.000557068
0.000563135
0.000569715
0.000576844
0.000584549
0.000592752
0.000601366
0.000610389
0.000619942
0.000630222
0.000641441
0.000653779
0.000667368
0.000682266
0.000698557
0.000715942
0.000736905
0.000764009
0.000797728
0.000837737
0.000883546
0.000934725
0.000990933
0.00105186
0.00111714
0.00118631
0.0012589
0.00133462
0.00141159
0.00148617
0.00155791
0.00162702
0.00169354
0.00175725
0.00181764
0.0018745
0.00192705
0.00197457
0.00201782
0.00205781
0.00209549
0.00213168
0.00216595
0.00219787
0.00222759
0.00225459
0.00227882
0.00230069
0.00232032
0.00233739
0.00235177
0.00236286
0.00237081
0.00237388
0.00237324
0.00237239
0.00237245
0.00237078
0.00236607
0.00236239
0.0023593
0.0023548
0.00235031
0.00234534
0.00233955
0.0023355
0.00233062
0.00232205
0.00231641
0.00231446
0.00231529