/*--------------------------------*- C++ -*----------------------------------*\
| =========                 |                                                 |
| \\      /  F ield         | OpenFOAM: The Open Source CFD Toolbox           |
|  \\    /   O peration     | Version:  v1706                                 |
|   \\  /    A nd           | Web:      www.OpenFOAM.com                      |
|    \\/     M anipulation  |                                                 |
\*---------------------------------------------------------------------------*/
FoamFile
{
    version     2.0;
    format      ascii;
    class       volScalarField;
    location    "1.2e-05";
    object      Tt;
}
// * * * * * * * * * * * * * * * * * * * * * * * * * * * * * * * * * * * * * //

dimensions      [0 0 0 1 0 0 0];


internalField   nonuniform List<scalar> 
29871
(
144.4
144.4
144.4
144.4
144.4
144.4
144.4
144.4
144.4
144.4
144.4
144.4
144.4
144.4
144.4
144.4
144.4
144.4
144.4
144.4
144.4
144.4
144.4
144.4
144.4
144.4
144.4
144.4
144.4
144.4
144.4
144.4
144.4
144.4
144.4
144.4
144.4
144.4
144.4
144.4
144.4
144.4
144.4
144.4
144.4
144.4
144.4
144.4
144.4
144.4
144.4
144.4
144.4
144.4
144.4
144.4
144.4
144.4
144.4
144.4
144.4
144.4
144.4
144.4
144.4
144.4
144.4
144.4
144.4
144.4
144.4
144.4
144.4
144.4
144.4
144.4
144.4
144.4
144.4
144.4
144.4
144.4
144.4
144.4
144.4
144.4
144.4
144.4
144.4
144.4
144.4
144.4
144.4
144.4
144.4
144.4
144.4
144.4
144.4
144.4
144.4
144.4
144.4
144.4
144.4
144.4
144.4
144.4
144.4
144.4
144.4
144.4
144.4
144.4
144.4
144.4
144.4
144.4
144.4
144.4
144.4
144.4
144.4
144.4
144.4
144.4
144.4
144.4
144.4
144.4
144.4
144.4
144.4
144.4
144.4
144.4
144.4
144.4
144.4
144.4
144.4
144.4
144.4
144.4
144.4
144.4
144.4
144.4
144.4
144.4
144.4
144.4
144.4
144.4
144.4
144.4
144.4
144.4
144.4
144.4
144.4
144.4
144.4
144.4
144.4
144.4
144.4
144.4
144.4
144.4
144.4
144.4
144.4
144.4
144.4
144.4
144.4
144.4
144.4
144.4
144.4
144.4
144.4
144.4
144.4
144.4
144.4
144.4
144.4
144.4
144.4
144.4
144.4
144.4
144.4
144.4
144.4
144.4
144.4
144.4
144.4
144.4
144.4
144.4
144.4
144.4
144.4
144.4
144.4
144.4
144.4
144.4
144.4
144.4
144.4
144.4
144.4
144.4
144.4
144.4
144.4
144.4
144.4
144.4
144.4
144.4
144.4
144.4
144.4
144.4
144.4
144.4
144.4
144.4
144.4
144.4
144.4
144.4
144.4
144.4
144.4
144.4
144.4
144.4
144.4
144.4
144.4
144.4
144.4
144.4
144.4
144.4
144.4
144.4
144.4
144.4
144.4
144.4
144.4
144.4
144.4
144.4
144.4
144.4
144.4
144.4
144.4
144.4
144.4
144.4
144.4
144.4
144.4
144.4
144.4
144.4
144.4
144.4
144.4
144.4
144.4
144.4
144.4
144.4
144.4
144.4
144.4
144.4
144.4
144.4
144.4
144.4
144.4
144.4
144.4
144.4
144.4
144.4
144.4
144.4
144.4
144.4
144.4
144.4
144.4
144.4
144.4
144.4
144.4
144.4
144.4
144.4
144.4
144.4
144.4
144.4
144.4
144.4
144.4
144.4
144.4
144.4
144.4
144.4
144.4
144.4
144.4
144.4
144.4
144.4
144.4
144.4
144.4
144.4
144.4
144.4
144.4
144.4
144.4
144.4
144.4
144.4
144.4
144.4
144.4
144.4
144.4
144.4
144.4
144.4
144.4
144.4
144.4
144.4
144.4
144.4
144.4
144.4
144.4
144.4
144.4
144.4
144.4
144.4
144.4
144.4
144.4
144.4
144.4
144.4
144.4
144.4
144.4
144.4
144.4
144.4
144.4
144.4
144.4
144.4
144.4
144.4
144.4
144.4
144.4
144.4
144.4
144.4
144.4
144.4
144.4
144.4
144.4
144.4
144.4
144.4
144.4
144.4
144.4
144.4
144.4
144.4
144.4
144.4
144.4
144.4
144.4
144.4
144.4
144.4
144.4
144.4
144.4
144.4
144.4
144.4
144.4
144.4
144.4
144.4
144.4
144.4
144.4
144.4
144.4
144.4
144.4
144.4
144.4
144.4
144.4
144.4
144.4
144.4
144.4
144.4
144.4
144.4
144.4
144.4
144.4
144.4
144.4
144.4
144.4
144.4
144.4
144.4
144.4
144.4
144.4
144.4
144.4
144.4
144.4
144.4
144.4
144.4
144.4
144.4
144.4
144.4
144.4
144.4
144.4
144.4
144.4
144.4
144.4
144.4
144.4
144.4
144.4
144.4
144.4
144.4
144.4
144.4
144.4
144.4
144.4
144.4
144.4
144.4
144.4
144.4
144.4
144.4
144.4
144.4
144.4
144.4
144.4
144.4
144.4
144.4
144.4
144.4
144.4
144.4
144.4
144.4
144.4
144.4
144.4
144.4
144.4
144.4
144.4
144.4
144.4
144.4
144.4
144.4
144.4
144.4
144.4
144.4
144.4
144.4
144.4
144.4
144.4
144.4
144.4
144.4
144.4
144.4
144.4
144.4
144.4
144.4
144.4
144.4
144.4
144.4
144.4
144.4
144.4
144.4
144.4
144.4
144.4
144.4
144.4
144.4
144.4
144.4
144.4
144.4
144.4
144.4
144.4
144.4
144.4
144.4
144.4
144.4
144.4
144.4
144.4
144.4
144.4
144.4
144.4
144.4
144.4
144.4
144.4
144.4
144.4
144.4
144.4
144.4
144.4
144.4
144.4
144.4
144.4
144.4
144.4
144.4
144.4
144.4
144.4
144.4
144.4
144.4
144.4
144.4
144.4
144.4
144.4
144.4
144.4
144.4
144.4
144.4
144.4
144.4
144.4
144.4
144.4
144.4
144.4
144.4
144.4
144.4
144.4
144.4
144.4
144.4
144.4
144.4
144.4
144.4
144.4
144.4
144.4
144.4
144.4
144.4
144.4
144.4
144.4
144.4
144.4
144.4
144.4
144.4
144.4
144.4
144.4
144.4
144.4
144.4
144.4
144.4
144.4
144.4
144.4
144.4
144.4
144.4
144.4
144.4
144.4
144.4
144.4
144.4
144.4
144.4
144.4
144.4
144.4
144.4
144.4
144.4
144.4
144.4
144.4
144.4
144.4
144.4
144.4
144.4
144.4
144.4
144.4
144.4
144.4
144.4
144.4
144.4
144.4
144.4
144.4
144.4
144.4
144.4
144.4
144.4
144.4
144.4
144.4
144.4
144.4
144.4
144.4
144.4
144.4
144.4
144.4
144.4
144.4
144.4
144.4
144.4
144.4
144.4
144.4
144.4
144.4
144.4
144.4
144.4
144.4
144.4
144.4
144.4
144.4
144.4
144.4
144.4
144.4
144.4
144.4
144.4
144.4
144.4
144.4
144.4
144.4
144.4
144.4
144.4
144.4
144.4
144.4
144.4
144.4
144.4
144.4
144.4
144.4
144.4
144.4
144.4
144.4
144.4
144.4
144.4
144.4
144.4
144.4
144.4
144.4
144.4
144.4
144.4
144.4
144.4
144.4
144.4
144.4
144.4
144.4
144.4
144.4
144.4
144.4
144.4
144.4
144.4
144.4
144.4
144.4
144.4
144.4
144.4
144.4
144.4
144.4
144.4
144.4
144.4
144.4
144.4
144.4
144.4
144.4
144.4
144.4
144.4
144.4
144.4
144.4
144.4
144.4
144.4
144.4
144.4
144.4
144.4
144.4
144.4
144.4
144.4
144.4
144.4
144.4
144.4
144.4
144.4
144.4
144.4
144.4
144.4
144.4
144.4
144.4
144.4
144.4
144.4
144.4
144.4
144.4
144.4
144.4
144.4
144.4
144.4
144.4
144.4
144.4
144.4
144.4
144.4
144.4
144.4
144.4
144.4
144.4
144.4
144.4
144.4
144.4
144.4
144.4
144.4
144.4
144.4
144.4
144.4
144.4
144.4
144.4
144.4
144.4
144.4
144.4
144.4
144.4
144.4
144.4
144.4
144.4
144.4
144.4
144.4
144.4
144.4
144.4
144.4
144.4
144.4
144.4
144.4
144.4
144.4
144.4
144.4
144.4
144.4
144.4
144.4
144.4
144.4
144.4
144.4
144.4
144.4
144.4
144.4
144.4
144.4
144.4
144.4
144.4
144.4
144.4
144.4
144.4
144.4
144.4
144.4
144.4
144.4
144.4
144.4
144.4
144.4
144.4
144.4
144.4
144.4
144.4
144.4
144.4
144.4
144.4
144.4
144.4
144.4
144.4
144.4
144.4
144.4
144.4
144.4
144.4
144.4
144.4
144.4
144.4
144.4
144.4
144.4
144.4
144.4
144.4
144.4
144.4
144.4
144.4
144.4
144.4
144.4
144.4
144.4
144.4
144.4
144.4
144.4
144.4
144.4
144.4
144.4
144.4
144.4
144.4
144.4
144.4
144.4
144.4
144.4
144.4
144.4
144.4
144.4
144.4
144.4
144.4
144.4
144.4
144.4
144.4
144.4
144.4
144.4
144.4
144.4
144.4
144.4
144.4
144.4
144.4
144.4
144.4
144.4
144.4
144.4
144.4
144.4
144.4
144.4
144.4
144.4
144.4
144.4
144.4
144.4
144.4
144.4
144.4
144.4
144.4
144.4
144.4
144.4
144.4
144.4
144.4
144.4
144.4
144.4
144.4
144.4
144.4
144.4
144.4
144.4
144.4
144.4
144.4
144.4
144.4
144.4
144.4
144.4
144.4
144.4
144.4
144.4
144.4
144.4
144.4
144.4
144.4
144.4
144.4
144.4
144.4
144.4
144.4
144.4
144.4
144.4
144.4
144.4
144.4
144.4
144.4
144.4
144.4
144.4
144.4
144.4
144.4
144.4
144.4
144.4
144.4
144.4
144.4
144.4
144.4
144.4
144.4
144.4
144.4
144.4
144.4
144.4
144.4
144.4
144.4
144.4
144.4
144.4
144.4
144.4
144.4
144.4
144.4
144.4
144.4
144.4
144.4
144.4
144.4
144.4
144.4
144.4
144.4
144.4
144.4
144.4
144.4
144.4
144.4
144.4
144.4
144.4
144.4
144.4
144.4
144.4
144.4
144.4
144.4
144.4
144.4
144.4
144.4
144.4
144.4
144.4
144.4
144.4
144.4
144.4
144.4
144.4
144.4
144.4
144.4
144.4
144.4
144.4
144.4
144.4
144.4
144.4
144.4
144.4
144.4
144.4
144.4
144.4
144.4
144.4
144.4
144.4
144.4
144.4
144.4
144.4
144.4
144.4
144.4
144.4
144.4
144.4
144.4
144.4
144.4
144.4
144.4
144.4
144.4
144.4
144.4
144.4
144.4
144.4
144.4
144.4
144.4
144.4
144.4
144.4
144.4
144.4
144.4
144.4
144.4
144.4
144.4
144.4
144.4
144.4
144.4
144.4
144.4
144.4
144.4
144.4
144.4
144.4
144.4
144.4
144.4
144.4
144.4
144.4
144.4
144.4
144.4
144.4
144.4
144.4
144.4
144.4
144.4
144.4
144.4
144.4
144.4
144.4
144.4
144.4
144.4
144.4
144.4
144.4
144.4
144.4
144.4
144.4
144.4
144.4
144.4
144.4
144.4
144.4
144.4
144.4
144.4
144.4
144.4
144.4
144.4
144.4
144.4
144.4
144.4
144.4
144.4
144.4
144.4
144.4
144.4
144.4
144.4
144.4
144.4
144.4
144.401
144.401
144.401
144.401
144.401
144.401
144.401
144.401
144.401
144.401
144.401
144.401
144.401
144.401
144.401
144.401
144.401
144.401
144.401
144.401
144.401
144.401
144.401
144.401
144.401
144.401
144.401
144.401
144.401
144.401
144.401
144.401
144.4
144.4
144.4
144.4
144.4
144.4
144.4
144.4
144.4
144.4
144.4
144.4
144.4
144.4
144.4
144.4
144.4
144.4
144.4
144.4
144.4
144.4
144.4
144.4
144.4
144.4
144.4
144.4
144.4
144.4
144.4
144.4
144.4
144.4
144.4
144.4
144.4
144.4
144.4
144.4
144.4
144.4
144.4
144.4
144.4
144.4
144.4
144.4
144.4
144.4
144.4
144.4
144.4
144.4
144.4
144.4
144.4
144.4
144.4
144.4
144.401
144.401
144.401
144.401
144.401
144.401
144.401
144.401
144.401
144.402
144.402
144.402
144.402
144.402
144.403
144.403
144.403
144.404
144.404
144.404
144.405
144.405
144.405
144.406
144.406
144.406
144.407
144.407
144.407
144.408
144.408
144.408
144.408
144.408
144.409
144.409
144.409
144.408
144.408
144.408
144.408
144.408
144.407
144.407
144.407
144.406
144.406
144.405
144.405
144.404
144.404
144.404
144.403
144.403
144.402
144.402
144.402
144.401
144.401
144.401
144.401
144.401
144.401
144.4
144.4
144.4
144.4
144.4
144.4
144.4
144.4
144.4
144.4
144.4
144.4
144.4
144.4
144.4
144.4
144.4
144.4
144.4
144.4
144.4
144.4
144.4
144.4
144.4
144.4
144.4
144.4
144.4
144.4
144.4
144.4
144.4
144.4
144.4
144.401
144.401
144.401
144.401
144.401
144.401
144.401
144.401
144.402
144.402
144.402
144.402
144.403
144.403
144.404
144.404
144.405
144.405
144.406
144.407
144.408
144.409
144.41
144.411
144.412
144.414
144.415
144.417
144.418
144.42
144.422
144.424
144.426
144.429
144.432
144.434
144.437
144.44
144.443
144.446
144.449
144.452
144.454
144.457
144.459
144.46
144.462
144.463
144.464
144.464
144.464
144.464
144.463
144.462
144.46
144.459
144.457
144.454
144.452
144.449
144.446
144.443
144.44
144.436
144.433
144.43
144.426
144.423
144.42
144.417
144.415
144.412
144.41
144.409
144.407
144.406
144.405
144.404
144.403
144.403
144.402
144.401
144.401
144.401
144.401
144.4
144.4
144.4
144.4
144.4
144.4
144.4
144.4
144.4
144.4
144.4
144.4
144.4
144.4
144.4
144.4
144.401
144.401
144.401
144.401
144.401
144.401
144.401
144.401
144.402
144.402
144.402
144.403
144.403
144.403
144.404
144.405
144.405
144.406
144.407
144.408
144.409
144.41
144.412
144.414
144.416
144.418
144.42
144.423
144.426
144.43
144.434
144.438
144.444
144.449
144.456
144.463
144.472
144.481
144.49
144.501
144.511
144.523
144.535
144.549
144.563
144.579
144.596
144.615
144.635
144.656
144.677
144.699
144.721
144.742
144.763
144.782
144.8
144.817
144.831
144.844
144.854
144.862
144.867
144.869
144.869
144.866
144.86
144.852
144.841
144.827
144.812
144.794
144.775
144.755
144.733
144.71
144.687
144.663
144.639
144.615
144.592
144.568
144.546
144.525
144.506
144.49
144.475
144.463
144.453
144.444
144.436
144.429
144.423
144.418
144.414
144.411
144.408
144.406
144.405
144.403
144.403
144.402
144.401
144.401
144.401
144.4
144.4
144.4
144.4
144.402
144.402
144.402
144.402
144.403
144.403
144.404
144.404
144.405
144.406
144.407
144.408
144.409
144.41
144.412
144.414
144.416
144.418
144.421
144.424
144.428
144.432
144.437
144.442
144.449
144.456
144.464
144.474
144.485
144.498
144.512
144.528
144.546
144.566
144.588
144.614
144.643
144.676
144.714
144.757
144.806
144.86
144.919
144.983
145.052
145.126
145.204
145.286
145.375
145.471
145.577
145.694
145.821
145.958
146.103
146.254
146.41
146.567
146.722
146.872
147.016
147.152
147.276
147.389
147.488
147.572
147.641
147.692
147.726
147.74
147.735
147.711
147.668
147.605
147.524
147.428
147.317
147.193
147.059
146.914
146.761
146.601
146.436
146.268
146.098
145.928
145.759
145.593
145.434
145.285
145.15
145.032
144.932
144.847
144.775
144.712
144.657
144.608
144.565
144.529
144.499
144.476
144.458
144.444
144.433
144.425
144.418
144.413
144.409
144.407
144.405
144.403
144.402
144.401
144.401
144.401
144.404
144.404
144.405
144.406
144.407
144.408
144.409
144.411
144.413
144.415
144.417
144.42
144.423
144.427
144.431
144.436
144.441
144.447
144.455
144.463
144.473
144.484
144.497
144.512
144.529
144.549
144.571
144.596
144.626
144.659
144.697
144.741
144.792
144.851
144.919
144.998
145.086
145.187
145.299
145.423
145.563
145.721
145.9
146.106
146.343
146.613
146.919
147.261
147.64
148.053
148.499
148.974
149.476
150.004
150.564
151.17
151.836
152.571
153.378
154.253
155.189
156.173
157.187
158.214
159.235
160.232
161.191
162.098
162.94
163.71
164.4
165.003
165.514
165.924
166.226
166.417
166.483
166.439
166.272
165.981
165.569
165.048
164.428
163.72
162.933
162.073
161.146
160.162
159.131
158.063
156.968
155.854
154.729
153.605
152.496
151.425
150.417
149.506
148.716
148.046
147.478
146.99
146.562
146.181
145.841
145.544
145.292
145.088
144.929
144.805
144.709
144.633
144.573
144.526
144.491
144.465
144.446
144.433
144.423
144.416
144.411
144.407
144.405
144.425
144.429
144.434
144.44
144.447
144.455
144.464
144.474
144.486
144.5
144.516
144.535
144.556
144.581
144.61
144.642
144.68
144.723
144.772
144.829
144.895
144.972
145.06
145.162
145.28
145.414
145.566
145.738
145.935
146.16
146.42
146.722
147.072
147.477
147.943
148.475
149.075
149.747
150.494
151.321
152.242
153.284
154.475
155.841
157.402
159.169
161.145
163.325
165.699
168.246
170.945
173.77
176.701
179.741
182.944
186.413
190.226
194.404
198.919
203.712
208.707
213.813
218.935
223.976
228.851
233.494
237.853
241.888
245.569
248.877
251.798
254.318
256.422
258.081
259.26
259.972
260.129
259.865
259.059
257.711
255.849
253.516
250.755
247.602
244.079
240.192
235.954
231.384
226.52
221.4
216.049
210.485
204.736
198.847
192.893
186.988
181.3
176.07
171.489
167.568
164.194
161.228
158.564
156.142
153.946
151.997
150.339
148.997
147.95
147.138
146.5
145.989
145.58
145.262
145.022
144.846
144.718
144.624
144.557
144.508
144.473
144.449
144.433
144.566
144.595
144.628
144.667
144.712
144.763
144.823
144.892
144.972
145.064
145.172
145.296
145.439
145.604
145.793
146.008
146.254
146.536
146.861
147.237
147.674
148.18
148.764
149.435
150.201
151.069
152.048
153.151
154.401
155.831
157.48
159.385
161.578
164.084
166.923
170.104
173.629
177.492
181.688
186.235
191.226
196.809
203.112
210.202
218.087
226.725
236.04
245.928
256.264
266.911
277.74
288.638
299.533
310.476
321.782
333.925
347.002
360.83
375.124
389.607
404.024
418.126
431.679
444.482
456.388
467.331
477.298
486.286
494.295
501.34
507.444
512.612
516.849
520.108
522.239
523.387
523.426
522.627
520.54
517.277
512.926
507.574
501.27
494.055
485.93
476.841
466.75
455.641
443.54
430.475
416.414
401.283
385.042
367.686
349.311
330.188
310.83
292.251
275.445
260.458
246.847
234.157
222.087
210.499
199.441
189.155
180.066
172.533
166.538
161.78
157.925
154.742
152.132
150.07
148.512
147.369
146.532
145.914
145.459
145.13
144.898
144.737
144.626
145.482
145.669
145.885
146.135
146.423
146.754
147.135
147.577
148.088
148.68
149.365
150.156
151.063
152.099
153.275
154.606
156.116
157.837
159.812
162.083
164.692
167.674
171.062
174.88
179.146
183.869
189.064
194.771
201.109
208.236
216.284
225.332
235.406
246.49
258.528
271.43
285.081
299.346
314.12
329.457
345.731
363.438
382.689
403.303
424.979
447.386
470.188
493.058
515.675
537.763
559.128
579.653
599.321
618.335
637.744
659.47
682.631
706.115
729.092
751.052
771.676
790.73
808.024
823.469
837.031
848.851
859.163
868.083
875.672
882.012
887.208
891.305
894.366
896.45
896.916
896.483
895.342
893.174
889.838
885.142
879.321
872.792
865.448
857.216
848.089
837.848
826.401
813.598
799.312
783.51
765.969
746.236
724.009
698.986
670.848
639.711
606.011
571.756
540.636
511.784
483.715
455.406
426.268
395.998
364.692
333.095
302.97
276.449
253.972
234.734
217.788
202.617
189.266
178.151
169.461
162.895
157.932
154.142
151.275
149.175
147.684
146.64
145.91
145.404
145.059
151.185
152.332
153.651
155.159
156.879
158.839
161.079
163.646
166.588
169.95
173.773
178.094
182.94
188.333
194.291
200.847
208.086
216.146
225.161
235.227
246.392
258.665
272.017
286.39
301.697
317.83
334.705
352.41
371.349
391.876
414.014
437.575
462.299
487.894
514.06
540.488
566.869
592.921
618.482
643.709
669.915
698.779
729.387
760.602
791.504
821.419
849.86
876.479
901.009
923.314
943.444
961.539
977.797
992.348
1005.24
1016.39
1026.03
1034.25
1041.1
1046.72
1051.23
1054.65
1057
1058.46
1059.04
1058.93
1058.64
1058.11
1057.35
1056.27
1054.82
1053.06
1051.04
1048.7
1045.92
1042.78
1039.18
1035.22
1031.18
1026.75
1022.24
1017.29
1011.9
1006.46
1000.66
994.449
988.099
981.477
974.564
967.227
959.386
950.816
941.619
931.394
919.819
907.194
893.475
878.361
861.38
841.595
818.374
791.366
760.082
723.596
681.148
632.906
581.468
534.105
491.3
450.87
410.87
370.576
330.855
294.435
263.512
238.015
216.786
198.931
184.291
172.942
164.551
158.451
154.031
150.879
148.697
182.831
188.681
195.213
202.451
210.436
219.252
229.026
239.87
251.857
265.016
279.34
294.786
311.284
328.742
347.057
366.23
386.48
408.135
431.267
455.75
481.368
507.88
535.035
562.581
590.266
617.834
645.126
672.308
700.995
731.935
764.25
796.99
829.386
860.843
890.907
919.228
945.525
969.624
991.552
1011.39
1029.19
1044.92
1058.85
1071.16
1081.99
1091.43
1099.5
1106.28
1111.71
1115.81
1119.03
1121.67
1123.89
1125.8
1127.31
1128.44
1129.33
1129.92
1129.98
1129.84
1129.4
1128.53
1127.22
1125.43
1123.14
1120.39
1117.29
1114.14
1111.13
1107.8
1104.13
1100.6
1097.08
1093.28
1089.42
1085.42
1081.17
1076.96
1072.57
1067.8
1063.44
1059.14
1054.87
1050.22
1044.6
1039.2
1034.16
1029.24
1024.3
1018.49
1012.77
1007.26
1001.33
994.3
987.314
980.616
974.036
967.865
960.566
952.092
942.554
932.303
921.24
908.672
893.995
876.946
857.154
834.378
807.087
773.359
731.651
681.108
622.079
560.85
504.732
453.437
404.705
357.45
313.216
275.007
243.709
218.356
197.889
181.926
170.143
290.595
308.068
326.73
346.476
367.189
388.86
411.669
435.816
461.28
487.882
515.388
543.552
572.135
600.908
629.654
658.18
686.481
715.354
746.053
778.025
810.514
842.837
874.432
904.861
933.794
960.965
986.157
1009.27
1030.32
1049.2
1066.02
1081.03
1094.46
1106.45
1117.08
1126.4
1134.45
1141.17
1146.57
1150.99
1154.81
1158.23
1161.3
1164.06
1166.54
1168.76
1170.71
1172.33
1173.59
1174.41
1174.33
1173.83
1172.93
1171.73
1170.4
1168.94
1167.17
1165.4
1163.68
1161.87
1160.01
1158.14
1156.33
1154.57
1152.73
1150.71
1148.39
1145.39
1142.25
1139.18
1135.66
1131.78
1128.06
1124.38
1120.43
1116.44
1112.38
1108.13
1103.99
1099.66
1094.97
1090.75
1086.71
1082.8
1078.46
1073.05
1068
1063.36
1058.9
1054.42
1048.96
1043.61
1038.59
1033.2
1026.73
1020.43
1014.44
1008.55
1002.96
996.94
989.675
982.141
974.85
967.501
960.114
952.37
944.395
937.239
929.165
919.05
906.831
892.663
876.219
856.334
832.585
803.11
765.335
717.105
657.167
588.652
522.617
462.143
405.761
352.496
304.402
264.188
559.84
590.752
621.776
652.679
683.278
713.57
744.405
776.523
809.42
842.446
875.009
906.614
936.874
965.504
992.295
1017.09
1039.77
1060.26
1078.49
1094.74
1109.27
1122.26
1133.86
1144.16
1153.24
1161.12
1167.72
1173.1
1177.68
1181.71
1185.38
1188.77
1191.9
1194.81
1197.48
1199.9
1202.02
1203.72
1204.8
1205.12
1205.08
1204.94
1204.65
1204.21
1203.72
1203.2
1202.69
1202.21
1201.83
1201.6
1201.44
1201.09
1200.31
1199.02
1197.45
1195.5
1193.2
1190.92
1188.63
1186.27
1183.83
1181.37
1178.99
1176.72
1174.45
1172.29
1169.89
1166.94
1164.08
1161.11
1157.52
1153.53
1149.9
1146.18
1142.07
1138.01
1133.94
1129.65
1125.52
1121.25
1116.6
1112.41
1108.48
1104.75
1100.41
1095.2
1090.61
1086.23
1082.09
1077.87
1072.84
1067.74
1062.96
1058.09
1052.21
1046.47
1040.78
1035.06
1029.93
1024.88
1018.62
1012.17
1005.75
999.167
992.607
985.682
978.783
972.235
965.197
957.061
948.174
939.194
930.31
922.653
914.743
904.739
892.45
877.348
858.195
834.807
805.015
765.487
712.94
646.09
571.34
500.269
435.108
374.685
918.624
950.969
981.602
1010.27
1036.83
1061.12
1082.96
1102.31
1119.44
1134.61
1148.06
1159.98
1170.5
1179.74
1187.77
1194.55
1200.1
1204.72
1208.77
1212.41
1215.78
1218.88
1221.76
1224.43
1226.86
1229
1230.69
1231.71
1232.19
1232.43
1232.6
1232.63
1232.64
1232.62
1232.62
1232.7
1232.85
1233.24
1233.9
1234.5
1234.48
1234.12
1233.38
1232.38
1231.21
1229.91
1228.57
1227.22
1225.97
1224.88
1223.93
1222.99
1221.86
1220.55
1218.91
1216.76
1214.31
1211.82
1209.26
1206.6
1203.85
1201.08
1198.34
1195.63
1193.08
1190.81
1188.34
1185.71
1183.35
1180.69
1177.33
1173.94
1170.82
1167.3
1163.39
1159.65
1155.83
1151.7
1147.72
1143.65
1139.21
1135.06
1131.23
1127.55
1123.08
1118.17
1113.83
1109.61
1105.42
1101.31
1096.57
1091.49
1086.56
1081.73
1076.03
1070.35
1064.69
1058.88
1053.46
1048.18
1042.52
1036.57
1030.44
1024.19
1018.17
1012.2
1006.04
999.818
993.493
986.516
979.033
971.231
963.493
956.599
949.246
941.013
932.16
923.278
915.144
906.999
897.215
885.131
869.264
848.892
823.134
788.023
739.073
673.397
1181.53
1193.8
1204.5
1213.78
1221.74
1228.37
1233.73
1238.16
1242.02
1245.46
1248.61
1251.47
1254.07
1256.42
1258.49
1260.15
1261.16
1261.6
1261.78
1261.91
1261.97
1261.96
1261.98
1261.99
1262.09
1262.33
1262.83
1263.61
1264.31
1264.39
1264.19
1263.69
1263
1262.22
1261.36
1260.49
1259.68
1259.05
1258.69
1258.49
1258.15
1257.55
1256.63
1255.38
1253.94
1252.34
1250.65
1248.91
1247.19
1245.53
1244.06
1242.76
1241.52
1240.41
1239.05
1237.27
1235.3
1233.23
1230.98
1228.54
1225.98
1223.35
1220.65
1217.89
1215.27
1212.8
1210.2
1207.76
1205.59
1203.04
1199.92
1197.14
1194.3
1190.91
1187.31
1183.94
1180.31
1176.31
1172.52
1168.67
1164.44
1160.28
1156.48
1152.75
1148.34
1143.74
1139.59
1135.51
1131.27
1127.09
1122.63
1117.58
1112.48
1107.47
1102.05
1096.49
1090.88
1085.1
1079.47
1073.98
1068.37
1062.58
1056.56
1050.36
1044.17
1037.97
1031.61
1025.06
1018.33
1011.47
1004.6
997.627
990.62
983.94
977.275
970.157
962.465
954.635
947.322
939.64
931.386
922.89
914.782
907.202
898.749
888.043
873.565
854.867
1283.11
1286.01
1288.58
1290.86
1292.8
1294.26
1295.02
1295.23
1295.24
1295.22
1295.15
1295.02
1294.9
1294.8
1294.83
1295.06
1295.61
1296.22
1296.25
1296.03
1295.51
1294.79
1293.98
1293.15
1292.28
1291.48
1290.89
1290.64
1290.48
1290.23
1289.76
1289.04
1288.08
1286.95
1285.76
1284.52
1283.3
1282.13
1281.17
1280.48
1279.95
1279.44
1278.82
1277.98
1276.91
1275.64
1274.2
1272.63
1270.97
1269.27
1267.58
1265.98
1264.54
1263.26
1261.88
1260.31
1258.69
1256.94
1254.95
1252.77
1250.46
1248.04
1245.49
1242.87
1240.29
1237.71
1235.09
1232.76
1230.53
1227.95
1225.19
1222.79
1220.11
1216.84
1213.69
1210.62
1207.13
1203.27
1199.75
1196.08
1191.99
1187.89
1184.16
1180.36
1176.01
1171.68
1167.68
1163.68
1159.46
1155.1
1150.82
1145.86
1140.62
1135.47
1130.2
1124.76
1119.18
1113.46
1107.74
1102.12
1096.47
1090.68
1084.69
1078.53
1072.23
1065.82
1059.23
1052.44
1045.51
1038.52
1031.52
1024.47
1017.4
1010.34
1003.2
995.912
988.416
980.98
973.994
967.047
959.734
952.133
944.896
937.602
929.788
921.738
914.25
907.345
899.573
1331.47
1331.24
1331.02
1330.87
1330.99
1331.38
1331.69
1331.51
1331.02
1330.27
1329.35
1328.37
1327.35
1326.34
1325.47
1324.89
1324.53
1324.09
1323.53
1322.72
1321.74
1320.61
1319.42
1318.22
1317.04
1315.94
1315.09
1314.52
1314.13
1313.77
1313.35
1312.78
1312.03
1311.12
1310.11
1309.01
1307.85
1306.72
1305.71
1304.85
1304.12
1303.43
1302.69
1301.82
1300.79
1299.57
1298.2
1296.7
1295.09
1293.42
1291.73
1290.15
1288.66
1287.16
1285.67
1284.21
1282.66
1280.92
1279.01
1276.98
1274.8
1272.48
1270.09
1267.65
1265.13
1262.62
1260.29
1257.96
1255.37
1252.95
1250.69
1248.09
1245.02
1242.29
1239.41
1236.01
1232.38
1229.12
1225.59
1221.57
1217.59
1213.95
1210.09
1205.8
1201.67
1197.78
1193.8
1189.57
1185.08
1180.9
1175.94
1170.62
1165.45
1160.22
1154.78
1149.22
1143.56
1137.83
1132.12
1126.4
1120.57
1114.58
1108.4
1102.06
1095.54
1088.81
1081.88
1074.82
1067.69
1060.54
1053.34
1046.07
1038.72
1031.23
1023.57
1015.78
1008.09
1000.61
993.123
985.465
977.845
970.781
963.885
956.619
949.256
942.472
935.592
928.18
1367.17
1366.08
1364.91
1363.71
1362.65
1361.86
1361.23
1360.53
1359.67
1358.62
1357.42
1356.11
1354.77
1353.43
1352.15
1351.05
1350.23
1349.62
1349.12
1348.59
1347.98
1347.23
1346.36
1345.4
1344.38
1343.33
1342.32
1341.45
1340.75
1340.19
1339.71
1339.21
1338.63
1337.93
1337.1
1336.16
1335.13
1334.02
1332.92
1331.87
1330.91
1330.04
1329.21
1328.37
1327.44
1326.4
1325.21
1323.9
1322.46
1320.92
1319.32
1317.73
1316.15
1314.6
1313.13
1311.72
1310.27
1308.71
1307.06
1305.28
1303.36
1301.31
1299.17
1296.93
1294.58
1292.24
1289.93
1287.55
1285.07
1282.81
1280.56
1277.98
1275.2
1272.72
1269.95
1266.63
1263.31
1260.22
1256.76
1252.8
1249.01
1245.43
1241.53
1237.28
1233.31
1229.46
1225.47
1221.18
1216.71
1212.47
1207.3
1202.07
1196.95
1191.7
1186.23
1180.64
1174.99
1169.27
1163.5
1157.71
1151.82
1145.8
1139.6
1133.23
1126.66
1119.87
1112.87
1105.73
1098.5
1091.23
1083.89
1076.46
1068.89
1061.16
1053.23
1045.2
1037.22
1029.31
1021.32
1013.22
1005.22
997.516
989.813
981.937
974.308
967.442
960.694
953.604
1394.47
1393.01
1391.53
1390.09
1388.83
1387.83
1387.03
1386.32
1385.58
1384.76
1383.84
1382.82
1381.73
1380.6
1379.48
1378.45
1377.58
1376.86
1376.24
1375.66
1375.05
1374.37
1373.6
1372.75
1371.83
1370.87
1369.92
1369.04
1368.27
1367.6
1366.99
1366.4
1365.77
1365.05
1364.25
1363.34
1362.35
1361.3
1360.22
1359.17
1358.17
1357.23
1356.33
1355.43
1354.47
1353.43
1352.29
1351.04
1349.69
1348.25
1346.77
1345.25
1343.75
1342.31
1340.92
1339.53
1338.12
1336.65
1335.1
1333.43
1331.65
1329.76
1327.74
1325.61
1323.44
1321.21
1318.87
1316.52
1314.3
1312.01
1309.45
1306.94
1304.53
1301.81
1298.58
1295.56
1292.55
1289.12
1285.22
1281.62
1278.06
1274.12
1269.92
1266.06
1262.22
1258.17
1253.79
1249.47
1244.86
1239.6
1234.52
1229.42
1224.13
1218.62
1212.98
1207.31
1201.57
1195.77
1189.92
1183.97
1177.9
1171.68
1165.28
1158.68
1151.87
1144.85
1137.67
1130.38
1123.02
1115.57
1108.01
1100.3
1092.41
1084.34
1076.17
1067.99
1059.77
1051.45
1043.02
1034.64
1026.33
1017.95
1009.52
1001.34
993.548
985.783
978.061
1421.31
1420.14
1418.93
1417.71
1416.57
1415.58
1414.72
1413.94
1413.19
1412.42
1411.6
1410.71
1409.76
1408.76
1407.74
1406.76
1405.88
1405.09
1404.39
1403.73
1403.08
1402.39
1401.65
1400.85
1399.98
1399.08
1398.17
1397.3
1396.5
1395.76
1395.08
1394.42
1393.73
1393
1392.2
1391.32
1390.37
1389.37
1388.34
1387.32
1386.34
1385.4
1384.49
1383.58
1382.64
1381.64
1380.57
1379.41
1378.17
1376.86
1375.49
1374.11
1372.75
1371.42
1370.1
1368.79
1367.47
1366.09
1364.63
1363.07
1361.4
1359.61
1357.69
1355.69
1353.57
1351.33
1349.09
1346.87
1344.53
1342.02
1339.63
1337.2
1334.47
1331.35
1328.51
1325.51
1322.08
1318.28
1314.8
1311.21
1307.22
1303.1
1299.28
1295.42
1291.3
1286.88
1282.62
1277.52
1272.41
1267.39
1262.26
1256.93
1251.36
1245.68
1239.97
1234.21
1228.38
1222.48
1216.48
1210.36
1204.1
1197.68
1191.07
1184.26
1177.24
1170.06
1162.75
1155.33
1147.81
1140.17
1132.38
1124.41
1116.28
1108.04
1099.74
1091.35
1082.83
1074.21
1065.53
1056.81
1047.98
1039.13
1030.43
1021.85
1013.29
1004.91
996.999
989.403
1450.15
1449.2
1448.19
1447.14
1446.06
1445.02
1444.04
1443.15
1442.33
1441.54
1440.76
1439.96
1439.12
1438.23
1437.29
1436.34
1435.41
1434.53
1433.71
1432.95
1432.23
1431.53
1430.82
1430.08
1429.29
1428.47
1427.61
1426.74
1425.89
1425.09
1424.33
1423.61
1422.91
1422.21
1421.47
1420.69
1419.85
1418.95
1418.02
1417.06
1416.11
1415.19
1414.3
1413.43
1412.56
1411.68
1410.76
1409.78
1408.73
1407.61
1406.43
1405.21
1403.98
1402.75
1401.52
1400.3
1399.07
1397.82
1396.51
1395.13
1393.64
1392.02
1390.28
1388.42
1386.43
1384.31
1382.14
1379.9
1377.52
1375.06
1372.65
1370.14
1367.35
1364.35
1361.55
1358.5
1355.03
1351.32
1347.89
1344.24
1340.19
1336.13
1332.31
1328.39
1324.17
1319.89
1315.25
1310.05
1305.04
1300.03
1294.85
1289.45
1283.83
1278.12
1272.38
1266.6
1260.74
1254.79
1248.74
1242.59
1236.3
1229.86
1223.25
1216.45
1209.46
1202.3
1194.99
1187.57
1180.03
1172.36
1164.53
1156.55
1148.42
1140.18
1131.84
1123.38
1114.78
1106.04
1097.2
1088.24
1079.16
1070.04
1060.95
1051.85
1042.75
1033.8
1025.09
1016.53
1479.23
1478.36
1477.47
1476.53
1475.56
1474.57
1473.59
1472.64
1471.74
1470.89
1470.07
1469.26
1468.45
1467.61
1466.75
1465.85
1464.94
1464.04
1463.17
1462.34
1461.56
1460.81
1460.08
1459.35
1458.6
1457.83
1457.03
1456.21
1455.39
1454.58
1453.8
1453.05
1452.34
1451.64
1450.94
1450.23
1449.49
1448.7
1447.88
1447.03
1446.17
1445.31
1444.48
1443.67
1442.88
1442.09
1441.29
1440.47
1439.59
1438.65
1437.66
1436.61
1435.52
1434.4
1433.27
1432.13
1430.98
1429.81
1428.6
1427.32
1425.94
1424.45
1422.84
1421.08
1419.18
1417.15
1415.01
1412.76
1410.36
1407.88
1405.39
1402.76
1399.89
1396.94
1394.05
1390.91
1387.38
1383.73
1380.26
1376.51
1372.41
1368.36
1364.49
1360.49
1356.2
1351.95
1346.89
1341.83
1336.85
1331.79
1326.54
1321.07
1315.42
1309.68
1303.92
1298.11
1292.22
1286.24
1280.17
1273.98
1267.68
1261.23
1254.63
1247.85
1240.9
1233.78
1226.52
1219.12
1211.61
1203.96
1196.17
1188.23
1180.16
1171.97
1163.66
1155.21
1146.6
1137.85
1128.95
1119.91
1110.73
1101.46
1092.14
1082.75
1073.32
1063.96
1054.68
1045.48
1507.43
1506.57
1505.69
1504.79
1503.86
1502.91
1501.97
1501.04
1500.14
1499.27
1498.43
1497.59
1496.76
1495.92
1495.07
1494.19
1493.31
1492.43
1491.58
1490.75
1489.96
1489.2
1488.46
1487.72
1486.99
1486.23
1485.47
1484.69
1483.91
1483.15
1482.42
1481.71
1481.03
1480.36
1479.71
1479.04
1478.36
1477.65
1476.92
1476.17
1475.42
1474.67
1473.94
1473.22
1472.53
1471.83
1471.12
1470.38
1469.6
1468.76
1467.86
1466.9
1465.9
1464.85
1463.78
1462.68
1461.55
1460.38
1459.14
1457.81
1456.37
1454.81
1453.11
1451.26
1449.26
1447.12
1444.83
1442.39
1439.85
1437.24
1434.47
1431.5
1428.5
1425.46
1422.18
1418.55
1414.92
1411.33
1407.45
1403.31
1399.21
1395.23
1391.1
1386.89
1382.3
1377.2
1372.2
1367.19
1362.05
1356.74
1351.22
1345.53
1339.77
1333.99
1328.17
1322.27
1316.27
1310.17
1303.97
1297.66
1291.22
1284.64
1277.9
1271.01
1263.95
1256.76
1249.43
1241.98
1234.41
1226.7
1218.85