/*--------------------------------*- C++ -*----------------------------------*\
| =========                 |                                                 |
| \\      /  F ield         | OpenFOAM: The Open Source CFD Toolbox           |
|  \\    /   O peration     | Version:  v1706                                 |
|   \\  /    A nd           | Web:      www.OpenFOAM.com                      |
|    \\/     M anipulation  |                                                 |
\*---------------------------------------------------------------------------*/
FoamFile
{
    version     2.0;
    format      ascii;
    class       volScalarField;
    location    "1.2e-05";
    object      Tv;
}
// * * * * * * * * * * * * * * * * * * * * * * * * * * * * * * * * * * * * * //

dimensions      [0 0 0 1 0 0 0];


internalField   nonuniform List<scalar> 
29871
(
144.4
144.4
144.4
144.4
144.4
144.4
144.4
144.4
144.4
144.4
144.4
144.4
144.4
144.4
144.4
144.4
144.4
144.4
144.4
144.4
144.4
144.4
144.4
144.4
144.4
144.4
144.4
144.4
144.4
144.4
144.4
144.4
144.4
144.4
144.4
144.4
144.4
144.4
144.4
144.4
144.4
144.4
144.4
144.4
144.4
144.4
144.4
144.4
144.4
144.4
144.4
144.4
144.4
144.4
144.4
144.4
144.4
144.4
144.4
144.4
144.4
144.4
144.4
144.4
144.4
144.4
144.4
144.4
144.4
144.4
144.4
144.4
144.4
144.4
144.4
144.4
144.4
144.4
144.4
144.4
144.4
144.4
144.4
144.4
144.4
144.4
144.4
144.4
144.4
144.4
144.4
144.4
144.4
144.4
144.4
144.4
144.4
144.4
144.4
144.4
144.4
144.4
144.4
144.4
144.4
144.4
144.4
144.4
144.4
144.4
144.4
144.4
144.4
144.4
144.4
144.4
144.4
144.4
144.4
144.4
144.4
144.4
144.4
144.4
144.4
144.4
144.4
144.4
144.4
144.4
144.4
144.4
144.4
144.4
144.4
144.4
144.4
144.4
144.4
144.4
144.4
144.4
144.4
144.4
144.4
144.4
144.4
144.4
144.4
144.4
144.4
144.4
144.4
144.4
144.4
144.4
144.4
144.4
144.4
144.4
144.4
144.4
144.4
144.4
144.4
144.4
144.4
144.4
144.4
144.4
144.4
144.4
144.4
144.4
144.4
144.4
144.4
144.4
144.4
144.4
144.4
144.4
144.4
144.4
144.4
144.4
144.4
144.4
144.4
144.4
144.4
144.4
144.4
144.4
144.4
144.4
144.4
144.4
144.4
144.4
144.4
144.4
144.4
144.4
144.4
144.4
144.4
144.4
144.4
144.4
144.4
144.4
144.4
144.4
144.4
144.4
144.4
144.4
144.4
144.4
144.4
144.4
144.4
144.4
144.4
144.4
144.4
144.4
144.4
144.4
144.4
144.4
144.4
144.4
144.4
144.4
144.4
144.4
144.4
144.4
144.4
144.4
144.4
144.4
144.4
144.4
144.4
144.4
144.4
144.4
144.4
144.4
144.4
144.4
144.4
144.4
144.4
144.4
144.4
144.4
144.4
144.4
144.4
144.4
144.4
144.4
144.4
144.4
144.4
144.4
144.4
144.4
144.4
144.4
144.4
144.4
144.4
144.4
144.4
144.4
144.4
144.4
144.4
144.4
144.4
144.4
144.4
144.4
144.4
144.4
144.4
144.4
144.4
144.4
144.4
144.4
144.4
144.4
144.4
144.4
144.4
144.4
144.4
144.4
144.4
144.4
144.4
144.4
144.4
144.4
144.4
144.4
144.4
144.4
144.4
144.4
144.4
144.4
144.4
144.4
144.4
144.4
144.4
144.4
144.4
144.4
144.4
144.4
144.4
144.4
144.4
144.4
144.4
144.4
144.4
144.4
144.4
144.4
144.4
144.4
144.4
144.4
144.4
144.4
144.4
144.4
144.4
144.4
144.4
144.4
144.4
144.4
144.4
144.4
144.4
144.4
144.4
144.4
144.4
144.4
144.4
144.4
144.4
144.4
144.4
144.4
144.4
144.4
144.4
144.4
144.4
144.4
144.4
144.4
144.4
144.4
144.4
144.4
144.4
144.4
144.4
144.4
144.4
144.4
144.4
144.4
144.4
144.4
144.4
144.4
144.4
144.4
144.4
144.4
144.4
144.4
144.4
144.4
144.4
144.4
144.4
144.4
144.4
144.4
144.4
144.4
144.4
144.4
144.4
144.4
144.4
144.4
144.4
144.4
144.4
144.4
144.4
144.4
144.4
144.4
144.4
144.4
144.4
144.4
144.4
144.4
144.4
144.4
144.4
144.4
144.4
144.4
144.4
144.4
144.4
144.4
144.4
144.4
144.4
144.4
144.4
144.4
144.4
144.4
144.4
144.4
144.4
144.4
144.4
144.4
144.4
144.4
144.4
144.4
144.4
144.4
144.4
144.4
144.4
144.4
144.4
144.4
144.4
144.4
144.4
144.4
144.4
144.4
144.4
144.4
144.4
144.4
144.4
144.4
144.4
144.4
144.4
144.4
144.4
144.4
144.4
144.4
144.4
144.4
144.4
144.4
144.4
144.4
144.4
144.4
144.4
144.4
144.4
144.4
144.4
144.4
144.4
144.4
144.4
144.4
144.4
144.4
144.4
144.4
144.4
144.4
144.4
144.4
144.4
144.4
144.4
144.4
144.4
144.4
144.4
144.4
144.4
144.4
144.4
144.4
144.4
144.4
144.4
144.4
144.4
144.4
144.4
144.4
144.4
144.4
144.4
144.4
144.4
144.4
144.4
144.4
144.4
144.4
144.4
144.4
144.4
144.4
144.4
144.4
144.4
144.4
144.4
144.4
144.4
144.4
144.4
144.4
144.4
144.4
144.4
144.4
144.4
144.4
144.4
144.4
144.4
144.4
144.4
144.4
144.4
144.4
144.4
144.4
144.4
144.4
144.4
144.4
144.4
144.4
144.4
144.4
144.4
144.4
144.4
144.4
144.4
144.4
144.4
144.4
144.4
144.4
144.4
144.4
144.4
144.4
144.4
144.4
144.4
144.4
144.4
144.4
144.4
144.4
144.4
144.4
144.4
144.4
144.4
144.4
144.4
144.4
144.4
144.4
144.4
144.4
144.4
144.4
144.4
144.4
144.4
144.4
144.4
144.4
144.4
144.4
144.4
144.4
144.4
144.4
144.4
144.4
144.4
144.4
144.4
144.4
144.4
144.4
144.4
144.4
144.4
144.4
144.4
144.4
144.4
144.4
144.4
144.4
144.4
144.4
144.4
144.4
144.4
144.4
144.4
144.4
144.4
144.4
144.4
144.4
144.4
144.4
144.4
144.4
144.4
144.4
144.4
144.4
144.4
144.4
144.4
144.4
144.4
144.4
144.4
144.4
144.4
144.4
144.4
144.4
144.4
144.4
144.4
144.4
144.4
144.4
144.4
144.4
144.4
144.4
144.4
144.4
144.4
144.4
144.4
144.4
144.4
144.4
144.4
144.4
144.4
144.4
144.4
144.4
144.4
144.4
144.4
144.4
144.4
144.4
144.4
144.4
144.4
144.4
144.4
144.4
144.4
144.4
144.4
144.4
144.4
144.4
144.4
144.4
144.4
144.4
144.4
144.4
144.4
144.4
144.4
144.4
144.4
144.4
144.4
144.4
144.4
144.4
144.4
144.4
144.4
144.4
144.4
144.4
144.4
144.4
144.4
144.4
144.4
144.4
144.4
144.4
144.4
144.4
144.4
144.4
144.4
144.4
144.4
144.4
144.4
144.4
144.4
144.4
144.4
144.4
144.4
144.4
144.4
144.4
144.4
144.4
144.4
144.4
144.4
144.4
144.4
144.4
144.4
144.4
144.4
144.4
144.4
144.4
144.4
144.4
144.4
144.4
144.4
144.4
144.4
144.4
144.4
144.4
144.4
144.4
144.4
144.4
144.4
144.4
144.4
144.4
144.4
144.4
144.4
144.4
144.4
144.4
144.4
144.4
144.4
144.4
144.4
144.4
144.4
144.4
144.4
144.4
144.4
144.4
144.4
144.4
144.4
144.4
144.4
144.4
144.4
144.4
144.4
144.4
144.4
144.4
144.4
144.4
144.4
144.4
144.4
144.4
144.4
144.4
144.4
144.4
144.4
144.4
144.4
144.4
144.4
144.4
144.4
144.4
144.4
144.4
144.4
144.4
144.4
144.4
144.4
144.4
144.4
144.4
144.4
144.4
144.4
144.4
144.4
144.4
144.4
144.4
144.4
144.4
144.4
144.4
144.4
144.4
144.4
144.4
144.4
144.4
144.4
144.4
144.4
144.4
144.4
144.4
144.4
144.4
144.4
144.4
144.4
144.4
144.4
144.4
144.4
144.4
144.4
144.4
144.4
144.4
144.4
144.4
144.4
144.4
144.4
144.4
144.4
144.4
144.4
144.4
144.4
144.4
144.4
144.4
144.4
144.4
144.4
144.4
144.4
144.4
144.4
144.4
144.4
144.4
144.4
144.4
144.4
144.4
144.4
144.4
144.4
144.4
144.4
144.4
144.4
144.4
144.4
144.4
144.4
144.4
144.4
144.4
144.4
144.4
144.4
144.4
144.4
144.4
144.4
144.4
144.4
144.4
144.4
144.4
144.4
144.4
144.4
144.4
144.4
144.4
144.4
144.4
144.4
144.4
144.4
144.4
144.4
144.4
144.4
144.4
144.4
144.4
144.4
144.4
144.4
144.4
144.4
144.4
144.4
144.4
144.4
144.4
144.4
144.4
144.4
144.4
144.4
144.4
144.4
144.4
144.4
144.4
144.4
144.4
144.4
144.4
144.4
144.4
144.4
144.4
144.4
144.4
144.4
144.4
144.4
144.4
144.4
144.4
144.4
144.4
144.4
144.4
144.4
144.4
144.4
144.4
144.4
144.4
144.4
144.4
144.4
144.4
144.4
144.4
144.4
144.4
144.4
144.4
144.4
144.4
144.4
144.4
144.4
144.4
144.4
144.4
144.4
144.4
144.4
144.4
144.4
144.4
144.4
144.4
144.4
144.4
144.4
144.4
144.4
144.4
144.4
144.4
144.4
144.4
144.4
144.4
144.4
144.4
144.4
144.4
144.4
144.4
144.4
144.4
144.4
144.4
144.4
144.4
144.4
144.4
144.4
144.4
144.4
144.4
144.4
144.4
144.4
144.4
144.4
144.4
144.4
144.4
144.4
144.4
144.4
144.4
144.4
144.4
144.4
144.4
144.4
144.4
144.4
144.4
144.4
144.4
144.4
144.4
144.4
144.4
144.4
144.4
144.4
144.4
144.4
144.4
144.4
144.4
144.4
144.4
144.4
144.4
144.4
144.4
144.4
144.4
144.4
144.4
144.4
144.4
144.4
144.4
144.4
144.4
144.4
144.4
144.4
144.4
144.4
144.4
144.4
144.4
144.4
144.4
144.4
144.4
144.4
144.4
144.4
144.4
144.4
144.4
144.4
144.4
144.4
144.4
144.4
144.4
144.4
144.4
144.4
144.4
144.4
144.4
144.4
144.4
144.4
144.4
144.4
144.4
144.4
144.4
144.4
144.4
144.4
144.4
144.4
144.4
144.4
144.4
144.4
144.4
144.4
144.4
144.4
144.4
144.4
144.4
144.4
144.4
144.4
144.4
144.4
144.4
144.4
144.4
144.4
144.4
144.4
144.4
144.4
144.4
144.4
144.4
144.4
144.4
144.4
144.4
144.4
144.4
144.4
144.4
144.4
144.4
144.4
144.4
144.4
144.4
144.4
144.4
144.4
144.4
144.4
144.4
144.4
144.4
144.4
144.4
144.4
144.4
144.4
144.4
144.4
144.4
144.4
144.4
144.4
144.4
144.4
144.4
144.4
144.4
144.4
144.4
144.4
144.4
144.4
144.4
144.4
144.4
144.4
144.4
144.4
144.4
144.4
144.4
144.4
144.4
144.4
144.4
144.4
144.4
144.4
144.4
144.4
144.4
144.4
144.4
144.4
144.4
144.4
144.4
144.4
144.4
144.4
144.4
144.4
144.4
144.4
144.4
144.4
144.4
144.4
144.4
144.4
144.4
144.4
144.4
144.4
144.4
144.4
144.4
144.4
144.4
144.4
144.4
144.4
144.4
144.4
144.4
144.4
144.4
144.4
144.4
144.4
144.4
144.4
144.4
144.4
144.4
144.4
144.4
144.4
144.4
144.4
144.4
144.4
144.4
144.4
144.4
144.4
144.4
144.4
144.4
144.4
144.4
144.4
144.4
144.4
144.4
144.4
144.4
144.4
144.4
144.4
144.4
144.4
144.4
144.4
144.4
144.4
144.4
144.4
144.4
144.4
144.4
144.4
144.4
144.4
144.4
144.4
144.4
144.4
144.4
144.4
144.4
144.4
144.4
144.4
144.4
144.4
144.4
144.4
144.4
144.4
144.4
144.4
144.4
144.401
144.401
144.401
144.401
144.401
144.401
144.401
144.401
144.401
144.401
144.401
144.401
144.401
144.401
144.401
144.401
144.401
144.401
144.401
144.401
144.401
144.401
144.401
144.401
144.401
144.401
144.4
144.4
144.4
144.4
144.4
144.4
144.4
144.4
144.4
144.4
144.4
144.4
144.4
144.4
144.4
144.4
144.4
144.4
144.4
144.4
144.4
144.4
144.4
144.4
144.4
144.4
144.4
144.4
144.4
144.4
144.4
144.4
144.4
144.4
144.4
144.4
144.4
144.4
144.4
144.4
144.4
144.4
144.4
144.4
144.4
144.4
144.4
144.4
144.4
144.4
144.4
144.4
144.4
144.4
144.4
144.4
144.4
144.4
144.4
144.4
144.4
144.4
144.4
144.4
144.4
144.4
144.4
144.401
144.401
144.401
144.401
144.401
144.401
144.401
144.402
144.402
144.402
144.402
144.403
144.403
144.403
144.404
144.404
144.404
144.405
144.405
144.406
144.407
144.407
144.408
144.408
144.409
144.41
144.41
144.411
144.411
144.411
144.412
144.412
144.412
144.412
144.412
144.412
144.412
144.411
144.411
144.41
144.41
144.409
144.409
144.408
144.407
144.407
144.406
144.405
144.405
144.404
144.403
144.403
144.402
144.402
144.402
144.401
144.401
144.401
144.401
144.4
144.4
144.4
144.4
144.4
144.4
144.4
144.4
144.4
144.4
144.4
144.4
144.4
144.4
144.4
144.4
144.4
144.4
144.4
144.4
144.4
144.4
144.4
144.4
144.4
144.4
144.4
144.4
144.4
144.4
144.4
144.4
144.4
144.4
144.4
144.4
144.4
144.4
144.4
144.4
144.401
144.401
144.401
144.401
144.401
144.401
144.401
144.402
144.402
144.402
144.403
144.403
144.404
144.404
144.405
144.406
144.407
144.408
144.409
144.41
144.412
144.414
144.416
144.418
144.421
144.423
144.427
144.43
144.434
144.438
144.442
144.447
144.452
144.457
144.463
144.47
144.477
144.484
144.491
144.498
144.505
144.512
144.518
144.524
144.529
144.533
144.536
144.539
144.54
144.54
144.539
144.538
144.535
144.531
144.526
144.52
144.514
144.507
144.499
144.492
144.484
144.476
144.468
144.46
144.453
144.446
144.44
144.433
144.428
144.423
144.419
144.415
144.412
144.409
144.407
144.406
144.404
144.403
144.402
144.402
144.401
144.401
144.401
144.4
144.4
144.4
144.4
144.4
144.4
144.4
144.4
144.4
144.4
144.4
144.4
144.4
144.4
144.4
144.4
144.4
144.401
144.401
144.401
144.401
144.401
144.401
144.402
144.402
144.402
144.402
144.403
144.403
144.404
144.405
144.406
144.406
144.408
144.409
144.41
144.412
144.414
144.416
144.419
144.422
144.426
144.431
144.436
144.442
144.449
144.456
144.465
144.475
144.487
144.501
144.516
144.534
144.555
144.579
144.605
144.634
144.666
144.7
144.737
144.777
144.82
144.866
144.917
144.973
145.033
145.097
145.165
145.236
145.308
145.38
145.45
145.518
145.581
145.639
145.691
145.736
145.774
145.803
145.823
145.833
145.834
145.826
145.808
145.78
145.742
145.695
145.64
145.578
145.51
145.438
145.362
145.284
145.205
145.125
145.048
144.972
144.899
144.83
144.766
144.706
144.652
144.605
144.564
144.53
144.503
144.481
144.463
144.449
144.437
144.427
144.42
144.414
144.41
144.407
144.405
144.403
144.402
144.401
144.401
144.401
144.4
144.4
144.4
144.4
144.4
144.4
144.4
144.4
144.401
144.401
144.401
144.402
144.402
144.402
144.403
144.403
144.404
144.405
144.405
144.406
144.408
144.409
144.411
144.412
144.415
144.417
144.42
144.424
144.428
144.432
144.438
144.445
144.452
144.461
144.472
144.484
144.498
144.514
144.533
144.556
144.582
144.612
144.648
144.689
144.737
144.792
144.855
144.925
145.005
145.095
145.197
145.315
145.449
145.601
145.773
145.964
146.174
146.402
146.645
146.901
147.167
147.443
147.728
148.026
148.34
148.672
149.02
149.38
149.749
150.119
150.484
150.837
151.174
151.488
151.778
152.039
152.271
152.471
152.641
152.778
152.881
152.948
152.978
152.974
152.934
152.858
152.744
152.591
152.4
152.172
151.911
151.617
151.295
150.946
150.572
150.176
149.761
149.333
148.894
148.45
148.004
147.563
147.131
146.718
146.334
145.99
145.693
145.444
145.236
145.063
144.917
144.796
144.696
144.616
144.554
144.508
144.475
144.452
144.436
144.424
144.416
144.41
144.407
144.404
144.403
144.402
144.401
144.401
144.4
144.4
144.4
144.41
144.412
144.415
144.418
144.421
144.425
144.43
144.436
144.442
144.45
144.459
144.47
144.482
144.497
144.514
144.534
144.557
144.584
144.616
144.652
144.695
144.745
144.804
144.872
144.951
145.041
145.145
145.263
145.397
145.55
145.724
145.925
146.153
146.413
146.706
147.032
147.391
147.782
148.202
148.65
149.127
149.638
150.187
150.778
151.409
152.075
152.769
153.484
154.21
154.937
155.659
156.367
157.058
157.731
158.392
159.053
159.721
160.395
161.068
161.731
162.375
162.992
163.575
164.117
164.613
165.062
165.463
165.815
166.12
166.377
166.589
166.756
166.875
166.943
166.961
166.936
166.863
166.74
166.564
166.333
166.047
165.708
165.316
164.874
164.381
163.836
163.24
162.59
161.887
161.133
160.325
159.462
158.541
157.563
156.528
155.443
154.326
153.212
152.141
151.134
150.191
149.307
148.478
147.706
147.003
146.385
145.869
145.465
145.163
144.942
144.779
144.66
144.574
144.513
144.472
144.446
144.429
144.418
144.411
144.406
144.404
144.402
144.401
144.51
144.532
144.558
144.588
144.623
144.665
144.713
144.77
144.836
144.913
145.003
145.107
145.227
145.366
145.524
145.703
145.906
146.135
146.394
146.685
147.014
147.381
147.79
148.24
148.73
149.259
149.824
150.423
151.058
151.732
152.451
153.214
154.02
154.863
155.738
156.635
157.545
158.461
159.376
160.285
161.197
162.123
163.07
164.035
165.013
165.993
166.964
167.919
168.848
169.745
170.604
171.424
172.203
172.946
173.666
174.381
175.094
175.799
176.485
177.146
177.774
178.363
178.909
179.409
179.858
180.258
180.61
180.916
181.175
181.391
181.563
181.693
181.775
181.805
181.794
181.738
181.637
181.488
181.285
181.029
180.719
180.355
179.94
179.472
178.954
178.382
177.754
177.069
176.325
175.522
174.657
173.724
172.717
171.629
170.453
169.187
167.837
166.434
165.021
163.608
162.18
160.715
159.195
157.607
155.956
154.269
152.612
151.074
149.715
148.544
147.546
146.706
146.024
145.502
145.128
144.873
144.702
144.59
144.516
144.47
144.441
144.424
144.414
145.47
145.663
145.885
146.138
146.423
146.744
147.102
147.501
147.943
148.432
148.966
149.547
150.172
150.837
151.541
152.277
153.046
153.849
154.689
155.566
156.48
157.425
158.396
159.388
160.392
161.402
162.412
163.42
164.433
165.462
166.509
167.573
168.647
169.723
170.794
171.852
172.889
173.901
174.882
175.835
176.775
177.718
178.667
179.616
180.557
181.482
182.383
183.255
184.093
184.893
185.654
186.375
187.058
187.708
188.337
188.966
189.586
190.187
190.762
191.307
191.822
192.303
192.747
193.15
193.512
193.833
194.115
194.358
194.563
194.731
194.862
194.955
195.002
195.001
194.966
194.89
194.772
194.608
194.393
194.128
193.812
193.447
193.032
192.567
192.054
191.491
190.876
190.207
189.483
188.706
187.872
186.976
186.015
184.981
183.867
182.671
181.396
180.067
178.726
177.358
175.936
174.434
172.831
171.107
169.247
167.251
165.164
163.074
161.029
159.022
157.02
155.005
153.005
151.119
149.456
148.078
146.981
146.137
145.521
145.099
144.825
144.653
144.548
144.484
144.447
151.242
152.052
152.904
153.792
154.712
155.659
156.634
157.639
158.671
159.727
160.804
161.895
162.994
164.095
165.193
166.285
167.373
168.466
169.566
170.675
171.788
172.9
174.005
175.097
176.171
177.224
178.25
179.253
180.248
181.244
182.244
183.241
184.23
185.205
186.162
187.095
188.002
188.878
189.722
190.539
191.343
192.153
192.961
193.759
194.543
195.31
196.058
196.784
197.485
198.158
198.802
199.419
200.01
200.576
201.122
201.658
202.181
202.685
203.168
203.626
204.059
204.465
204.839
205.181
205.486
205.757
205.993
206.198
206.369
206.506
206.61
206.678
206.691
206.676
206.622
206.527
206.392
206.213
205.988
205.715
205.393
205.024
204.605
204.14
203.632
203.077
202.475
201.824
201.122
200.374
199.578
198.726
197.823
196.862
195.833
194.736
193.571
192.353
191.104
189.812
188.452
187.008
185.468
183.816
182.038
180.136
178.143
176.147
174.154
172.119
169.986
167.712
165.287
162.78
160.291
157.869
155.514
153.234
151.104
149.245
147.743
146.603
145.783
145.229
144.88
164.746
165.993
167.235
168.467
169.686
170.894
172.097
173.296
174.491
175.678
176.851
178.008
179.142
180.252
181.334
182.388
183.422
184.447
185.467
186.479
187.479
188.463
189.428
190.372
191.292
192.186
193.052
193.894
194.729
195.567
196.4
197.223
198.035
198.834
199.62
200.391
201.144
201.878
202.592
203.286
203.969
204.649
205.328
206.001
206.668
207.325
207.971
208.605
209.222
209.818
210.394
210.95
211.487
212.007
212.509
212.995
213.466
213.92
214.354
214.767
215.157
215.522
215.858
216.164
216.436
216.676
216.883
217.062
217.211
217.329
217.415
217.456
217.454
217.425
217.356
217.247
217.096
216.903
216.667
216.383
216.052
215.674
215.244
214.769
214.254
213.696
213.095
212.444
211.744
211.002
210.214
209.374
208.49
207.56
206.571
205.518
204.395
203.22
202.016
200.773
199.47
198.094
196.642
195.1
193.458
191.717
189.899
188.058
186.188
184.252
182.209
180.03
177.704
175.296
172.876
170.426
167.886
165.214
162.436
159.659
156.966
154.388
151.963
149.801
148.034
179.951
181.227
182.474
183.688
184.866
186.01
187.127
188.226
189.307
190.37
191.409
192.425
193.414
194.375
195.308
196.211
197.086
197.943
198.794
199.637
200.466
201.279
202.078
202.862
203.632
204.387
205.126
205.847
206.55
207.245
207.939
208.63
209.319
210.005
210.687
211.364
212.036
212.699
213.349
213.986
214.612
215.23
215.842
216.452
217.06
217.663
218.261
218.852
219.433
220.001
220.55
221.081
221.596
222.098
222.587
223.061
223.52
223.963
224.389
224.796
225.183
225.549
225.891
226.206
226.492
226.747
226.967
227.154
227.312
227.442
227.544
227.61
227.623
227.611
227.568
227.485
227.363
227.198
226.991
226.744
226.449
226.11
225.721
225.279
224.793
224.267
223.702
223.094
222.434
221.723
220.971
220.175
219.329
218.444
217.519
216.543
215.502
214.389
213.218
212.016
210.784
209.499
208.151
206.74
205.255
203.688
202.039
200.322
198.579
196.803
194.967
193.05
191.034
188.905
186.705
184.461
182.147
179.719
177.145
174.453
171.743
169.016
166.206
163.269
160.259
157.301
195.638
196.722
197.77
198.784
199.761
200.705
201.626
202.533
203.421
204.287
205.131
205.952
206.754
207.535
208.299
209.043
209.767
210.475
211.175
211.868
212.556
213.236
213.91
214.579
215.242
215.9
216.549
217.185
217.811
218.429
219.043
219.658
220.272
220.887
221.502
222.116
222.728
223.335
223.93
224.514
225.09
225.664
226.235
226.804
227.371
227.935
228.496
229.052
229.601
230.141
230.666
231.173
231.664
232.141
232.607
233.06
233.498
233.92
234.327
234.717
235.087
235.438
235.766
236.069
236.345
236.592
236.803
236.98
237.123
237.238
237.326
237.362
237.358
237.332
237.272
237.172
237.034
236.853
236.629
236.365
236.057
235.702
235.3
234.844
234.345
233.806
233.229
232.609
231.937
231.21
230.44
229.628
228.771
227.876
226.945
225.968
224.93
223.824
222.656
221.45
220.219
218.943
217.609
216.215
214.749
213.208
211.593
209.916
208.201
206.45
204.653
202.802
200.884
198.877
196.814
194.702
192.522
190.249
187.859
185.389
182.888
180.329
177.647
174.809
171.87
168.914
165.916
162.827
209.219
210.1
210.953
211.781
212.585
213.365
214.125
214.87
215.603
216.322
217.028
217.723
218.407
219.081
219.745
220.398
221.037
221.662
222.277
222.886
223.493
224.096
224.698
225.298
225.896
226.491
227.079
227.656
228.224
228.788
229.35
229.914
230.479
231.046
231.615
232.186
232.757
233.327
233.89
234.443
234.989
235.532
236.073
236.613
237.151
237.688
238.223
238.756
239.284
239.807
240.32
240.819
241.301
241.767
242.22
242.658
243.079
243.484
243.875
244.25
244.605
244.939
245.252
245.542
245.806
246.042
246.246
246.412
246.544
246.649
246.716
246.723
246.708
246.664
246.584
246.463
246.305
246.105
245.859
245.575
245.247
244.872
244.45
243.979
243.465
242.91
242.315
241.677
240.989
240.245
239.453
238.622
237.75
236.839
235.895
234.909
233.868
232.765
231.602
230.397
229.161
227.885
226.558
225.171
223.715
222.186
220.591
218.939
217.243
215.512
213.745
211.935
210.066
208.115
206.1
204.024
201.896
199.703
197.424
195.107
192.766
190.368
187.855
185.218
182.514
179.762
176.915
173.932
221.022
221.773
222.507
223.226
223.931
224.62
225.29
225.944
226.587
227.219
227.844
228.462
229.074
229.679
230.278
230.868
231.444
232.007
232.562
233.113
233.663
234.212
234.761
235.31
235.86
236.41
236.957
237.496
238.027
238.554
239.08
239.607
240.136
240.668
241.203
241.741
242.283
242.827
243.372
243.911
244.444
244.972
245.496
246.017
246.537
247.056
247.572
248.086
248.597
249.104
249.605
250.096
250.572
251.032
251.479
251.907
252.316
252.708
253.084
253.443
253.781
254.098
254.392
254.663
254.909
255.129
255.318
255.469
255.588
255.679
255.713
255.705
255.672
255.608
255.502
255.355
255.174
254.948
254.676
254.366
254.013
253.614
253.168
252.676
252.143
251.567
250.951
250.29
249.581
248.818
248.005
247.152
246.263
245.337
244.377
243.378
242.329
241.225
240.067
238.864
237.623
236.343
235.016
233.634
232.185
230.666
229.084
227.45
225.775
224.067
222.325
220.544
218.708
216.798
214.813
212.767
210.676
208.53
206.313
204.06
201.781
199.453
197.026
194.52
191.986
189.403
186.718
183.928
231.77
232.439
233.096
233.743
234.379
235.001
235.604
236.191
236.768
237.338
237.902
238.462
239.018
239.57
240.118
240.662
241.195
241.716
242.23
242.74
243.249
243.757
244.265
244.775
245.287
245.802
246.319
246.835
247.347
247.854
248.36
248.864
249.37
249.879
250.39
250.905
251.424
251.948
252.474
253.001
253.526
254.047
254.563
255.075
255.584
256.09
256.593
257.093
257.589
258.08
258.566
259.043
259.509
259.961
260.399
260.818
261.215
261.593
261.954
262.294
262.612
262.907
263.178
263.425
263.646
263.841
264.005
264.133
264.234
264.296
264.298
264.275
264.22
264.128
263.992
263.816
263.605
263.348
263.046
262.705
262.322
261.893
261.419
260.902
260.344
259.744
259.101
258.415
257.681
256.896
256.06
255.187
254.281
253.342
252.367
251.352
250.291
249.18
248.022
246.82
245.577
244.294
242.966
241.586
240.145
238.639
237.074
235.459
233.806
232.122
230.405
228.649
226.839
224.959
223.006
220.993
218.935
216.828
214.663
212.458
210.224
207.941
205.57
203.136
200.676
198.166
195.561
192.901
190.223
242.356
242.952
243.54
244.12
244.69
245.246
245.786
246.317
246.84
247.359
247.873
248.384
248.893
249.402
249.908
250.412
250.909
251.4
251.886
252.368
252.849
253.33
253.813
254.297
254.785
255.277
255.772
256.268
256.763
257.257
257.75
258.243
258.737
259.234
259.733
260.236
260.742
261.253
261.766
262.279
262.792
263.301
263.806
264.307
264.803
265.294
265.78
266.261
266.736
267.204
267.663
268.112
268.548
268.971
269.373
269.755
270.116
270.457
270.774
271.068
271.336
271.58
271.796
271.986
272.149
272.279
272.376
272.445
272.461
272.444
272.394
272.309
272.182
272.011
271.801
271.555
271.262
270.924
270.549
270.132
269.669
269.162
268.615
268.027
267.397
266.726
266.011
265.249
264.437
263.579
262.687
261.767
260.814
259.824
258.792
257.716
256.595
255.433
254.229
252.985
251.7
250.373
248.997
247.566
246.076
244.53
242.938
241.31
239.65
237.959
236.226
234.441
232.591
230.674
228.701
226.68
224.612
222.495
220.338
218.145
215.899
213.581
211.209
208.803
206.342
203.801
201.221
198.621
251.66
252.205
252.745
253.279
253.808
254.33
254.842
255.344
255.838
256.327
256.81
257.29
257.769
258.247
258.724
259.202
259.679
260.152
260.623
261.09
261.555
262.02
262.485
262.951
263.42
263.893
264.369
264.849
265.331
265.815
266.299
266.783
267.267
267.753
268.241
268.731
269.223
269.718
270.216
270.716
271.215
271.713
272.208
272.698
273.182
273.66
274.131
274.595
275.051
275.498
275.935
276.36
276.773
277.171
277.55
277.908
278.246
278.56
278.849
279.112
279.349
279.558
279.739
279.891
280.013
280.101
280.159
280.175
280.16
280.11
280.022
279.897
279.729
279.517
279.269
278.981
278.647
278.271
277.856
277.4
276.899
276.356
275.774
275.151
274.488
273.785
273.038
272.246
271.407
270.527
269.618
268.682
267.713
266.706
265.656
264.565
263.434
262.264
261.056
259.81
258.526
257.2
255.83
254.41
252.938
251.415
249.849
248.246
246.613
244.946
243.239
241.481
239.663
237.786
235.857
233.88
231.858
229.791
227.684
225.535
223.332
221.068
218.754
216.399
213.986
211.511
208.998
206.453
260.971
261.475
261.975
262.471
262.963
263.451
263.933
264.408
264.878
265.343
265.804
266.263
266.72
267.176
267.633
268.091
268.548
269.005
269.461
269.915
270.368
270.821
271.275
271.73
272.188
272.649
273.113
273.581
274.052
274.525
274.998
275.473
275.949
276.425
276.903
277.382
277.862
278.343
278.826
279.309
279.79
280.268
280.742
281.209
281.67
282.122
282.565
282.998
283.419
283.829
284.226
284.608
284.974
285.321
285.647
285.951
286.231
286.484
286.71
286.907
287.075
287.213
287.321
287.395
287.436
287.437
287.414
287.355
287.257
287.122
286.949
286.733
286.476
286.183
285.849
285.469
285.049
284.592
284.093
283.55
282.968
282.347
281.686
280.987
280.249
279.469
278.644
277.777
276.876
275.948
274.993
274.006
272.98
271.914
270.808
269.665
268.486
267.273
266.025
264.741
263.419
262.056
260.648
259.194
257.694
256.154
254.579
252.971
251.331
249.651
247.922
246.14
244.306
242.424
240.496
238.525
236.511
234.457
232.358
230.206
228.001
225.749
223.449
221.094
218.686
216.238
213.747
269.802
270.279
270.751
271.22
271.687
272.151
272.61
273.066
273.518
273.965
274.411
274.854
275.295
275.736
276.178
276.62
277.063
277.506
277.949
278.391
278.833
279.276
279.72
280.165
280.612
281.062
281.514
281.97
282.429
282.889
283.351
283.813
284.276
284.739
285.203
285.666
286.13
286.592
287.054
287.513
287.97
288.421
288.865
289.302
289.728
290.145
290.549
290.939
291.316
291.678
292.023
292.35
292.657
292.942
293.204
293.441
293.65
293.831
293.981
294.101
294.188
294.245
294.259
294.247
294.204
294.125
294.009
293.856
293.668
293.44
293.17
292.863
292.519
292.133
291.704
291.236
290.732
290.186
289.599
288.973
288.311
287.61
286.872
286.096
285.281
284.424
283.529
282.605
281.657
280.681
279.672
278.626
277.543
276.423
275.269
274.081
272.862
271.611
270.327
269.009
267.653
266.258
264.821
263.343
261.828
260.279
258.699
257.085
255.432
253.736
251.992
250.202
248.368
246.492
244.575
242.618
240.619
238.575
236.482
234.34
232.152
229.915
227.627
225.291
222.912
220.484
218.004
215.479
277.77
278.23
278.686
279.139
279.589
280.036
280.481
280.924
281.363
281.799
282.233
282.664
283.094
283.522
283.95
284.378
284.807
285.236
285.665
286.095
286.525
286.956
287.387
287.818
288.252
288.686
289.123
289.562
290.004
290.447
290.891
291.337
291.782
292.227
292.671
293.114
293.556
293.995
294.432
294.864
295.293
295.715
296.13
296.535
296.93
297.312
297.681
298.034
298.371
298.691
298.992
299.273
299.533
299.769
299.981
300.167
300.323
300.451
300.546
300.611
300.638
300.632
300.598
300.528
300.423
300.282
300.105
299.891
299.641
299.353
299.025
298.661
298.261
297.819
297.336
296.817
296.262
295.667
295.032
294.361
293.654
292.91
292.132
291.318
290.466
289.576
288.654
287.706
286.734
285.734
284.702
283.636
282.536
281.401
280.235
279.039
277.814
276.56
275.276
273.96
272.612
271.227
269.806
268.349
266.858
265.334
263.779
262.192
260.568
258.905
257.2
255.454
253.668
251.844
249.981
248.08
246.139
244.154
242.124
240.049
237.928
235.761
233.545
231.284
228.979
226.624
224.22
221.772
285.408
285.855
286.299
286.738
287.175
287.608
288.04
288.468
288.895
289.319
289.741
290.16
290.578
290.994
291.409
291.823
292.237
292.651
293.066
293.481
293.896
294.311
294.727
295.144
295.56
295.978
296.397
296.817
297.238
297.661
298.084
298.508
298.931
299.353
299.773
300.191
300.606
301.017
301.424
301.825
302.22
302.607
302.985
303.352
303.708
304.049
304.375
304.684
304.975
305.246
305.497
305.725
305.93
306.11
306.264
306.391
306.487
306.554
306.587
306.584
306.554
306.489
306.388
306.253
306.081
305.874
305.63
305.351
305.035
304.682
304.291
303.866
303.404
302.902
302.363
301.789
301.18
300.533
299.848
299.129
298.376
297.588
296.768
295.915
295.026
294.102
293.152
292.178
291.179
290.154
289.099
288.012
286.893
285.745
284.567
283.362
282.131
280.873
279.588
278.275
276.932
275.557
274.15
272.711
271.24
269.74
268.209
266.648
265.054
263.423
261.756
260.053
258.314
256.54
254.73
252.884
251
249.076
247.11
245.102
243.051
240.955
238.815
236.632
234.403
232.128
229.806
227.44
293.17
293.601
294.029
294.453
294.874
295.292
295.708
296.121
296.531
296.94
297.346
297.75
298.152
298.553
298.952
299.351
299.749
300.146
300.544
300.941
301.339
301.736
302.134
302.531
302.929
303.327
303.724
304.123
304.521
304.919
305.316
305.712
306.106
306.497
306.885
307.267
307.645
308.016
308.38
308.736
309.082
309.417
309.74
310.049
310.343
310.619
310.877
311.114
311.33
311.523
311.692
311.836
311.953
312.041
312.104
312.132
312.127
312.096
312.03
311.93
311.794
311.624
311.417
311.175
310.897
310.583
310.234
309.848
309.427
308.97
308.479
307.952
307.388
306.789
306.158
305.492
304.79
304.054
303.285
302.485
301.652
300.79
299.896
298.969
298.013
297.033
296.03
295.004
293.952
292.872
291.764
290.628
289.465
288.276
287.061
285.823
284.561
283.274
281.962
280.623
279.257
277.862
276.438
274.986
273.506
271.998
270.462
268.895
267.297
265.666
264.003
262.308
260.581
258.822
257.028
255.2
253.335
251.431
249.489
247.507
245.484
243.419
241.312
239.163
236.97
234.733
232.45
300.184
300.603
301.018
301.43
301.837
302.242
302.643
303.042
303.438
303.831
304.222
304.61
304.997
305.381
305.763