/*--------------------------------*- C++ -*----------------------------------*\
| =========                 |                                                 |
| \\      /  F ield         | OpenFOAM: The Open Source CFD Toolbox           |
|  \\    /   O peration     | Version:  v1706                                 |
|   \\  /    A nd           | Web:      www.OpenFOAM.com                      |
|    \\/     M anipulation  |                                                 |
\*---------------------------------------------------------------------------*/
FoamFile
{
    version     2.0;
    format      ascii;
    class       volVectorField;
    location    "1.2e-05";
    object      U;
}
// * * * * * * * * * * * * * * * * * * * * * * * * * * * * * * * * * * * * * //

dimensions      [0 1 -1 0 0 0 0];


internalField   nonuniform List<vector> 
29871
(
(2764.5 -4.05421e-11 5.73123e-15)
(2764.5 -4.05978e-11 4.34402e-15)
(2764.5 -4.07148e-11 4.29349e-15)
(2764.5 -4.12716e-11 3.50362e-15)
(2764.5 -4.20315e-11 1.8324e-15)
(2764.5 -4.02476e-11 2.23934e-15)
(2764.5 -3.81512e-11 3.00481e-15)
(2764.5 -3.36873e-11 2.82018e-15)
(2764.5 -2.93648e-11 3.74285e-15)
(2764.5 -2.84193e-11 3.7744e-15)
(2764.5 -3.09081e-11 3.26457e-15)
(2764.5 -3.40438e-11 7.16826e-15)
(2764.5 -3.68988e-11 3.91967e-15)
(2764.5 -4.00754e-11 5.11616e-15)
(2764.5 -4.16138e-11 4.54531e-15)
(2764.5 -4.44704e-11 2.42323e-15)
(2764.5 -4.69809e-11 2.73364e-15)
(2764.5 -4.90401e-11 3.43859e-15)
(2764.5 -5.34506e-11 4.99663e-15)
(2764.5 -5.5108e-11 4.87003e-15)
(2764.5 -5.66175e-11 3.10309e-15)
(2764.5 -5.82841e-11 3.26683e-15)
(2764.5 -5.88671e-11 1.95301e-15)
(2764.5 -5.82135e-11 2.38623e-15)
(2764.5 -5.77003e-11 5.0251e-15)
(2764.5 -5.24643e-11 3.59073e-15)
(2764.5 -4.77043e-11 5.97022e-15)
(2764.5 -3.96045e-11 4.10706e-15)
(2764.5 -2.91063e-11 8.58822e-16)
(2764.5 -2.1366e-11 3.34533e-15)
(2764.5 -1.40236e-11 3.12017e-15)
(2764.5 -1.08315e-11 1.74091e-15)
(2764.5 -1.00313e-11 2.12653e-15)
(2764.5 -8.88611e-12 6.83452e-15)
(2764.5 -1.03507e-11 3.81156e-15)
(2764.5 -1.27857e-11 1.04485e-15)
(2764.5 -2.13199e-11 -2.29756e-16)
(2764.5 -2.64673e-11 2.4899e-15)
(2764.5 -3.3586e-11 4.11712e-15)
(2764.5 -4.23621e-11 3.8898e-15)
(2764.5 -5.25169e-11 5.59164e-15)
(2764.5 -6.44413e-11 6.14118e-15)
(2764.5 -7.6173e-11 7.71661e-15)
(2764.5 -8.58032e-11 4.07069e-15)
(2764.5 -9.64839e-11 3.37292e-15)
(2764.5 -1.08087e-10 4.58094e-15)
(2764.5 -1.19183e-10 3.39245e-15)
(2764.5 -1.27103e-10 3.42405e-16)
(2764.5 -1.30168e-10 1.32256e-15)
(2764.5 -1.28116e-10 4.70644e-15)
(2764.5 -1.18866e-10 4.86309e-15)
(2764.5 -1.07555e-10 1.57491e-15)
(2764.5 -9.75923e-11 1.5412e-15)
(2764.5 -9.02219e-11 4.46671e-15)
(2764.5 -8.19179e-11 3.31637e-15)
(2764.5 -6.88105e-11 3.28602e-15)
(2764.5 -5.14893e-11 3.63691e-15)
(2764.5 -3.2916e-11 5.4019e-15)
(2764.5 -1.98964e-11 4.11094e-15)
(2764.5 -3.31107e-12 3.68727e-15)
(2764.5 7.65678e-12 1.81323e-15)
(2764.5 1.47398e-11 3.2333e-16)
(2764.5 2.11601e-11 1.80117e-15)
(2764.5 3.00991e-11 -5.12066e-16)
(2764.5 3.92717e-11 2.96598e-15)
(2764.5 4.41218e-11 4.28312e-15)
(2764.5 4.7123e-11 2.67962e-15)
(2764.5 4.94218e-11 2.9033e-15)
(2764.5 5.1845e-11 1.39802e-15)
(2764.5 5.21929e-11 1.40847e-15)
(2764.5 4.90978e-11 2.59588e-15)
(2764.5 4.59032e-11 2.44673e-15)
(2764.5 4.33598e-11 1.4796e-15)
(2764.5 4.66749e-11 2.42479e-15)
(2764.5 4.45997e-11 2.42282e-15)
(2764.5 3.62712e-11 4.05075e-15)
(2764.5 2.77026e-11 1.40278e-15)
(2764.5 1.47891e-11 1.94046e-15)
(2764.5 -1.01357e-11 1.79186e-15)
(2764.5 -3.38468e-11 3.32873e-15)
(2764.5 -5.71922e-11 4.60874e-15)
(2764.5 -7.18001e-11 4.59649e-15)
(2764.5 -9.42188e-11 5.49297e-15)
(2764.5 -1.12153e-10 2.62674e-15)
(2764.5 -1.26433e-10 5.70743e-15)
(2764.5 -1.35425e-10 3.70028e-15)
(2764.5 -1.35689e-10 3.23828e-15)
(2764.5 -1.34299e-10 4.03133e-15)
(2764.5 -1.30422e-10 4.93791e-15)
(2764.5 -1.21656e-10 4.03258e-15)
(2764.5 -1.06369e-10 4.36189e-15)
(2764.5 -8.82709e-11 1.69961e-15)
(2764.5 -6.71413e-11 2.80225e-15)
(2764.5 -3.72873e-11 4.17067e-15)
(2764.5 -9.28609e-12 1.3308e-15)
(2764.5 7.24614e-12 1.5914e-15)
(2764.5 1.18268e-11 1.88e-15)
(2764.5 8.30812e-12 2.50302e-15)
(2764.5 5.23433e-12 2.54403e-15)
(2764.5 -6.45834e-12 2.43876e-15)
(2764.5 -2.43698e-11 3.71909e-15)
(2764.5 -4.546e-11 4.36988e-15)
(2764.5 -6.23e-11 2.036e-15)
(2764.5 -7.00783e-11 2.22604e-15)
(2764.5 -6.98827e-11 8.51992e-16)
(2764.5 -1.18059e-10 1.07751e-14)
(2764.5 -1.21356e-10 8.30647e-15)
(2764.5 -1.23418e-10 1.2115e-14)
(2764.5 -1.23046e-10 1.22075e-14)
(2764.5 -1.26224e-10 1.07877e-14)
(2764.5 -1.2873e-10 1.35029e-14)
(2764.5 -1.34234e-10 1.26336e-14)
(2764.5 -1.37448e-10 1.16009e-14)
(2764.5 -1.35889e-10 1.2255e-14)
(2764.5 -1.32088e-10 1.19787e-14)
(2764.5 -1.25026e-10 1.18321e-14)
(2764.5 -1.12919e-10 1.18971e-14)
(2764.5 -1.07336e-10 1.37704e-14)
(2764.5 -1.03021e-10 1.11772e-14)
(2764.5 -9.98817e-11 5.20287e-15)
(2764.5 -9.47057e-11 7.57847e-15)
(2764.5 -9.18799e-11 1.06096e-14)
(2764.5 -8.33056e-11 1.08997e-14)
(2764.5 -7.90587e-11 9.64282e-15)
(2764.5 -7.91192e-11 7.58931e-15)
(2764.5 -7.84286e-11 7.69517e-15)
(2764.5 -8.07192e-11 9.89873e-15)
(2764.5 -8.9157e-11 1.13346e-14)
(2764.5 -1.02124e-10 1.42506e-14)
(2764.5 -1.17594e-10 1.08257e-14)
(2764.5 -1.35767e-10 1.1036e-14)
(2764.5 -1.49765e-10 1.21639e-14)
(2764.5 -1.70322e-10 1.15202e-14)
(2764.5 -1.87861e-10 1.21767e-14)
(2764.5 -1.99444e-10 1.14719e-14)
(2764.5 -2.04445e-10 1.34203e-14)
(2764.5 -2.0597e-10 7.48374e-15)
(2764.5 -2.0505e-10 9.14797e-15)
(2764.5 -1.97984e-10 1.42373e-14)
(2764.5 -1.87023e-10 1.24055e-14)
(2764.5 -1.68408e-10 1.3206e-14)
(2764.5 -1.43065e-10 7.34436e-15)
(2764.5 -1.17409e-10 1.13204e-14)
(2764.5 -8.98119e-11 1.01591e-14)
(2764.5 -5.65622e-11 1.01908e-14)
(2764.5 -3.20086e-11 1.17175e-14)
(2764.5 -5.32583e-13 9.56951e-15)
(2764.5 1.6646e-11 1.00314e-14)
(2764.5 3.6302e-11 9.68529e-15)
(2764.5 5.9609e-11 9.05987e-15)
(2764.5 7.84927e-11 9.94677e-15)
(2764.5 8.73057e-11 1.11198e-14)
(2764.5 8.94729e-11 6.93554e-15)
(2764.5 8.11826e-11 9.14824e-15)
(2764.5 6.88417e-11 9.8551e-15)
(2764.5 4.18515e-11 6.12887e-15)
(2764.5 6.47893e-12 9.37002e-15)
(2764.5 -2.72431e-11 1.2883e-14)
(2764.5 -4.89034e-11 1.02732e-14)
(2764.5 -7.7198e-11 1.02572e-14)
(2764.5 -1.0817e-10 1.0731e-14)
(2764.5 -1.40689e-10 1.17257e-14)
(2764.5 -1.73271e-10 1.36521e-14)
(2764.5 -2.03889e-10 7.90255e-15)
(2764.5 -2.32185e-10 6.96178e-15)
(2764.5 -2.49619e-10 1.02727e-14)
(2764.5 -2.62175e-10 6.43519e-15)
(2764.5 -2.69845e-10 8.60629e-15)
(2764.5 -2.82562e-10 7.29799e-15)
(2764.5 -2.9459e-10 8.65574e-15)
(2764.5 -2.97903e-10 9.15939e-15)
(2764.5 -3.00545e-10 7.45356e-15)
(2764.5 -3.00464e-10 9.02829e-15)
(2764.5 -3.02017e-10 9.92238e-15)
(2764.5 -3.02223e-10 8.81457e-15)
(2764.5 -2.99946e-10 1.01754e-14)
(2764.5 -2.94583e-10 8.55956e-15)
(2764.5 -2.91682e-10 7.03101e-15)
(2764.5 -2.92814e-10 8.88406e-15)
(2764.5 -2.86974e-10 8.29338e-15)
(2764.5 -2.73616e-10 8.46483e-15)
(2764.5 -2.5664e-10 7.19513e-15)
(2764.5 -2.23468e-10 8.19141e-15)
(2764.5 -1.72223e-10 7.77976e-15)
(2764.5 -1.20094e-10 1.06772e-14)
(2764.5 -8.41495e-11 9.45834e-15)
(2764.5 -3.79203e-11 8.32914e-15)
(2764.5 1.38575e-11 7.99039e-15)
(2764.5 5.79043e-11 8.82714e-15)
(2764.5 9.29812e-11 9.5441e-15)
(2764.5 1.14341e-10 1.04234e-14)
(2764.5 1.15589e-10 1.1383e-14)
(2764.5 1.05724e-10 1.00351e-14)
(2764.5 9.52368e-11 1.07828e-14)
(2764.5 6.98663e-11 1.07635e-14)
(2764.5 2.78715e-11 9.95558e-15)
(2764.5 -4.60863e-12 7.0957e-15)
(2764.5 -5.32931e-11 1.20334e-14)
(2764.5 -1.21644e-10 1.22367e-14)
(2764.5 -1.76975e-10 9.82253e-15)
(2764.5 -2.02124e-10 8.39093e-15)
(2764.5 -2.16214e-10 9.21989e-15)
(2764.5 -2.15376e-10 9.33602e-15)
(2764.5 -2.06774e-10 8.68413e-15)
(2764.5 -1.80555e-10 6.30038e-15)
(2764.5 -1.40297e-10 7.21233e-15)
(2764.5 -9.60211e-11 1.10145e-14)
(2764.5 -5.38516e-11 6.39588e-15)
(2764.5 -3.96611e-11 7.05383e-15)
(2764.5 -4.42204e-11 6.95958e-15)
(2764.5 -2.08665e-10 2.20302e-14)
(2764.5 -2.00725e-10 2.38901e-14)
(2764.5 -1.94391e-10 1.65686e-14)
(2764.5 -1.89551e-10 1.93083e-14)
(2764.5 -1.8515e-10 2.27817e-14)
(2764.5 -1.83103e-10 1.97057e-14)
(2764.5 -1.82956e-10 1.98683e-14)
(2764.5 -1.82268e-10 1.75318e-14)
(2764.5 -1.9027e-10 2.2404e-14)
(2764.5 -1.99504e-10 2.19016e-14)
(2764.5 -2.09036e-10 1.83723e-14)
(2764.5 -2.18085e-10 1.6926e-14)
(2764.5 -2.23363e-10 1.36581e-14)
(2764.5 -2.27553e-10 1.64528e-14)
(2764.5 -2.33557e-10 1.89572e-14)
(2764.5 -2.36873e-10 1.93835e-14)
(2764.5 -2.46767e-10 1.76694e-14)
(2764.5 -2.51164e-10 1.82731e-14)
(2764.5 -2.53231e-10 1.7083e-14)
(2764.5 -2.48726e-10 1.69279e-14)
(2764.5 -2.39458e-10 1.71769e-14)
(2764.5 -2.23966e-10 1.38674e-14)
(2764.5 -2.04145e-10 1.3401e-14)
(2764.5 -1.76938e-10 2.06761e-14)
(2764.5 -1.48361e-10 1.32577e-14)
(2764.5 -1.18571e-10 1.54025e-14)
(2764.5 -1.01633e-10 1.8019e-14)
(2764.5 -8.53383e-11 1.69516e-14)
(2764.5 -6.99885e-11 1.62561e-14)
(2764.5 -6.11869e-11 1.6926e-14)
(2764.5 -6.07808e-11 1.65543e-14)
(2764.5 -7.14123e-11 1.78295e-14)
(2764.5 -9.0323e-11 1.71198e-14)
(2764.5 -1.17462e-10 1.78644e-14)
(2764.5 -1.49045e-10 1.89176e-14)
(2764.5 -1.9451e-10 1.90553e-14)
(2764.5 -2.38361e-10 2.00139e-14)
(2764.5 -2.77407e-10 1.92104e-14)
(2764.5 -3.14538e-10 1.83111e-14)
(2764.5 -3.4322e-10 2.0417e-14)
(2764.5 -3.70067e-10 1.98042e-14)
(2764.5 -3.85593e-10 1.77205e-14)
(2764.5 -4.02664e-10 1.74483e-14)
(2764.5 -4.13553e-10 1.6918e-14)
(2764.5 -4.2862e-10 1.77693e-14)
(2764.5 -4.37011e-10 1.74627e-14)
(2764.5 -4.36628e-10 1.87288e-14)
(2764.5 -4.28877e-10 1.88795e-14)
(2764.5 -4.12703e-10 1.60633e-14)
(2764.5 -3.91458e-10 1.53846e-14)
(2764.5 -3.6914e-10 1.2393e-14)
(2764.5 -3.34495e-10 1.57569e-14)
(2764.5 -2.82633e-10 1.42198e-14)
(2764.5 -2.1842e-10 1.21611e-14)
(2764.5 -1.55801e-10 1.30104e-14)
(2764.5 -1.23477e-10 1.60766e-14)
(2764.5 -9.25129e-11 1.40059e-14)
(2764.5 -6.28521e-11 1.64114e-14)
(2764.5 -2.23933e-11 1.97767e-14)
(2764.5 2.33079e-12 1.66918e-14)
(2764.5 3.00837e-11 1.5284e-14)
(2764.5 4.9128e-11 1.26055e-14)
(2764.5 5.91134e-11 1.54542e-14)
(2764.5 6.55398e-11 1.85871e-14)
(2764.5 7.19861e-11 1.41673e-14)
(2764.5 7.32391e-11 1.45169e-14)
(2764.5 7.22705e-11 1.44428e-14)
(2764.5 7.12085e-11 1.46491e-14)
(2764.5 7.09155e-11 1.52855e-14)
(2764.5 7.3899e-11 1.57805e-14)
(2764.5 7.2252e-11 1.49891e-14)
(2764.5 6.08529e-11 1.81522e-14)
(2764.5 4.98385e-11 1.38525e-14)
(2764.5 3.97535e-11 1.46415e-14)
(2764.5 3.39623e-11 1.58102e-14)
(2764.5 1.55695e-11 1.28775e-14)
(2764.5 1.30528e-12 1.47646e-14)
(2764.5 -2.41816e-11 1.72225e-14)
(2764.5 -7.86254e-11 1.49947e-14)
(2764.5 -1.60157e-10 1.29664e-14)
(2764.5 -2.32952e-10 1.60391e-14)
(2764.5 -2.99739e-10 1.51713e-14)
(2764.5 -3.61332e-10 1.63189e-14)
(2764.5 -3.95142e-10 1.4709e-14)
(2764.5 -4.33001e-10 1.6487e-14)
(2764.5 -4.60986e-10 1.78996e-14)
(2764.5 -4.65909e-10 1.60692e-14)
(2764.5 -4.56084e-10 1.56327e-14)
(2764.5 -4.38878e-10 1.69109e-14)
(2764.5 -4.1133e-10 1.58333e-14)
(2764.5 -3.59778e-10 1.62398e-14)
(2764.5 -3.04414e-10 1.49536e-14)
(2764.5 -2.64356e-10 1.40923e-14)
(2764.5 -1.90673e-10 1.52252e-14)
(2764.5 -9.95777e-11 1.73115e-14)
(2764.5 -3.00887e-11 1.56239e-14)
(2764.5 -8.23977e-12 1.15588e-14)
(2764.5 -2.05178e-11 1.59315e-14)
(2764.5 -4.48355e-11 1.436e-14)
(2764.5 -7.12202e-11 1.35524e-14)
(2764.5 -1.327e-10 1.40593e-14)
(2764.5 -1.89886e-10 1.40519e-14)
(2764.5 -2.37017e-10 1.38036e-14)
(2764.5 -2.73948e-10 1.28798e-14)
(2764.5 -2.75452e-10 1.26209e-14)
(2764.5 -2.64938e-10 1.27246e-14)
(2764.5 -3.13074e-10 2.95265e-14)
(2764.5 -3.1756e-10 3.4859e-14)
(2764.5 -3.24604e-10 2.68271e-14)
(2764.5 -3.25848e-10 2.77775e-14)
(2764.5 -3.24775e-10 2.87061e-14)
(2764.5 -3.21978e-10 2.69722e-14)
(2764.5 -3.1154e-10 2.95477e-14)
(2764.5 -3.0117e-10 2.88267e-14)
(2764.5 -2.91381e-10 2.64874e-14)
(2764.5 -2.7638e-10 2.31653e-14)
(2764.5 -2.65526e-10 2.56993e-14)
(2764.5 -2.55498e-10 2.45701e-14)
(2764.5 -2.38214e-10 2.51964e-14)
(2764.5 -2.12072e-10 2.48187e-14)
(2764.5 -1.88944e-10 2.4584e-14)
(2764.5 -1.73836e-10 2.2125e-14)
(2764.5 -1.70407e-10 2.20694e-14)
(2764.5 -1.78312e-10 2.28349e-14)
(2764.5 -1.97198e-10 2.284e-14)
(2764.5 -2.24245e-10 2.51109e-14)
(2764.5 -2.5154e-10 2.17459e-14)
(2764.5 -2.99875e-10 2.76686e-14)
(2764.5 -3.42794e-10 2.86485e-14)
(2764.5 -3.72062e-10 2.69317e-14)
(2764.5 -4.01666e-10 2.52931e-14)
(2764.5 -4.30414e-10 2.57366e-14)
(2764.5 -4.46004e-10 2.87294e-14)
(2764.5 -4.68594e-10 2.54571e-14)
(2764.5 -4.81744e-10 2.28374e-14)
(2764.5 -4.76977e-10 2.47669e-14)
(2764.5 -4.65425e-10 2.4389e-14)
(2764.5 -4.20335e-10 2.52089e-14)
(2764.5 -3.68118e-10 2.33586e-14)
(2764.5 -2.93076e-10 2.55484e-14)
(2764.5 -2.2701e-10 2.56317e-14)
(2764.5 -1.6493e-10 2.42893e-14)
(2764.5 -1.06296e-10 2.59744e-14)
(2764.5 -5.7602e-11 2.36769e-14)
(2764.5 -1.13925e-11 2.44855e-14)
(2764.5 9.72461e-12 2.26572e-14)
(2764.5 4.35294e-11 2.37157e-14)
(2764.5 8.62833e-11 2.72416e-14)
(2764.5 1.16764e-10 2.35406e-14)
(2764.5 1.5451e-10 2.48943e-14)
(2764.5 1.81032e-10 2.55251e-14)
(2764.5 1.95211e-10 2.33015e-14)
(2764.5 1.89258e-10 2.32734e-14)
(2764.5 1.27086e-10 2.13172e-14)
(2764.5 4.74659e-11 2.96751e-14)
(2764.5 -3.46273e-11 2.31777e-14)
(2764.5 -4.26912e-11 2.17189e-14)
(2764.5 -7.13726e-11 2.25143e-14)
(2764.5 -1.25876e-10 2.27819e-14)
(2764.5 -1.96557e-10 2.49281e-14)
(2764.5 -3.23751e-10 2.124e-14)
(2764.5 -4.03463e-10 1.94106e-14)
(2764.5 -4.43302e-10 2.34561e-14)
(2764.5 -4.66367e-10 2.34393e-14)
(2764.5 -4.94186e-10 2.21616e-14)
(2764.5 -5.23641e-10 2.12468e-14)
(2764.5 -5.58881e-10 2.38829e-14)
(2764.5 -5.7999e-10 2.16899e-14)
(2764.5 -5.99655e-10 2.04059e-14)
(2764.5 -6.09927e-10 1.97401e-14)
(2764.5 -6.22159e-10 2.00188e-14)
(2764.5 -6.28555e-10 2.05043e-14)
(2764.5 -6.33905e-10 1.99468e-14)
(2764.5 -6.36044e-10 2.00137e-14)
(2764.5 -6.36169e-10 1.96431e-14)
(2764.5 -6.33899e-10 1.96651e-14)
(2764.5 -6.27007e-10 2.05166e-14)
(2764.5 -6.15111e-10 2.06403e-14)
(2764.5 -6.04334e-10 2.08744e-14)
(2764.5 -5.88706e-10 2.16109e-14)
(2764.5 -5.76513e-10 1.90863e-14)
(2764.5 -5.57873e-10 1.89191e-14)
(2764.5 -5.29169e-10 2.09164e-14)
(2764.5 -4.75913e-10 2.08957e-14)
(2764.5 -4.32251e-10 2.12484e-14)
(2764.5 -3.15549e-10 2.33728e-14)
(2764.5 -9.54804e-11 2.20503e-14)
(2764.5 8.91182e-11 1.95192e-14)
(2764.5 1.68072e-10 1.88734e-14)
(2764.5 2.06609e-10 1.91521e-14)
(2764.5 2.5524e-10 2.07385e-14)
(2764.5 2.71106e-10 1.75544e-14)
(2764.5 2.58584e-10 1.8722e-14)
(2764.5 2.15451e-10 2.2981e-14)
(2764.5 1.61597e-10 2.22055e-14)
(2764.5 9.44025e-11 1.95309e-14)
(2764.5 4.3798e-13 1.99239e-14)
(2764.5 -8.25508e-11 1.99442e-14)
(2764.5 -1.4623e-10 2.08021e-14)
(2764.5 -2.94609e-10 2.41611e-14)
(2764.5 -4.52877e-10 2.04859e-14)
(2764.5 -5.28763e-10 1.74986e-14)
(2764.5 -5.36026e-10 2.39216e-14)
(2764.5 -5.09997e-10 2.39795e-14)
(2764.5 -4.65229e-10 1.87083e-14)
(2764.5 -3.91673e-10 2.07023e-14)
(2764.5 -3.3088e-10 2.10557e-14)
(2764.5 -2.23289e-10 1.95119e-14)
(2764.5 -1.43544e-10 1.9857e-14)
(2764.5 -1.27884e-10 1.91005e-14)
(2764.5 -1.25727e-10 1.77981e-14)
(2764.5 -1.55728e-10 1.81636e-14)
(2764.5 -3.26168e-10 3.4529e-14)
(2764.5 -3.10977e-10 3.60344e-14)
(2764.5 -3.02834e-10 3.45751e-14)
(2764.5 -2.95633e-10 3.29529e-14)
(2764.5 -2.98683e-10 3.63475e-14)
(2764.5 -3.0937e-10 3.51227e-14)
(2764.5 -3.29772e-10 3.41781e-14)
(2764.5 -3.45449e-10 3.66519e-14)
(2764.5 -3.77518e-10 3.94655e-14)
(2764.5 -4.1323e-10 3.99322e-14)
(2764.5 -4.42951e-10 3.60886e-14)
(2764.5 -4.61313e-10 3.5622e-14)
(2764.5 -4.97167e-10 3.88454e-14)
(2764.5 -5.42945e-10 3.43352e-14)
(2764.5 -5.647e-10 3.37239e-14)
(2764.5 -5.63068e-10 3.73577e-14)
(2764.5 -5.5161e-10 3.49585e-14)
(2764.5 -5.1321e-10 3.66422e-14)
(2764.5 -4.57951e-10 3.69137e-14)
(2764.5 -3.9163e-10 3.29796e-14)
(2764.5 -3.04334e-10 3.2585e-14)
(2764.5 -2.52629e-10 3.12874e-14)
(2764.5 -1.8288e-10 3.28153e-14)
(2764.5 -1.2225e-10 3.61832e-14)
(2764.5 -7.37168e-11 3.38543e-14)
(2764.5 -2.54084e-11 3.27115e-14)
(2764.5 2.42141e-11 3.43984e-14)
(2764.5 7.4658e-11 2.94261e-14)
(2764.5 9.54141e-11 2.87356e-14)
(2764.5 8.26359e-11 3.12042e-14)
(2764.5 -1.16258e-11 3.14272e-14)
(2764.5 -1.06544e-10 3.12326e-14)
(2764.5 -2.42671e-10 3.19333e-14)
(2764.5 -3.82308e-10 3.19457e-14)
(2764.5 -4.47581e-10 3.26193e-14)
(2764.5 -5.14239e-10 3.16505e-14)
(2764.5 -5.78731e-10 3.30924e-14)
(2764.5 -6.43789e-10 3.48199e-14)
(2764.5 -6.91808e-10 2.95749e-14)
(2764.5 -7.5284e-10 2.89418e-14)
(2764.5 -8.05546e-10 3.24588e-14)
(2764.5 -8.5744e-10 3.30753e-14)
(2764.5 -9.10839e-10 3.08113e-14)
(2764.5 -9.54588e-10 3.03793e-14)
(2764.5 -9.91026e-10 3.23752e-14)
(2764.5 -1.02362e-09 3.25606e-14)
(2764.5 -1.03244e-09 3.21229e-14)
(2764.5 -1.00175e-09 3.24804e-14)
(2764.5 -8.21424e-10 2.98388e-14)
(2764.5 -3.27089e-10 3.25337e-14)
(2764.5 -1.81786e-10 3.11593e-14)
(2764.5 -2.23675e-10 2.98084e-14)
(2764.5 -3.42355e-10 2.95997e-14)
(2764.5 -3.39654e-10 3.39674e-14)
(2764.5 -2.53544e-10 3.37468e-14)
(2764.5 1.1426e-10 3.29503e-14)
(2764.5 4.75196e-10 3.34233e-14)
(2764.5 5.74479e-10 3.4346e-14)
(2764.5 6.45086e-10 3.30674e-14)
(2764.5 6.99179e-10 3.1918e-14)
(2764.5 7.34816e-10 2.98902e-14)
(2764.5 7.67588e-10 3.36141e-14)
(2764.5 8.03619e-10 3.15955e-14)
(2764.5 8.26624e-10 3.1035e-14)
(2764.5 8.40924e-10 3.22486e-14)
(2764.5 8.40584e-10 3.13443e-14)
(2764.5 8.34537e-10 2.85812e-14)
(2764.5 8.2655e-10 2.9551e-14)
(2764.5 8.11859e-10 2.86131e-14)
(2764.5 7.92929e-10 2.97646e-14)
(2764.5 7.67062e-10 3.06945e-14)
(2764.5 7.4371e-10 2.96632e-14)
(2764.5 7.11689e-10 3.20232e-14)
(2764.5 6.53042e-10 3.07897e-14)
(2764.5 5.95631e-10 2.88726e-14)
(2764.5 5.63486e-10 3.01369e-14)
(2764.5 5.22952e-10 2.97032e-14)
(2764.5 4.38808e-10 3.06088e-14)
(2764.5 3.39594e-10 3.10302e-14)
(2764.5 2.0847e-10 3.07674e-14)
(2764.5 -3.14522e-12 3.12277e-14)
(2764.5 -2.0031e-10 3.09748e-14)
(2764.5 -7.15167e-10 2.78946e-14)
(2764.5 -1.05857e-09 2.42988e-14)
(2764.5 -1.14764e-09 2.67117e-14)
(2764.5 -1.16863e-09 2.72108e-14)
(2764.5 -1.16e-09 2.69114e-14)
(2764.5 -1.09475e-09 2.60617e-14)
(2764.5 -9.69503e-10 2.75755e-14)
(2764.5 -8.4762e-10 2.51317e-14)
(2764.5 -7.40254e-10 2.54646e-14)
(2764.5 -6.1751e-10 2.88254e-14)
(2764.5 -4.9684e-10 2.64966e-14)
(2764.5 -3.89235e-10 2.55568e-14)
(2764.5 -1.23644e-10 2.77121e-14)
(2764.5 7.59594e-11 2.53299e-14)
(2764.5 1.15652e-10 2.71569e-14)
(2764.5 1.02577e-10 2.81226e-14)
(2764.5 4.8061e-11 2.52703e-14)
(2764.5 -3.02539e-11 2.58082e-14)
(2764.5 -1.21648e-10 2.82958e-14)
(2764.5 -3.34177e-10 2.43632e-14)
(2764.5 -4.81518e-10 2.576e-14)
(2764.5 -5.35501e-10 2.7169e-14)
(2764.5 -5.41568e-10 2.53152e-14)
(2764.5 -5.1884e-10 2.54292e-14)
(2764.5 -4.71724e-10 2.66465e-14)
(2764.5 -5.9585e-10 4.71504e-14)
(2764.5 -6.0979e-10 4.53534e-14)
(2764.5 -6.09066e-10 4.51907e-14)
(2764.5 -5.95429e-10 4.38829e-14)
(2764.5 -5.52779e-10 4.49621e-14)
(2764.5 -5.00523e-10 4.51416e-14)
(2764.5 -4.55293e-10 4.8048e-14)
(2764.5 -3.84445e-10 4.3391e-14)
(2764.5 -3.13955e-10 4.65447e-14)
(2764.5 -2.49689e-10 4.80474e-14)
(2764.5 -1.77281e-10 4.18388e-14)
(2764.5 -1.16956e-10 4.41047e-14)
(2764.5 -6.67607e-11 4.50123e-14)
(2764.5 -3.92224e-11 4.32396e-14)
(2764.5 -5.55192e-11 4.54858e-14)
(2764.5 -1.31897e-10 4.41165e-14)
(2764.5 -2.53408e-10 4.11558e-14)
(2764.5 -3.60092e-10 4.16782e-14)
(2764.5 -4.88369e-10 4.1908e-14)
(2764.5 -5.6599e-10 4.20329e-14)
(2764.5 -6.3972e-10 4.19797e-14)
(2764.5 -7.02498e-10 4.23737e-14)
(2764.5 -7.61818e-10 4.51899e-14)
(2764.5 -8.28132e-10 4.27257e-14)
(2764.5 -8.89256e-10 3.53362e-14)
(2764.5 -9.53416e-10 3.70154e-14)
(2764.5 -9.92711e-10 3.72812e-14)
(2764.5 -1.02453e-09 3.70011e-14)
(2764.5 -1.02223e-09 3.98684e-14)
(2764.5 -9.19903e-10 3.9459e-14)
(2764.5 -5.22995e-10 4.09784e-14)
(2764.5 6.20542e-11 4.22635e-14)
(2764.5 2.50058e-10 4.36524e-14)
(2764.5 4.01551e-10 4.20088e-14)
(2764.5 5.56367e-10 4.48105e-14)
(2764.5 7.02484e-10 4.42514e-14)
(2764.5 8.40969e-10 4.25661e-14)
(2764.5 9.81092e-10 4.12012e-14)
(2764.5 1.13275e-09 3.97839e-14)
(2764.5 1.31312e-09 4.27921e-14)
(2764.5 1.50726e-09 4.19357e-14)
(2764.5 1.68848e-09 4.14656e-14)
(2764.5 1.89034e-09 4.2048e-14)
(2764.5 2.11459e-09 4.04909e-14)
(2764.5 2.35026e-09 4.32762e-14)
(2764.5 2.65244e-09 4.25257e-14)
(2764.5 2.92261e-09 4.15813e-14)
(2764.5 3.05293e-09 4.16643e-14)
(2764.5 3.04787e-09 3.94949e-14)
(2764.5 2.92916e-09 4.11558e-14)
(2764.5 3.08718e-09 3.92932e-14)
(2764.5 3.38391e-09 3.58156e-14)
(2764.5 3.85863e-09 3.82168e-14)
(2764.5 4.36963e-09 4.16701e-14)
(2764.5 4.63554e-09 4.35126e-14)
(2764.5 4.69142e-09 4.25096e-14)
(2764.5 4.79776e-09 4.16015e-14)
(2764.5 4.99369e-09 3.74095e-14)
(2764.5 5.24709e-09 3.63111e-14)
(2764.5 5.46358e-09 3.88314e-14)
(2764.5 5.6401e-09 3.79343e-14)
(2764.5 5.78995e-09 3.74971e-14)
(2764.5 5.92666e-09 3.72124e-14)
(2764.5 6.02843e-09 3.99551e-14)
(2764.5 6.0941e-09 3.55035e-14)
(2764.5 6.11547e-09 3.45928e-14)
(2764.5 6.1048e-09 4.24334e-14)
(2764.5 6.06265e-09 3.89836e-14)
(2764.5 5.98677e-09 3.30342e-14)
(2764.5 5.87077e-09 3.7056e-14)
(2764.5 5.7251e-09 3.74118e-14)
(2764.5 5.57886e-09 3.38851e-14)
(2764.5 5.39856e-09 3.50447e-14)
(2764.5 5.15738e-09 3.69212e-14)
(2764.5 4.89578e-09 3.63389e-14)
(2764.5 4.64403e-09 3.60128e-14)
(2764.5 4.42416e-09 3.60083e-14)
(2764.5 4.108e-09 3.7307e-14)
(2764.5 3.67012e-09 3.71995e-14)
(2764.5 3.20375e-09 3.48338e-14)
(2764.5 2.72503e-09 3.3261e-14)
(2764.5 2.51951e-09 3.57447e-14)
(2764.5 2.62507e-09 3.80159e-14)
(2764.5 2.52102e-09 3.71716e-14)
(2764.5 2.25403e-09 3.63687e-14)
(2764.5 1.9865e-09 3.54118e-14)
(2764.5 1.6739e-09 3.54459e-14)
(2764.5 1.34433e-09 3.60525e-14)
(2764.5 1.04005e-09 3.70078e-14)
(2764.5 8.1968e-10 3.4961e-14)
(2764.5 6.53287e-10 3.6243e-14)
(2764.5 3.35849e-10 3.37124e-14)
(2764.5 8.824e-11 3.29796e-14)
(2764.5 -4.44881e-10 3.4946e-14)
(2764.5 -9.63959e-10 3.52514e-14)
(2764.5 -1.2116e-09 2.99633e-14)
(2764.5 -1.21901e-09 2.9932e-14)
(2764.5 -1.13622e-09 3.16968e-14)
(2764.5 -9.61952e-10 2.97186e-14)
(2764.5 -7.66357e-10 2.88367e-14)
(2764.5 -5.39446e-10 3.27144e-14)
(2764.5 -3.09855e-10 3.14383e-14)
(2764.5 -3.66183e-11 3.39858e-14)
(2764.5 4.03396e-11 3.21919e-14)
(2764.5 1.63237e-11 3.08405e-14)
(2764.5 -5.74192e-11 2.98559e-14)
(2764.5 -2.1205e-10 3.30645e-14)
(2764.5 -2.8636e-10 5.07104e-14)
(2764.5 -2.21512e-10 5.08596e-14)
(2764.5 -1.75045e-10 5.21514e-14)
(2764.5 -1.74049e-10 4.81076e-14)
(2764.5 -2.2445e-10 4.82668e-14)
(2764.5 -3.13593e-10 5.01375e-14)
(2764.5 -4.4583e-10 4.86792e-14)
(2764.5 -5.41067e-10 5.70198e-14)
(2764.5 -6.51861e-10 5.49754e-14)
(2764.5 -7.18797e-10 5.53445e-14)
(2764.5 -7.83838e-10 5.05279e-14)
(2764.5 -8.62054e-10 5.01235e-14)
(2764.5 -9.21612e-10 5.48741e-14)
(2764.5 -9.8148e-10 5.0164e-14)
(2764.5 -1.0464e-09 4.87224e-14)
(2764.5 -1.0814e-09 5.05469e-14)
(2764.5 -1.06645e-09 5.02047e-14)
(2764.5 -9.26162e-10 5.02182e-14)
(2764.5 -5.66788e-10 5.15879e-14)
(2764.5 -4.96846e-12 5.22691e-14)
(2764.5 2.8052e-10 5.13798e-14)
(2764.5 4.52668e-10 5.2047e-14)
(2764.5 6.25814e-10 5.21587e-14)
(2764.5 8.06699e-10 5.13181e-14)
(2764.5 1.01824e-09 5.11118e-14)
(2764.5 1.23346e-09 5.39641e-14)
(2764.5 1.47342e-09 5.33058e-14)
(2764.5 1.74746e-09 5.21094e-14)
(2764.5 2.03618e-09 5.32579e-14)
(2764.5 2.36859e-09 5.19701e-14)
(2764.5 2.77221e-09 5.0502e-14)
(2764.5 3.17906e-09 4.95493e-14)
(2764.5 3.26497e-09 5.15208e-14)
(2764.5 3.23216e-09 5.14258e-14)
(2764.5 3.51036e-09 5.03123e-14)
(2764.5 4.06934e-09 4.85278e-14)
(2764.5 4.72977e-09 4.61458e-14)
(2764.5 5.38663e-09 4.82156e-14)
(2764.5 6.06132e-09 4.85696e-14)
(2764.5 6.76027e-09 4.88952e-14)
(2764.5 7.50214e-09 4.90712e-14)
(2764.5 8.29965e-09 4.91649e-14)
(2764.5 9.17463e-09 4.72987e-14)
(2764.5 1.0111e-08 4.7358e-14)
(2764.5 1.1094e-08 4.91093e-14)
(2764.5 1.21524e-08 4.91926e-14)
(2764.5 1.32949e-08 4.78933e-14)
(2764.5 1.45002e-08 4.8715e-14)
(2764.5 1.58281e-08 4.99989e-14)
(2764.5 1.72492e-08 4.9854e-14)
(2764.5 1.87416e-08 4.75882e-14)
(2764.5 2.0232e-08 4.64548e-14)
(2764.5 2.18202e-08 4.72972e-14)
(2764.5 2.36311e-08 4.62244e-14)
(2764.5 2.57449e-08 4.89647e-14)
(2764.5 2.79543e-08 4.45473e-14)
(2764.5 3.00058e-08 4.27896e-14)
(2764.5 3.18986e-08 4.7774e-14)
(2764.5 3.38952e-08 4.77139e-14)
(2764.5 3.62024e-08 4.48871e-14)
(2764.5 3.8589e-08 4.43564e-14)
(2764.5 4.07325e-08 4.67776e-14)
(2764.5 4.26222e-08 4.36857e-14)
(2764.5 4.42965e-08 4.36893e-14)
(2764.5 4.57432e-08 4.4846e-14)
(2764.5 4.69546e-08 4.17477e-14)
(2764.5 4.78868e-08 4.81151e-14)
(2764.5 4.84947e-08 4.52565e-14)
(2764.5 4.87805e-08 4.39184e-14)
(2764.5 4.88076e-08 4.62896e-14)
(2764.5 4.84866e-08 4.4164e-14)
(2764.5 4.7835e-08 4.32819e-14)
(2764.5 4.68607e-08 4.15172e-14)
(2764.5 4.56249e-08 4.18894e-14)
(2764.5 4.41736e-08 4.34851e-14)
(2764.5 4.24768e-08 4.24093e-14)
(2764.5 4.05084e-08 4.28508e-14)
(2764.5 3.83543e-08 4.3457e-14)
(2764.5 3.61236e-08 4.11112e-14)
(2764.5 3.37608e-08 4.1668e-14)
(2764.5 3.12114e-08 4.12154e-14)
(2764.5 2.86444e-08 4.15428e-14)
(2764.5 2.62374e-08 4.12782e-14)
(2764.5 2.40894e-08 3.95201e-14)
(2764.5 2.18321e-08 4.25312e-14)
(2764.5 1.90955e-08 4.2503e-14)
(2764.5 1.64467e-08 4.26455e-14)
(2764.5 1.42646e-08 4.17914e-14)
(2764.5 1.23093e-08 3.99602e-14)
(2764.5 1.04555e-08 3.96176e-14)
(2764.5 8.77428e-09 3.98231e-14)
(2764.5 7.23786e-09 4.08298e-14)
(2764.5 6.04828e-09 4.24389e-14)
(2764.5 5.12148e-09 3.87293e-14)
(2764.5 3.92489e-09 3.75722e-14)
(2764.5 3.39543e-09 4.32533e-14)
(2764.5 3.19455e-09 4.16136e-14)
(2764.5 2.6335e-09 4.37276e-14)
(2764.5 2.03447e-09 4.2108e-14)
(2764.5 1.43863e-09 4.07277e-14)
(2764.5 1.03238e-09 3.99918e-14)
(2764.5 5.95259e-10 3.939e-14)
(2764.5 1.34899e-10 4.14182e-14)
(2764.5 -2.42003e-10 3.90557e-14)
(2764.5 -9.57766e-10 4.07756e-14)
(2764.5 -1.2319e-09 3.80594e-14)
(2764.5 -1.20894e-09 3.70529e-14)
(2764.5 -1.0642e-09 3.75416e-14)
(2764.5 -8.50897e-10 3.38272e-14)
(2764.5 -5.75299e-10 3.60752e-14)
(2764.5 -1.04785e-09 5.81729e-14)
(2764.5 -1.08602e-09 5.98665e-14)
(2764.5 -1.08554e-09 6.07759e-14)
(2764.5 -9.47095e-10 5.80975e-14)
(2764.5 -6.02249e-10 6.01741e-14)
(2764.5 -1.28431e-10 6.27996e-14)
(2764.5 2.47836e-10 6.31419e-14)
(2764.5 4.82752e-10 6.19721e-14)
(2764.5 6.85234e-10 6.40994e-14)
(2764.5 9.02741e-10 6.51978e-14)
(2764.5 1.14918e-09 6.24559e-14)
(2764.5 1.41647e-09 6.43634e-14)
(2764.5 1.73004e-09 6.50025e-14)
(2764.5 2.06685e-09 6.14133e-14)
(2764.5 2.44089e-09 5.86922e-14)
(2764.5 2.90413e-09 6.02285e-14)
(2764.5 3.28262e-09 6.3621e-14)
(2764.5 3.50978e-09 6.31805e-14)
(2764.5 3.42968e-09 6.09236e-14)
(2764.5 3.8178e-09 5.77713e-14)
(2764.5 4.47085e-09 5.88283e-14)
(2764.5 5.23803e-09 5.8977e-14)
(2764.5 6.09275e-09 6.10472e-14)
(2764.5 7.01725e-09 6.30759e-14)
(2764.5 8.02385e-09 5.98045e-14)
(2764.5 9.13016e-09 5.93284e-14)
(2764.5 1.03864e-08 6.13761e-14)
(2764.5 1.18066e-08 6.20579e-14)
(2764.5 1.33817e-08 6.04685e-14)
(2764.5 1.51548e-08 5.59098e-14)
(2764.5 1.71096e-08 5.44579e-14)
(2764.5 1.9484e-08 5.88655e-14)
(2764.5 2.1889e-08 5.88525e-14)
(2764.5 2.44819e-08 5.38592e-14)
(2764.5 2.71128e-08 5.36418e-14)
(2764.5 3.02137e-08 5.60024e-14)
(2764.5 3.38607e-08 5.46373e-14)
(2764.5 3.80772e-08 5.52138e-14)
(2764.5 4.29022e-08 5.45653e-14)
(2764.5 4.83877e-08 5.69563e-14)
(2764.5 5.4573e-08 5.67368e-14)
(2764.5 6.14765e-08 5.5761e-14)
(2764.5 6.9132e-08 5.46211e-14)
(2764.5 7.75528e-08 5.60907e-14)
(2764.5 8.67208e-08 5.51819e-14)
(2764.5 9.66155e-08 5.4921e-14)
(2764.5 1.07144e-07 5.63332e-14)
(2764.5 1.18267e-07 5.67164e-14)
(2764.5 1.2999e-07 5.39835e-14)
(2764.5 1.42288e-07 5.46337e-14)
(2764.5 1.55177e-07 5.40422e-14)
(2764.5 1.68635e-07 5.51373e-14)
(2764.5 1.8248e-07 5.21909e-14)
(2764.5 1.96569e-07 5.42805e-14)
(2764.5 2.10656e-07 5.49263e-14)
(2764.5 2.24489e-07 5.12965e-14)
(2764.5 2.38121e-07 5.31676e-14)
(2764.5 2.51889e-07 5.11508e-14)
(2764.5 2.65908e-07 5.33247e-14)
(2764.5 2.79814e-07 5.47624e-14)
(2764.5 2.93123e-07 5.22831e-14)
(2764.5 3.05622e-07 5.333e-14)
(2764.5 3.17254e-07 5.19717e-14)
(2764.5 3.2791e-07 5.11366e-14)
(2764.5 3.37302e-07 4.84838e-14)
(2764.5 3.45113e-07 5.08715e-14)
(2764.5 3.51133e-07 5.40958e-14)
(2764.5 3.55156e-07 4.87274e-14)
(2764.5 3.56839e-07 5.07023e-14)
(2764.5 3.56124e-07 5.38528e-14)
(2764.5 3.53252e-07 5.05707e-14)
(2764.5 3.48209e-07 4.92725e-14)
(2764.5 3.40961e-07 4.85909e-14)
(2764.5 3.31654e-07 5.18876e-14)
(2764.5 3.20429e-07 4.89327e-14)
(2764.5 3.07375e-07 4.7472e-14)
(2764.5 2.92683e-07 4.98584e-14)
(2764.5 2.76692e-07 4.86585e-14)
(2764.5 2.59594e-07 4.75216e-14)
(2764.5 2.41515e-07 4.69741e-14)
(2764.5 2.22921e-07 4.64618e-14)
(2764.5 2.04192e-07 4.61181e-14)
(2764.5 1.85483e-07 4.87662e-14)
(2764.5 1.66789e-07 4.73577e-14)
(2764.5 1.47899e-07 4.82704e-14)
(2764.5 1.29476e-07 4.91215e-14)
(2764.5 1.12418e-07 4.87076e-14)
(2764.5 9.71236e-08 4.38727e-14)
(2764.5 8.35338e-08 4.60422e-14)
(2764.5 7.16105e-08 4.53061e-14)
(2764.5 6.11868e-08 4.79656e-14)
(2764.5 5.20225e-08 4.49003e-14)
(2764.5 4.42392e-08 4.91473e-14)
(2764.5 3.71413e-08 4.60035e-14)
(2764.5 3.04907e-08 4.50531e-14)
(2764.5 2.50723e-08 4.68139e-14)
(2764.5 2.0267e-08 4.66262e-14)
(2764.5 1.61537e-08 4.8397e-14)
(2764.5 1.25443e-08 4.48424e-14)
(2764.5 9.50691e-09 4.70554e-14)
(2764.5 7.32199e-09 4.79076e-14)
(2764.5 5.26049e-09 4.57959e-14)
(2764.5 3.66428e-09 4.63232e-14)
(2764.5 3.31025e-09 4.42716e-14)
(2764.5 2.62754e-09 4.71655e-14)
(2764.5 1.86345e-09 4.50878e-14)
(2764.5 1.30064e-09 4.50764e-14)
(2764.5 6.8097e-10 4.53329e-14)
(2764.5 8.29217e-11 4.54192e-14)
(2764.5 -3.75285e-10 4.27192e-14)
(2764.5 2.44701e-09 7.45288e-14)
(2764.5 2.98439e-09 7.29087e-14)
(2764.5 3.42546e-09 7.19391e-14)
(2764.5 3.81601e-09 7.21783e-14)
(2764.5 3.7183e-09 7.27246e-14)
(2764.5 4.13263e-09 6.97465e-14)
(2764.5 4.83673e-09 6.86857e-14)
(2764.5 5.71439e-09 7.08217e-14)
(2764.5 6.69175e-09 7.32481e-14)
(2764.5 7.76876e-09 7.24303e-14)
(2764.5 8.96934e-09 7.22031e-14)
(2764.5 1.03277e-08 7.01461e-14)
(2764.5 1.18911e-08 7.12595e-14)
(2764.5 1.36534e-08 6.91168e-14)
(2764.5 1.57045e-08 6.93205e-14)
(2764.5 1.79951e-08 7.01526e-14)
(2764.5 2.08546e-08 7.02331e-14)
(2764.5 2.39222e-08 7.07159e-14)