/*--------------------------------*- C++ -*----------------------------------*\
| =========                 |                                                 |
| \\      /  F ield         | OpenFOAM: The Open Source CFD Toolbox           |
|  \\    /   O peration     | Version:  v1706                                 |
|   \\  /    A nd           | Web:      www.OpenFOAM.com                      |
|    \\/     M anipulation  |                                                 |
\*---------------------------------------------------------------------------*/
FoamFile
{
    version     2.0;
    format      ascii;
    class       volScalarField;
    location    "1.2e-05";
    object      wallHeatFlux;
}
// * * * * * * * * * * * * * * * * * * * * * * * * * * * * * * * * * * * * * //

dimensions      [1 0 -3 0 0 0 0];


internalField   uniform 0;

boundaryField
{
    cone
    {
        type            calculated;
        value           nonuniform List<scalar> 
181
(
88072.7
91206.3
94862.5
99087.9
103916
109360
115410
122021
129110
136552
144183
151810
159236
166281
172802
178690
183879
188339
192019
194829
196647
197292
196544
194143
189827
183362
174587
163482
150245
135349
119526
103655
88577.1
74922.9
63035.3
52989
44671.8
37872.8
32350.3
27871.6
24233
21264.8
18830.3
16821.4
15153.2
13759.7
12589.3
11601.7
10765.3
10055.2
9451.88
8939.1
8504.91
8139.49
7834.2
7582.41
7378.71
7218.67
7098.68
7015.75
6967.47
6951.86
6967.38
7012.78
7087.1
7189.8
7320.5
7478.85
7664.86
7878.69
8120.71
8391.43
8691.53
9021.88
9383.5
9777.57
10205.5
10668.8
11169.2
11708.7
12289.4
12913.8
13584.4
14304.2
15076.3
15904.3
16792
17743.5
18763.5
19856.9
21029.2
22286.4
23635
25082.1
26635.4
28303.5
30095.4
32021.2
34091.7
36318.5
38714
41291.7
44065.5
47050
50260.3
53711.3
57417.1
61390.5
65641.2
70174.2
74987.2
80066.8
85384.2
90888.9
96501.8
102108
107550
112623
117072
120611
122957
123860
123184
120931
117275
112531
107110
101454
95951.3
90873
86366.2
82474.4
79171.5
76392.3
74056.2
72082.9
70400.9
68951.1
67687.2
66574.6
65588.3
64710.9
63930.2
63238
62629.3
62099.4
61645.4
61266.8
60962.3
60731.5
60574.4
60491.4
60483.3
60551.5
60697.3
60922.9
61230.5
61623
62103.5
62675.6
63343
64109.1
64977.1
65948.8
67024.2
68200.8
69472.8
70830.3
72258.3
73734.6
75227.9
76695.9
78084.4
79329.3
80365.6
81134.5
81598.5
81724.6
81463.6
80807.2
79781.8
)
;
    }
    inlet
    {
        type            calculated;
        value           uniform 0;
    }
    rWedge
    {
        type            wedge;
    }
    lWedge
    {
        type            wedge;
    }
    outlet
    {
        type            calculated;
        value           nonuniform 0();
    }
    procBoundary1to0
    {
        type            processor;
        value           uniform 0;
    }
    procBoundary1to2
    {
        type            processor;
        value           uniform 0;
    }
}


// ************************************************************************* //
