/*--------------------------------*- C++ -*----------------------------------*\
| =========                 |                                                 |
| \\      /  F ield         | OpenFOAM: The Open Source CFD Toolbox           |
|  \\    /   O peration     | Version:  v1706                                 |
|   \\  /    A nd           | Web:      www.OpenFOAM.com                      |
|    \\/     M anipulation  |                                                 |
\*---------------------------------------------------------------------------*/
FoamFile
{
    version     2.0;
    format      ascii;
    class       volScalarField;
    location    "4e-06";
    object      alpha;
}
// * * * * * * * * * * * * * * * * * * * * * * * * * * * * * * * * * * * * * //

dimensions      [1 -1 -1 0 0 0 0];


internalField   nonuniform List<scalar> 
30104
(
1.40478e-05
1.40478e-05
1.40478e-05
1.40478e-05
1.40478e-05
1.40478e-05
1.40478e-05
1.40478e-05
1.40478e-05
1.40478e-05
1.40478e-05
1.40478e-05
1.40478e-05
1.40478e-05
1.40478e-05
1.40478e-05
1.40478e-05
1.40478e-05
1.40478e-05
1.40478e-05
1.40478e-05
1.40478e-05
1.40478e-05
1.40478e-05
1.40478e-05
1.40478e-05
1.40478e-05
1.40478e-05
1.40478e-05
1.40478e-05
1.40478e-05
1.40478e-05
1.40478e-05
1.40478e-05
1.40478e-05
1.40478e-05
1.40478e-05
1.40478e-05
1.40478e-05
1.40478e-05
1.40478e-05
1.40478e-05
1.40478e-05
1.40478e-05
1.40478e-05
1.40478e-05
1.40478e-05
1.40478e-05
1.40478e-05
1.40478e-05
1.40478e-05
1.40478e-05
1.40478e-05
1.40478e-05
1.40478e-05
1.40478e-05
1.40478e-05
1.40478e-05
1.40478e-05
1.40478e-05
1.40478e-05
1.40478e-05
1.40478e-05
1.40478e-05
1.40478e-05
1.40478e-05
1.40478e-05
1.40478e-05
1.40478e-05
1.40478e-05
1.40478e-05
1.40478e-05
1.40478e-05
1.40478e-05
1.40478e-05
1.40478e-05
1.40478e-05
1.40478e-05
1.40478e-05
1.40478e-05
1.40478e-05
1.40478e-05
1.40478e-05
1.40478e-05
1.40478e-05
1.40478e-05
1.40478e-05
1.40478e-05
1.40478e-05
1.40478e-05
1.40478e-05
1.40478e-05
1.40478e-05
1.40478e-05
1.40478e-05
1.40478e-05
1.40478e-05
1.40478e-05
1.40478e-05
1.40478e-05
1.40478e-05
1.40478e-05
1.40478e-05
1.40478e-05
1.40478e-05
1.40478e-05
1.40478e-05
1.40478e-05
1.40478e-05
1.40478e-05
1.40478e-05
1.40478e-05
1.40478e-05
1.40478e-05
1.40478e-05
1.40478e-05
1.40478e-05
1.40478e-05
1.40478e-05
1.40478e-05
1.40478e-05
1.40478e-05
1.40478e-05
1.40478e-05
1.40478e-05
1.40478e-05
1.40478e-05
1.40478e-05
1.40478e-05
1.40478e-05
1.40478e-05
1.40478e-05
1.40478e-05
1.40478e-05
1.40478e-05
1.40478e-05
1.40478e-05
1.40478e-05
1.40478e-05
1.40478e-05
1.40478e-05
1.40478e-05
1.40478e-05
1.40478e-05
1.40478e-05
1.40478e-05
1.40478e-05
1.40478e-05
1.40478e-05
1.40478e-05
1.40478e-05
1.40478e-05
1.40478e-05
1.40478e-05
1.40478e-05
1.40478e-05
1.40478e-05
1.40478e-05
1.40478e-05
1.40478e-05
1.40478e-05
1.40478e-05
1.40478e-05
1.40478e-05
1.40478e-05
1.40478e-05
1.40478e-05
1.40478e-05
1.40478e-05
1.40478e-05
1.40478e-05
1.40478e-05
1.40478e-05
1.40478e-05
1.40478e-05
1.40478e-05
1.40478e-05
1.40478e-05
1.40478e-05
1.40478e-05
1.40478e-05
1.40478e-05
1.40478e-05
1.40478e-05
1.40478e-05
1.40478e-05
1.40478e-05
1.40478e-05
1.40478e-05
1.40478e-05
1.40478e-05
1.40478e-05
1.40478e-05
1.40478e-05
1.40478e-05
1.40478e-05
1.40478e-05
1.40478e-05
1.40478e-05
1.40478e-05
1.40478e-05
1.40478e-05
1.40478e-05
1.40478e-05
1.40478e-05
1.40478e-05
1.40478e-05
1.40478e-05
1.40478e-05
1.40478e-05
1.40478e-05
1.40478e-05
1.40478e-05
1.40478e-05
1.40478e-05
1.40478e-05
1.40478e-05
1.40478e-05
1.40478e-05
1.40478e-05
1.40478e-05
1.40478e-05
1.40478e-05
1.40478e-05
1.40478e-05
1.40478e-05
1.40478e-05
1.40478e-05
1.40478e-05
1.40478e-05
1.40478e-05
1.40478e-05
1.40478e-05
1.40478e-05
1.40478e-05
1.40478e-05
1.40478e-05
1.40478e-05
1.40478e-05
1.40478e-05
1.40478e-05
1.40478e-05
1.40478e-05
1.40478e-05
1.40478e-05
1.40478e-05
1.40478e-05
1.40478e-05
1.40478e-05
1.40478e-05
1.40478e-05
1.40478e-05
1.40478e-05
1.40478e-05
1.40478e-05
1.40478e-05
1.40478e-05
1.40478e-05
1.40478e-05
1.40478e-05
1.40478e-05
1.40478e-05
1.40478e-05
1.40478e-05
1.40478e-05
1.40478e-05
1.40478e-05
1.40478e-05
1.40478e-05
1.40478e-05
1.40478e-05
1.40478e-05
1.40478e-05
1.40478e-05
1.40478e-05
1.40478e-05
1.40478e-05
1.40478e-05
1.40478e-05
1.40478e-05
1.40478e-05
1.40478e-05
1.40478e-05
1.40478e-05
1.40478e-05
1.40478e-05
1.40478e-05
1.40478e-05
1.40478e-05
1.40478e-05
1.40478e-05
1.40478e-05
1.40478e-05
1.40478e-05
1.40478e-05
1.40478e-05
1.40478e-05
1.40478e-05
1.40478e-05
1.40478e-05
1.40478e-05
1.40478e-05
1.40478e-05
1.40478e-05
1.40478e-05
1.40478e-05
1.40478e-05
1.40478e-05
1.40478e-05
1.40478e-05
1.40478e-05
1.40478e-05
1.40478e-05
1.40478e-05
1.40478e-05
1.40478e-05
1.40478e-05
1.40478e-05
1.40478e-05
1.40478e-05
1.40478e-05
1.40478e-05
1.40478e-05
1.40478e-05
1.40478e-05
1.40478e-05
1.40478e-05
1.40478e-05
1.40478e-05
1.40478e-05
1.40478e-05
1.40478e-05
1.40478e-05
1.40478e-05
1.40478e-05
1.40478e-05
1.40478e-05
1.40478e-05
1.40478e-05
1.40478e-05
1.40478e-05
1.40478e-05
1.40478e-05
1.40478e-05
1.40478e-05
1.40478e-05
1.40478e-05
1.40478e-05
1.40478e-05
1.40478e-05
1.40478e-05
1.40478e-05
1.40478e-05
1.40478e-05
1.40478e-05
1.40478e-05
1.40478e-05
1.40478e-05
1.40478e-05
1.40478e-05
1.40478e-05
1.40478e-05
1.40478e-05
1.40478e-05
1.40478e-05
1.40478e-05
1.40479e-05
1.40479e-05
1.40479e-05
1.40479e-05
1.40479e-05
1.40479e-05
1.40479e-05
1.40479e-05
1.40479e-05
1.40479e-05
1.40479e-05
1.40479e-05
1.40479e-05
1.40479e-05
1.40479e-05
1.40479e-05
1.40479e-05
1.40479e-05
1.40479e-05
1.40479e-05
1.40479e-05
1.40479e-05
1.40479e-05
1.4048e-05
1.4048e-05
1.4048e-05
1.4048e-05
1.4048e-05
1.4048e-05
1.4048e-05
1.4048e-05
1.4048e-05
1.4048e-05
1.40481e-05
1.40481e-05
1.40481e-05
1.40481e-05
1.40481e-05
1.40481e-05
1.40481e-05
1.40481e-05
1.40482e-05
1.40482e-05
1.40482e-05
1.40482e-05
1.40482e-05
1.40483e-05
1.40483e-05
1.40483e-05
1.40483e-05
1.40483e-05
1.40484e-05
1.40484e-05
1.40484e-05
1.40478e-05
1.40478e-05
1.40478e-05
1.40478e-05
1.40478e-05
1.40478e-05
1.40478e-05
1.40478e-05
1.40478e-05
1.40478e-05
1.40478e-05
1.40478e-05
1.40478e-05
1.40478e-05
1.40478e-05
1.40478e-05
1.40478e-05
1.40478e-05
1.40478e-05
1.40478e-05
1.40478e-05
1.40478e-05
1.40478e-05
1.40478e-05
1.40478e-05
1.40478e-05
1.40478e-05
1.40478e-05
1.40478e-05
1.40478e-05
1.40478e-05
1.40478e-05
1.40478e-05
1.40478e-05
1.40478e-05
1.40478e-05
1.40478e-05
1.40478e-05
1.40478e-05
1.40478e-05
1.40478e-05
1.40478e-05
1.40478e-05
1.40478e-05
1.40478e-05
1.40478e-05
1.40478e-05
1.40478e-05
1.40478e-05
1.40478e-05
1.40478e-05
1.40478e-05
1.40478e-05
1.40478e-05
1.40478e-05
1.40478e-05
1.40478e-05
1.40478e-05
1.40478e-05
1.40478e-05
1.40478e-05
1.40478e-05
1.40478e-05
1.40478e-05
1.40478e-05
1.40478e-05
1.40478e-05
1.40478e-05
1.40478e-05
1.40478e-05
1.40478e-05
1.40478e-05
1.40478e-05
1.40478e-05
1.40478e-05
1.40478e-05
1.40478e-05
1.40478e-05
1.40478e-05
1.40478e-05
1.40478e-05
1.40478e-05
1.40478e-05
1.40478e-05
1.40478e-05
1.40478e-05
1.40478e-05
1.40478e-05
1.40478e-05
1.40478e-05
1.40478e-05
1.40478e-05
1.40478e-05
1.40478e-05
1.40478e-05
1.40478e-05
1.40478e-05
1.40478e-05
1.40478e-05
1.40478e-05
1.40478e-05
1.40478e-05
1.40478e-05
1.40478e-05
1.40478e-05
1.40479e-05
1.40479e-05
1.40479e-05
1.40479e-05
1.40479e-05
1.40479e-05
1.40479e-05
1.40479e-05
1.40479e-05
1.40479e-05
1.40479e-05
1.40479e-05
1.40479e-05
1.40479e-05
1.40479e-05
1.40479e-05
1.40479e-05
1.40479e-05
1.40479e-05
1.40479e-05
1.40479e-05
1.4048e-05
1.4048e-05
1.4048e-05
1.4048e-05
1.4048e-05
1.4048e-05
1.4048e-05
1.4048e-05
1.4048e-05
1.4048e-05
1.4048e-05
1.40481e-05
1.40481e-05
1.40481e-05
1.40481e-05
1.40481e-05
1.40481e-05
1.40481e-05
1.40482e-05
1.40482e-05
1.40482e-05
1.40482e-05
1.40482e-05
1.40482e-05
1.40483e-05
1.40483e-05
1.40483e-05
1.40483e-05
1.40484e-05
1.40484e-05
1.40484e-05
1.40485e-05
1.40485e-05
1.40485e-05
1.40486e-05
1.40486e-05
1.40486e-05
1.40487e-05
1.40487e-05
1.40488e-05
1.40488e-05
1.40489e-05
1.40489e-05
1.4049e-05
1.4049e-05
1.40491e-05
1.40491e-05
1.40492e-05
1.40493e-05
1.40493e-05
1.40494e-05
1.40495e-05
1.40495e-05
1.40496e-05
1.40497e-05
1.40498e-05
1.40499e-05
1.405e-05
1.405e-05
1.40501e-05
1.40503e-05
1.40504e-05
1.40505e-05
1.40506e-05
1.40507e-05
1.40509e-05
1.4051e-05
1.40512e-05
1.40513e-05
1.40515e-05
1.40517e-05
1.40518e-05
1.4052e-05
1.40522e-05
1.40524e-05
1.40527e-05
1.40529e-05
1.40531e-05
1.40534e-05
1.40536e-05
1.40539e-05
1.40542e-05
1.40539e-05
1.40478e-05
1.40478e-05
1.40478e-05
1.40478e-05
1.40478e-05
1.40478e-05
1.40478e-05
1.40478e-05
1.40478e-05
1.40478e-05
1.40478e-05
1.40478e-05
1.40478e-05
1.40478e-05
1.40478e-05
1.40478e-05
1.40478e-05
1.40478e-05
1.40478e-05
1.40478e-05
1.40478e-05
1.40478e-05
1.40478e-05
1.40478e-05
1.40478e-05
1.40478e-05
1.40478e-05
1.40478e-05
1.40478e-05
1.40478e-05
1.40478e-05
1.40478e-05
1.40478e-05
1.40478e-05
1.40478e-05
1.40478e-05
1.40478e-05
1.40478e-05
1.40478e-05
1.40478e-05
1.40478e-05
1.40478e-05
1.40478e-05
1.40478e-05
1.40478e-05
1.40478e-05
1.40478e-05
1.40478e-05
1.40478e-05
1.40478e-05
1.40478e-05
1.40478e-05
1.40478e-05
1.40478e-05
1.40478e-05
1.40478e-05
1.40478e-05
1.40478e-05
1.40478e-05
1.40478e-05
1.40478e-05
1.40478e-05
1.40479e-05
1.40479e-05
1.40479e-05
1.40479e-05
1.40479e-05
1.40479e-05
1.40479e-05
1.40479e-05
1.40479e-05
1.40479e-05
1.40479e-05
1.40479e-05
1.40479e-05
1.40479e-05
1.40479e-05
1.40479e-05
1.40479e-05
1.40479e-05
1.40479e-05
1.40479e-05
1.4048e-05
1.4048e-05
1.4048e-05
1.4048e-05
1.4048e-05
1.4048e-05
1.4048e-05
1.4048e-05
1.4048e-05
1.4048e-05
1.40481e-05
1.40481e-05
1.40481e-05
1.40481e-05
1.40481e-05
1.40481e-05
1.40481e-05
1.40482e-05
1.40482e-05
1.40482e-05
1.40482e-05
1.40482e-05
1.40482e-05
1.40483e-05
1.40483e-05
1.40483e-05
1.40483e-05
1.40484e-05
1.40484e-05
1.40484e-05
1.40485e-05
1.40485e-05
1.40485e-05
1.40486e-05
1.40486e-05
1.40486e-05
1.40487e-05
1.40487e-05
1.40488e-05
1.40488e-05
1.40489e-05
1.40489e-05
1.4049e-05
1.4049e-05
1.40491e-05
1.40492e-05
1.40492e-05
1.40493e-05
1.40494e-05
1.40495e-05
1.40495e-05
1.40496e-05
1.40497e-05
1.40498e-05
1.40499e-05
1.405e-05
1.40501e-05
1.40503e-05
1.40504e-05
1.40505e-05
1.40506e-05
1.40508e-05
1.40509e-05
1.40511e-05
1.40512e-05
1.40514e-05
1.40515e-05
1.40517e-05
1.40519e-05
1.40521e-05
1.40523e-05
1.40525e-05
1.40528e-05
1.4053e-05
1.40533e-05
1.40535e-05
1.40538e-05
1.40541e-05
1.40544e-05
1.40548e-05
1.40551e-05
1.40555e-05
1.40559e-05
1.40563e-05
1.40567e-05
1.40571e-05
1.40576e-05
1.40581e-05
1.40586e-05
1.40591e-05
1.40597e-05
1.40602e-05
1.40608e-05
1.40615e-05
1.40621e-05
1.40628e-05
1.40635e-05
1.40642e-05
1.4065e-05
1.40658e-05
1.40666e-05
1.40674e-05
1.40683e-05
1.40693e-05
1.40703e-05
1.40713e-05
1.40724e-05
1.40736e-05
1.40748e-05
1.40761e-05
1.40774e-05
1.40788e-05
1.40804e-05
1.4082e-05
1.40837e-05
1.40855e-05
1.40874e-05
1.40894e-05
1.40916e-05
1.40938e-05
1.40963e-05
1.40988e-05
1.41015e-05
1.41044e-05
1.41074e-05
1.41115e-05
1.41098e-05
1.40478e-05
1.40478e-05
1.40478e-05
1.40478e-05
1.40478e-05
1.40478e-05
1.40478e-05
1.40478e-05
1.40478e-05
1.40478e-05
1.40478e-05
1.40478e-05
1.40478e-05
1.40478e-05
1.40478e-05
1.40478e-05
1.40478e-05
1.40478e-05
1.40478e-05
1.40478e-05
1.40478e-05
1.40479e-05
1.40479e-05
1.40479e-05
1.40479e-05
1.40479e-05
1.40479e-05
1.40479e-05
1.40479e-05
1.40479e-05
1.40479e-05
1.40479e-05
1.40479e-05
1.40479e-05
1.40479e-05
1.40479e-05
1.40479e-05
1.40479e-05
1.40479e-05
1.40479e-05
1.40479e-05
1.4048e-05
1.4048e-05
1.4048e-05
1.4048e-05
1.4048e-05
1.4048e-05
1.4048e-05
1.4048e-05
1.4048e-05
1.4048e-05
1.40481e-05
1.40481e-05
1.40481e-05
1.40481e-05
1.40481e-05
1.40481e-05
1.40481e-05
1.40482e-05
1.40482e-05
1.40482e-05
1.40482e-05
1.40482e-05
1.40483e-05
1.40483e-05
1.40483e-05
1.40483e-05
1.40484e-05
1.40484e-05
1.40484e-05
1.40485e-05
1.40485e-05
1.40485e-05
1.40486e-05
1.40486e-05
1.40486e-05
1.40487e-05
1.40487e-05
1.40488e-05
1.40488e-05
1.40489e-05
1.40489e-05
1.4049e-05
1.4049e-05
1.40491e-05
1.40492e-05
1.40492e-05
1.40493e-05
1.40494e-05
1.40495e-05
1.40496e-05
1.40496e-05
1.40497e-05
1.40498e-05
1.405e-05
1.40501e-05
1.40502e-05
1.40503e-05
1.40504e-05
1.40506e-05
1.40507e-05
1.40509e-05
1.4051e-05
1.40512e-05
1.40514e-05
1.40516e-05
1.40518e-05
1.4052e-05
1.40522e-05
1.40524e-05
1.40526e-05
1.40529e-05
1.40531e-05
1.40534e-05
1.40537e-05
1.4054e-05
1.40543e-05
1.40546e-05
1.40549e-05
1.40553e-05
1.40557e-05
1.40561e-05
1.40565e-05
1.40569e-05
1.40574e-05
1.40579e-05
1.40584e-05
1.4059e-05
1.40595e-05
1.40601e-05
1.40608e-05
1.40615e-05
1.40622e-05
1.40629e-05
1.40637e-05
1.40646e-05
1.40654e-05
1.40664e-05
1.40673e-05
1.40683e-05
1.40694e-05
1.40704e-05
1.40716e-05
1.40728e-05
1.4074e-05
1.40753e-05
1.40767e-05
1.40781e-05
1.40796e-05
1.40812e-05
1.40828e-05
1.40845e-05
1.40864e-05
1.40883e-05
1.40903e-05
1.40925e-05
1.40948e-05
1.40972e-05
1.40997e-05
1.41025e-05
1.41053e-05
1.41084e-05
1.41117e-05
1.41151e-05
1.41188e-05
1.41227e-05
1.41268e-05
1.41312e-05
1.41359e-05
1.41408e-05
1.4146e-05
1.41514e-05
1.41572e-05
1.41633e-05
1.41697e-05
1.41764e-05
1.41834e-05
1.41907e-05
1.41983e-05
1.42062e-05
1.42144e-05
1.42228e-05
1.42316e-05
1.42407e-05
1.425e-05
1.42597e-05
1.42696e-05
1.42799e-05
1.42905e-05
1.43014e-05
1.43128e-05
1.43245e-05
1.43368e-05
1.43496e-05
1.4363e-05
1.4377e-05
1.43919e-05
1.44075e-05
1.44241e-05
1.44417e-05
1.44604e-05
1.44804e-05
1.45017e-05
1.45244e-05
1.45488e-05
1.45744e-05
1.46107e-05
1.46056e-05
1.40478e-05
1.40478e-05
1.40478e-05
1.40478e-05
1.40478e-05
1.40478e-05
1.40478e-05
1.40478e-05
1.40478e-05
1.40478e-05
1.40478e-05
1.40478e-05
1.40478e-05
1.40478e-05
1.40478e-05
1.40478e-05
1.40481e-05
1.40481e-05
1.40481e-05
1.40481e-05
1.40481e-05
1.40482e-05
1.40482e-05
1.40482e-05
1.40482e-05
1.40482e-05
1.40483e-05
1.40483e-05
1.40483e-05
1.40483e-05
1.40484e-05
1.40484e-05
1.40484e-05
1.40485e-05
1.40485e-05
1.40485e-05
1.40486e-05
1.40486e-05
1.40486e-05
1.40487e-05
1.40487e-05
1.40488e-05
1.40488e-05
1.40489e-05
1.40489e-05
1.4049e-05
1.4049e-05
1.40491e-05
1.40492e-05
1.40493e-05
1.40493e-05
1.40494e-05
1.40495e-05
1.40496e-05
1.40497e-05
1.40498e-05
1.40499e-05
1.405e-05
1.40501e-05
1.40502e-05
1.40503e-05
1.40505e-05
1.40506e-05
1.40507e-05
1.40509e-05
1.40511e-05
1.40512e-05
1.40514e-05
1.40516e-05
1.40518e-05
1.4052e-05
1.40523e-05
1.40525e-05
1.40527e-05
1.4053e-05
1.40533e-05
1.40536e-05
1.40539e-05
1.40542e-05
1.40545e-05
1.40549e-05
1.40553e-05
1.40557e-05
1.40561e-05
1.40565e-05
1.4057e-05
1.40574e-05
1.40579e-05
1.40585e-05
1.4059e-05
1.40596e-05
1.40602e-05
1.40609e-05
1.40615e-05
1.40623e-05
1.4063e-05
1.40638e-05
1.40647e-05
1.40656e-05
1.40665e-05
1.40676e-05
1.40686e-05
1.40697e-05
1.40709e-05
1.40722e-05
1.40735e-05
1.40749e-05
1.40763e-05
1.40779e-05
1.40795e-05
1.40812e-05
1.40829e-05
1.40848e-05
1.40867e-05
1.40888e-05
1.40909e-05
1.40931e-05
1.40955e-05
1.40979e-05
1.41005e-05
1.41032e-05
1.41061e-05
1.41091e-05
1.41124e-05
1.41157e-05
1.41193e-05
1.41231e-05
1.41272e-05
1.41315e-05
1.41361e-05
1.41409e-05
1.41461e-05
1.41516e-05
1.41574e-05
1.41637e-05
1.41703e-05
1.41773e-05
1.41847e-05
1.41926e-05
1.4201e-05
1.42098e-05
1.42191e-05
1.42288e-05
1.42391e-05
1.42499e-05
1.42611e-05
1.42729e-05
1.42851e-05
1.42979e-05
1.43111e-05
1.43249e-05
1.43392e-05
1.4354e-05
1.43693e-05
1.43852e-05
1.44017e-05
1.44189e-05
1.44368e-05
1.44555e-05
1.44751e-05
1.44956e-05
1.45172e-05
1.454e-05
1.45641e-05
1.45897e-05
1.46169e-05
1.46459e-05
1.46768e-05
1.47099e-05
1.47452e-05
1.4783e-05
1.48235e-05
1.48667e-05
1.4913e-05
1.49625e-05
1.50152e-05
1.50713e-05
1.51308e-05
1.51939e-05
1.52606e-05
1.53308e-05
1.54044e-05
1.54814e-05
1.55617e-05
1.56449e-05
1.57309e-05
1.58195e-05
1.59103e-05
1.60031e-05
1.60976e-05
1.61935e-05
1.62907e-05
1.63891e-05
1.64884e-05
1.65888e-05
1.66902e-05
1.67926e-05
1.68966e-05
1.70021e-05
1.711e-05
1.72201e-05
1.7334e-05
1.74509e-05
1.75736e-05
1.77002e-05
1.78355e-05
1.79742e-05
1.81486e-05
1.8174e-05
1.40479e-05
1.40479e-05
1.40479e-05
1.40479e-05
1.40479e-05
1.40479e-05
1.40479e-05
1.40479e-05
1.40479e-05
1.40479e-05
1.40479e-05
1.40479e-05
1.40479e-05
1.40495e-05
1.40496e-05
1.40496e-05
1.40497e-05
1.40498e-05
1.405e-05
1.40501e-05
1.40502e-05
1.40503e-05
1.40504e-05
1.40506e-05
1.40507e-05
1.40509e-05
1.4051e-05
1.40512e-05
1.40514e-05
1.40516e-05
1.40518e-05
1.4052e-05
1.40522e-05
1.40524e-05
1.40527e-05
1.40529e-05
1.40532e-05
1.40535e-05
1.40538e-05
1.40542e-05
1.40545e-05
1.40549e-05
1.40552e-05
1.40556e-05
1.40561e-05
1.40565e-05
1.4057e-05
1.40575e-05
1.4058e-05
1.40586e-05
1.40592e-05
1.40598e-05
1.40604e-05
1.40611e-05
1.40618e-05
1.40625e-05
1.40633e-05
1.40642e-05
1.4065e-05
1.40659e-05
1.40669e-05
1.40679e-05
1.4069e-05
1.40702e-05
1.40714e-05
1.40727e-05
1.4074e-05
1.40755e-05
1.4077e-05
1.40786e-05
1.40803e-05
1.40821e-05
1.4084e-05
1.4086e-05
1.40881e-05
1.40903e-05
1.40927e-05
1.40952e-05
1.40978e-05
1.41005e-05
1.41034e-05
1.41064e-05
1.41095e-05
1.41129e-05
1.41164e-05
1.41201e-05
1.41239e-05
1.4128e-05
1.41323e-05
1.41369e-05
1.41417e-05
1.41467e-05
1.41521e-05
1.41578e-05
1.41639e-05
1.41703e-05
1.41772e-05
1.41845e-05
1.41922e-05
1.42005e-05
1.42093e-05
1.42186e-05
1.42285e-05
1.42391e-05
1.42503e-05
1.42621e-05
1.42747e-05
1.42879e-05
1.43019e-05
1.43166e-05
1.4332e-05
1.43483e-05
1.43652e-05
1.4383e-05
1.44015e-05
1.44208e-05
1.4441e-05
1.44619e-05
1.44837e-05
1.45063e-05
1.45299e-05
1.45545e-05
1.45801e-05
1.4607e-05
1.46351e-05
1.46647e-05
1.46959e-05
1.47289e-05
1.47638e-05
1.48008e-05
1.48403e-05
1.48824e-05
1.49273e-05
1.49753e-05
1.50267e-05
1.50816e-05
1.51402e-05
1.52029e-05
1.52698e-05
1.5341e-05
1.54166e-05
1.54968e-05
1.55816e-05
1.56709e-05
1.57648e-05
1.58631e-05
1.59655e-05
1.60719e-05
1.6182e-05
1.62955e-05
1.6412e-05
1.65311e-05
1.66526e-05
1.67762e-05
1.69016e-05
1.70288e-05
1.71577e-05
1.72883e-05
1.74209e-05
1.75557e-05
1.76932e-05
1.78339e-05
1.79785e-05
1.8128e-05
1.82833e-05
1.84455e-05
1.86159e-05
1.87959e-05
1.8987e-05
1.91906e-05
1.94085e-05
1.96424e-05
1.98939e-05
2.0165e-05
2.04572e-05
2.07723e-05
2.11116e-05
2.14764e-05
2.18674e-05
2.22848e-05
2.27283e-05
2.31968e-05
2.36889e-05
2.4202e-05
2.47333e-05
2.52792e-05
2.5836e-05
2.63996e-05
2.69665e-05
2.75326e-05
2.80947e-05
2.86485e-05
2.91922e-05
2.97212e-05
3.02358e-05
3.07304e-05
3.12087e-05
3.16631e-05
3.21016e-05
3.25127e-05
3.29119e-05
3.32793e-05
3.36422e-05
3.39639e-05
3.43383e-05
3.45092e-05
1.40481e-05
1.40481e-05
1.40481e-05
1.40481e-05
1.40481e-05
1.40481e-05
1.40481e-05
1.40481e-05
1.40481e-05
1.40481e-05
1.40481e-05
1.40481e-05
1.40481e-05
1.40575e-05
1.4058e-05
1.40585e-05
1.40591e-05
1.40597e-05
1.40604e-05
1.40611e-05
1.40618e-05
1.40626e-05
1.40634e-05
1.40643e-05
1.40652e-05
1.40661e-05
1.40671e-05
1.40682e-05
1.40693e-05
1.40704e-05
1.40717e-05
1.4073e-05
1.40743e-05
1.40758e-05
1.40773e-05
1.40789e-05
1.40806e-05
1.40825e-05
1.40844e-05
1.40864e-05
1.40885e-05
1.40908e-05
1.40932e-05
1.40958e-05
1.40985e-05
1.41013e-05
1.41043e-05
1.41075e-05
1.41108e-05
1.41144e-05
1.41181e-05
1.41221e-05
1.41262e-05
1.41306e-05
1.41352e-05
1.414e-05
1.41451e-05
1.41505e-05
1.41561e-05
1.41621e-05
1.41684e-05
1.4175e-05
1.41821e-05
1.41895e-05
1.41974e-05
1.42058e-05
1.42146e-05
1.42241e-05
1.42341e-05
1.42447e-05
1.42561e-05
1.42681e-05
1.4281e-05
1.42946e-05
1.43091e-05
1.43245e-05
1.43408e-05
1.43581e-05
1.43764e-05
1.43957e-05
1.44161e-05
1.44376e-05
1.44601e-05
1.44838e-05
1.45086e-05
1.45346e-05
1.45617e-05
1.459e-05
1.46196e-05
1.46505e-05
1.46827e-05
1.47164e-05
1.47515e-05
1.47884e-05
1.48271e-05
1.48677e-05
1.49105e-05
1.49558e-05
1.50037e-05
1.50544e-05
1.51084e-05
1.51659e-05
1.52271e-05
1.52924e-05
1.5362e-05
1.54362e-05
1.55154e-05
1.55996e-05
1.56892e-05
1.57842e-05
1.58848e-05
1.5991e-05
1.61027e-05
1.62198e-05
1.63423e-05
1.64698e-05
1.6602e-05
1.67386e-05
1.68792e-05
1.70234e-05
1.71709e-05
1.73213e-05
1.74744e-05
1.763e-05
1.77882e-05
1.7949e-05
1.81128e-05
1.82799e-05
1.8451e-05
1.86268e-05
1.88082e-05
1.89963e-05
1.91924e-05
1.9398e-05
1.96144e-05
1.98434e-05
2.00867e-05
2.03461e-05
2.06234e-05
2.09205e-05
2.12392e-05
2.1581e-05
2.19475e-05
2.23398e-05
2.27585e-05
2.32038e-05
2.36753e-05
2.41718e-05
2.46914e-05
2.52316e-05
2.57891e-05
2.63601e-05
2.69402e-05
2.75249e-05
2.81096e-05
2.86901e-05
2.92628e-05
2.98241e-05
3.03707e-05
3.08999e-05
3.14094e-05
3.18975e-05
3.23634e-05
3.28062e-05
3.32263e-05
3.36238e-05
3.39998e-05
3.43552e-05
3.46913e-05
3.50095e-05
3.53113e-05
3.55985e-05
3.58727e-05
3.61355e-05
3.63884e-05
3.6633e-05
3.68705e-05
3.71022e-05
3.73291e-05
3.75519e-05
3.77712e-05
3.79875e-05
3.82012e-05
3.84125e-05
3.86218e-05
3.88295e-05
3.90378e-05
3.9267e-05
3.95038e-05
3.97352e-05
3.99626e-05
4.01856e-05
4.04018e-05
4.06117e-05
4.08161e-05
4.10156e-05
4.12111e-05
4.14034e-05
4.15944e-05
4.17844e-05
4.19742e-05
4.2164e-05
4.23565e-05
4.25428e-05
4.27685e-05
4.28805e-05
1.40494e-05
1.40494e-05
1.40494e-05
1.40494e-05
1.40494e-05
1.40494e-05
1.40494e-05
1.40494e-05
1.40494e-05
1.40494e-05
1.40494e-05
1.40493e-05
1.40493e-05
1.40493e-05
1.41026e-05
1.41056e-05
1.41089e-05
1.41123e-05
1.4116e-05
1.41198e-05
1.41239e-05
1.41282e-05
1.41328e-05
1.41376e-05
1.41427e-05
1.4148e-05
1.41537e-05
1.41597e-05
1.4166e-05
1.41727e-05
1.41797e-05
1.41871e-05
1.41949e-05
1.42032e-05
1.42119e-05
1.42211e-05
1.42308e-05
1.42411e-05
1.4252e-05
1.42636e-05
1.42758e-05
1.42888e-05
1.43026e-05
1.43173e-05
1.43329e-05
1.43494e-05
1.43671e-05
1.43858e-05
1.44056e-05
1.44267e-05
1.44491e-05
1.44728e-05
1.44978e-05
1.45243e-05
1.45523e-05
1.45817e-05
1.46127e-05
1.46453e-05
1.46794e-05
1.47152e-05
1.47527e-05
1.4792e-05
1.4833e-05
1.48759e-05
1.49208e-05
1.49679e-05
1.50171e-05
1.50689e-05
1.51233e-05
1.51806e-05
1.52411e-05
1.5305e-05
1.53727e-05
1.54445e-05
1.55207e-05
1.56017e-05
1.56879e-05
1.57794e-05
1.58767e-05
1.598e-05
1.60895e-05
1.62054e-05
1.63278e-05
1.64567e-05
1.65921e-05
1.67339e-05
1.68818e-05
1.70357e-05
1.71951e-05
1.73597e-05
1.75291e-05
1.7703e-05
1.78808e-05
1.80624e-05
1.82475e-05
1.84361e-05
1.86283e-05
1.88243e-05
1.90247e-05
1.923e-05
1.94411e-05
1.9659e-05
1.98849e-05
2.01203e-05
2.03665e-05
2.06253e-05
2.08984e-05
2.11875e-05
2.14945e-05
2.18212e-05
2.21692e-05
2.25401e-05
2.2935e-05
2.33548e-05
2.37998e-05
2.427e-05
2.47644e-05
2.52816e-05
2.58194e-05
2.63748e-05
2.69444e-05
2.75241e-05
2.81095e-05
2.86961e-05
2.92792e-05
2.98545e-05
3.04182e-05
3.09674e-05
3.14995e-05
3.20122e-05
3.25038e-05
3.29731e-05
3.34195e-05
3.38428e-05
3.42432e-05
3.46216e-05
3.49789e-05
3.53164e-05
3.56358e-05
3.59387e-05
3.62267e-05
3.65016e-05
3.67649e-05
3.70182e-05
3.72628e-05
3.74998e-05
3.77301e-05
3.79543e-05
3.81729e-05
3.83864e-05
3.8595e-05
3.87988e-05
3.89982e-05
3.91936e-05
3.93856e-05
3.95764e-05
3.97862e-05
3.99994e-05
4.02069e-05
4.04103e-05
4.06083e-05
4.08e-05
4.09864e-05
4.11685e-05
4.1347e-05
4.15237e-05
4.16999e-05
4.18762e-05
4.20532e-05
4.22316e-05
4.24117e-05
4.25939e-05
4.27784e-05
4.29653e-05
4.31547e-05
4.33463e-05
4.35401e-05
4.37358e-05
4.39334e-05
4.41327e-05
4.43335e-05
4.45356e-05
4.47389e-05
4.49431e-05
4.51484e-05
4.53544e-05
4.5561e-05
4.57666e-05
4.59534e-05
4.61236e-05
4.62875e-05
4.64448e-05
4.65982e-05
4.67548e-05
4.69155e-05
4.70801e-05
4.72489e-05
4.74219e-05
4.75994e-05
4.7781e-05
4.79674e-05
4.81572e-05
4.8352e-05
4.85501e-05
4.87465e-05
4.89912e-05
4.90937e-05
1.40552e-05
1.40553e-05
1.40553e-05
1.40554e-05
1.40554e-05
1.40554e-05
1.40553e-05
1.40552e-05
1.40551e-05
1.4055e-05
1.40549e-05
1.40548e-05
1.40546e-05
1.40544e-05
1.43495e-05
1.43667e-05
1.4385e-05
1.44043e-05
1.44249e-05
1.44467e-05
1.44699e-05
1.44945e-05
1.45206e-05
1.45483e-05
1.45776e-05
1.46087e-05
1.46416e-05
1.46764e-05
1.4713e-05
1.47517e-05
1.47924e-05
1.48353e-05
1.48803e-05
1.49275e-05
1.4977e-05
1.50288e-05
1.50831e-05
1.514e-05
1.51996e-05
1.52621e-05
1.53276e-05
1.53965e-05
1.54689e-05
1.55451e-05
1.56254e-05
1.57103e-05
1.57999e-05
1.58948e-05
1.59953e-05
1.61017e-05
1.62144e-05
1.63337e-05
1.64599e-05
1.65932e-05
1.67337e-05
1.68816e-05
1.70368e-05
1.71993e-05
1.73689e-05
1.75454e-05
1.77285e-05
1.79178e-05
1.8113e-05
1.83136e-05
1.85193e-05
1.87298e-05
1.89449e-05
1.91644e-05
1.93886e-05
1.96175e-05
1.98518e-05
2.00919e-05
2.03389e-05
2.05938e-05
2.08578e-05
2.11324e-05
2.14189e-05
2.17191e-05
2.20347e-05
2.23672e-05
2.27183e-05
2.30895e-05
2.34821e-05
2.3897e-05
2.4335e-05
2.47962e-05
2.52801e-05
2.57859e-05
2.63118e-05
2.68555e-05
2.74143e-05
2.79844e-05
2.8562e-05
2.91428e-05
2.97225e-05
3.02965e-05
3.08608e-05
3.14115e-05
3.19455e-05
3.24604e-05
3.2955e-05
3.34279e-05
3.38783e-05
3.43058e-05
3.47107e-05
3.50934e-05
3.54549e-05
3.57962e-05
3.61189e-05
3.64245e-05
3.67146e-05
3.69907e-05
3.72545e-05
3.7507e-05
3.77496e-05
3.7983e-05
3.8208e-05
3.84252e-05
3.8635e-05
3.88376e-05
3.90334e-05
3.92227e-05
3.94059e-05
3.95837e-05
3.97569e-05
3.99265e-05
4.01013e-05
4.02916e-05
4.04772e-05
4.06589e-05
4.08375e-05
4.10114e-05
4.11811e-05
4.13478e-05
4.15122e-05
4.16759e-05
4.18403e-05
4.20056e-05
4.21723e-05
4.23408e-05
4.25114e-05
4.26842e-05
4.28592e-05
4.30363e-05
4.32153e-05
4.33962e-05
4.35786e-05
4.37625e-05
4.39477e-05
4.41339e-05
4.4321e-05
4.45089e-05
4.46975e-05
4.48868e-05
4.50768e-05
4.5266e-05
4.54354e-05
4.55907e-05
4.57403e-05
4.58839e-05
4.6027e-05
4.61741e-05
4.63255e-05
4.64813e-05
4.66415e-05
4.68063e-05
4.69756e-05
4.71492e-05
4.7327e-05
4.75088e-05
4.76942e-05
4.78829e-05
4.80747e-05
4.82692e-05
4.84661e-05
4.8665e-05
4.88654e-05
4.90671e-05
4.92697e-05
4.94727e-05
4.96758e-05
4.98785e-05
5.00804e-05
5.02811e-05
5.048e-05
5.06764e-05
5.087e-05
5.10602e-05
5.12496e-05
5.14443e-05
5.16462e-05
5.18563e-05
5.20732e-05
5.22927e-05
5.25144e-05
5.27385e-05
5.29651e-05
5.31938e-05
5.3425e-05
5.36575e-05
5.38929e-05
5.4128e-05
5.43675e-05
5.46045e-05
5.48411e-05
5.51423e-05
5.51284e-05
1.40815e-05
1.40817e-05
1.40819e-05
1.40819e-05
1.40818e-05
1.40816e-05
1.40813e-05
1.4081e-05
1.40805e-05
1.40799e-05
1.40793e-05
1.40785e-05
1.40778e-05
1.4077e-05
1.56071e-05
1.56908e-05
1.57786e-05
1.58709e-05
1.59679e-05
1.607e-05
1.61775e-05
1.62909e-05
1.64105e-05
1.65366e-05
1.66697e-05
1.681e-05
1.69579e-05
1.71135e-05
1.72771e-05
1.74486e-05
1.76281e-05
1.78156e-05
1.80108e-05
1.82136e-05
1.84236e-05
1.86406e-05
1.88641e-05
1.90938e-05
1.93294e-05
1.95705e-05
1.98172e-05
2.00692e-05
2.03268e-05
2.05902e-05
2.086e-05
2.11369e-05
2.14217e-05
2.17157e-05
2.202e-05
2.23359e-05
2.2665e-05
2.30087e-05
2.33684e-05
2.37455e-05
2.41412e-05
2.45564e-05
2.49918e-05
2.54476e-05
2.59237e-05
2.64195e-05
2.69335e-05
2.74639e-05
2.80084e-05
2.8564e-05
2.91272e-05
2.96943e-05
3.02613e-05
3.08242e-05
3.13789e-05
3.19217e-05
3.24493e-05
3.29589e-05
3.34483e-05
3.39163e-05
3.43626e-05
3.47869e-05
3.51891e-05
3.55697e-05
3.59295e-05
3.62694e-05
3.65906e-05
3.68944e-05
3.71823e-05
3.74556e-05
3.77155e-05
3.79633e-05
3.81999e-05
3.84261e-05
3.86425e-05
3.88496e-05
3.90478e-05
3.92375e-05
3.9419e-05
3.9593e-05
3.976e-05
3.9921e-05
4.00771e-05
4.02292e-05
4.03797e-05
4.05453e-05
4.07124e-05
4.0876e-05
4.10378e-05
4.11971e-05
4.13533e-05
4.15073e-05
4.16599e-05
4.18126e-05
4.19664e-05
4.21215e-05
4.2278e-05
4.24362e-05
4.25963e-05
4.27582e-05
4.29218e-05
4.30868e-05
4.32531e-05
4.34207e-05
4.35892e-05
4.37585e-05
4.39285e-05
4.40993e-05
4.42707e-05
4.44426e-05
4.46151e-05
4.47883e-05
4.4955e-05
4.51008e-05
4.5241e-05
4.53766e-05
4.55089e-05
4.56446e-05
4.57848e-05
4.59294e-05
4.60785e-05
4.62321e-05
4.63899e-05
4.65519e-05
4.67177e-05
4.68872e-05
4.70599e-05
4.72356e-05
4.7414e-05
4.75946e-05
4.77772e-05
4.79615e-05
4.8147e-05
4.83334e-05
4.85202e-05
4.87072e-05
4.88938e-05
4.90796e-05
4.9264e-05
4.94466e-05
4.96266e-05
4.9804e-05
4.99813e-05
5.01644e-05
5.0355e-05
5.05539e-05
5.07584e-05
5.09657e-05
5.11759e-05
5.13889e-05
5.16047e-05
5.18232e-05
5.2044e-05
5.22671e-05
5.24921e-05
5.27189e-05
5.29472e-05
5.31768e-05
5.34073e-05
5.36385e-05
5.38703e-05
5.41025e-05
5.43348e-05
5.45672e-05
5.47996e-05
5.5032e-05
5.52645e-05
5.54971e-05
5.573e-05
5.59636e-05
5.61983e-05
5.64346e-05
5.66732e-05
5.69147e-05
5.716e-05
5.74087e-05
5.76603e-05
5.79136e-05
5.81676e-05
5.84218e-05
5.86763e-05
5.89308e-05
5.91855e-05
5.944e-05
5.96947e-05
5.99488e-05
6.02037e-05
6.04569e-05
6.07136e-05
6.09643e-05
6.12167e-05
6.14666e-05
6.13278e-05
1.41973e-05
1.41981e-05
1.41984e-05
1.41982e-05
1.41975e-05
1.41963e-05
1.41947e-05
1.41927e-05
1.41903e-05
1.41875e-05
1.41845e-05
1.41812e-05
1.41777e-05
2.04252e-05
2.07001e-05
2.09811e-05
2.12684e-05
2.15622e-05
2.18631e-05
2.21717e-05
2.24888e-05
2.28154e-05
2.31527e-05
2.35017e-05
2.38636e-05
2.42397e-05
2.46311e-05
2.50386e-05
2.54629e-05
2.59046e-05
2.63637e-05
2.68399e-05
2.73325e-05
2.78402e-05
2.83613e-05
2.88936e-05
2.94344e-05
2.99807e-05
3.05291e-05
3.10761e-05
3.1618e-05
3.21515e-05
3.2673e-05
3.31797e-05
3.36691e-05
3.41391e-05
3.45883e-05
3.5016e-05
3.54225e-05
3.58081e-05
3.61733e-05
3.65186e-05
3.68449e-05
3.71534e-05
3.7445e-05
3.77208e-05
3.79821e-05
3.82298e-05
3.84648e-05
3.86879e-05
3.88999e-05
3.91012e-05
3.92924e-05
3.9474e-05
3.96463e-05
3.98102e-05
3.99662e-05
4.01155e-05
4.02591e-05
4.03985e-05
4.05347e-05
4.06696e-05
4.0817e-05
4.09673e-05
4.11152e-05
4.12622e-05
4.14083e-05
4.15526e-05
4.16953e-05
4.18376e-05
4.19805e-05
4.21246e-05
4.22699e-05
4.24166e-05
4.25647e-05
4.27141e-05
4.28649e-05
4.30168e-05
4.31697e-05
4.33234e-05
4.3478e-05
4.36332e-05
4.37891e-05
4.39457e-05
4.41028e-05
4.42604e-05
4.44188e-05
4.45768e-05
4.47186e-05
4.48509e-05
4.49798e-05
4.51051e-05
4.52308e-05
4.53609e-05
4.54953e-05
4.5634e-05
4.57769e-05
4.59237e-05
4.60743e-05
4.62285e-05
4.63858e-05
4.6546e-05
4.67088e-05
4.68739e-05
4.7041e-05
4.72096e-05
4.73794e-05
4.75502e-05
4.77214e-05
4.78927e-05
4.80636e-05
4.82337e-05
4.84024e-05
4.85691e-05
4.87336e-05
4.88963e-05
4.90618e-05
4.92336e-05
4.94128e-05
4.95992e-05
4.97892e-05
4.99822e-05
5.01783e-05
5.03775e-05
5.05794e-05
5.07841e-05
5.09912e-05
5.12006e-05
5.1412e-05
5.16251e-05
5.18398e-05
5.2056e-05
5.22733e-05
5.24916e-05
5.2711e-05
5.29311e-05
5.31521e-05
5.33739e-05
5.35966e-05
5.38205e-05
5.40456e-05
5.42725e-05
5.45016e-05
5.47336e-05
5.49692e-05
5.5209e-05
5.54528e-05
5.56996e-05
5.59485e-05