/*--------------------------------*- C++ -*----------------------------------*\
| =========                 |                                                 |
| \\      /  F ield         | OpenFOAM: The Open Source CFD Toolbox           |
|  \\    /   O peration     | Version:  v1706                                 |
|   \\  /    A nd           | Web:      www.OpenFOAM.com                      |
|    \\/     M anipulation  |                                                 |
\*---------------------------------------------------------------------------*/
FoamFile
{
    version     2.0;
    format      ascii;
    class       volScalarField;
    location    "4e-06";
    object      kappave;
}
// * * * * * * * * * * * * * * * * * * * * * * * * * * * * * * * * * * * * * //

dimensions      [1 1 -3 -1 0 0 0];


internalField   nonuniform List<scalar> 
30104
(
1.46038e-10
1.46038e-10
1.46038e-10
1.46038e-10
1.46038e-10
1.46038e-10
1.46038e-10
1.46038e-10
1.46038e-10
1.46038e-10
1.46038e-10
1.46038e-10
1.46038e-10
1.46038e-10
1.46038e-10
1.46038e-10
1.46038e-10
1.46038e-10
1.46038e-10
1.46038e-10
1.46038e-10
1.46038e-10
1.46038e-10
1.46038e-10
1.46038e-10
1.46038e-10
1.46038e-10
1.46038e-10
1.46038e-10
1.46038e-10
1.46038e-10
1.46038e-10
1.46038e-10
1.46038e-10
1.46038e-10
1.46038e-10
1.46038e-10
1.46038e-10
1.46038e-10
1.46038e-10
1.46038e-10
1.46038e-10
1.46038e-10
1.46038e-10
1.46038e-10
1.46038e-10
1.46038e-10
1.46038e-10
1.46038e-10
1.46038e-10
1.46038e-10
1.46038e-10
1.46038e-10
1.46038e-10
1.46038e-10
1.46038e-10
1.46038e-10
1.46038e-10
1.46038e-10
1.46038e-10
1.46038e-10
1.46038e-10
1.46038e-10
1.46038e-10
1.46038e-10
1.46038e-10
1.46038e-10
1.46038e-10
1.46038e-10
1.46038e-10
1.46038e-10
1.46038e-10
1.46038e-10
1.46038e-10
1.46038e-10
1.46038e-10
1.46038e-10
1.46038e-10
1.46038e-10
1.46038e-10
1.46038e-10
1.46038e-10
1.46038e-10
1.46038e-10
1.46038e-10
1.46038e-10
1.46038e-10
1.46038e-10
1.46038e-10
1.46038e-10
1.46038e-10
1.46038e-10
1.46038e-10
1.46038e-10
1.46038e-10
1.46038e-10
1.46038e-10
1.46038e-10
1.46038e-10
1.46038e-10
1.46038e-10
1.46038e-10
1.46038e-10
1.46038e-10
1.46038e-10
1.46038e-10
1.46038e-10
1.46038e-10
1.46038e-10
1.46038e-10
1.46038e-10
1.46038e-10
1.46038e-10
1.46038e-10
1.46038e-10
1.46038e-10
1.46038e-10
1.46038e-10
1.46038e-10
1.46038e-10
1.46038e-10
1.46038e-10
1.46038e-10
1.46038e-10
1.46038e-10
1.46038e-10
1.46038e-10
1.46038e-10
1.46038e-10
1.46038e-10
1.46038e-10
1.46038e-10
1.46038e-10
1.46038e-10
1.46038e-10
1.46038e-10
1.46038e-10
1.46038e-10
1.46038e-10
1.46038e-10
1.46038e-10
1.46038e-10
1.46038e-10
1.46038e-10
1.46038e-10
1.46038e-10
1.46038e-10
1.46038e-10
1.46038e-10
1.46038e-10
1.46038e-10
1.46038e-10
1.46038e-10
1.46038e-10
1.46038e-10
1.46038e-10
1.46038e-10
1.46038e-10
1.46038e-10
1.46038e-10
1.46038e-10
1.46038e-10
1.46038e-10
1.46038e-10
1.46038e-10
1.46038e-10
1.46038e-10
1.46038e-10
1.46038e-10
1.46038e-10
1.46038e-10
1.46038e-10
1.46038e-10
1.46038e-10
1.46038e-10
1.46038e-10
1.46038e-10
1.46038e-10
1.46038e-10
1.46038e-10
1.46038e-10
1.46038e-10
1.46038e-10
1.46038e-10
1.46038e-10
1.46038e-10
1.46038e-10
1.46038e-10
1.46038e-10
1.46038e-10
1.46038e-10
1.46038e-10
1.46038e-10
1.46038e-10
1.46038e-10
1.46038e-10
1.46038e-10
1.46038e-10
1.46038e-10
1.46038e-10
1.46038e-10
1.46038e-10
1.46038e-10
1.46038e-10
1.46038e-10
1.46038e-10
1.46038e-10
1.46038e-10
1.46038e-10
1.46038e-10
1.46038e-10
1.46038e-10
1.46038e-10
1.46038e-10
1.46038e-10
1.46038e-10
1.46038e-10
1.46038e-10
1.46038e-10
1.46038e-10
1.46038e-10
1.46038e-10
1.46038e-10
1.46038e-10
1.46038e-10
1.46038e-10
1.46038e-10
1.46038e-10
1.46038e-10
1.46038e-10
1.46038e-10
1.46038e-10
1.46038e-10
1.46038e-10
1.46038e-10
1.46038e-10
1.46038e-10
1.46038e-10
1.46038e-10
1.46038e-10
1.46038e-10
1.46038e-10
1.46038e-10
1.46038e-10
1.46038e-10
1.46038e-10
1.46038e-10
1.46038e-10
1.46038e-10
1.46038e-10
1.46038e-10
1.46038e-10
1.46038e-10
1.46038e-10
1.46038e-10
1.46038e-10
1.46038e-10
1.46038e-10
1.46038e-10
1.46038e-10
1.46038e-10
1.46038e-10
1.46038e-10
1.46038e-10
1.46038e-10
1.46038e-10
1.46038e-10
1.46038e-10
1.46038e-10
1.46038e-10
1.46038e-10
1.46038e-10
1.46038e-10
1.46038e-10
1.46038e-10
1.46038e-10
1.46038e-10
1.46038e-10
1.46038e-10
1.46038e-10
1.46038e-10
1.46038e-10
1.46038e-10
1.46038e-10
1.46038e-10
1.46038e-10
1.46038e-10
1.46038e-10
1.46038e-10
1.46038e-10
1.46038e-10
1.46038e-10
1.46038e-10
1.46038e-10
1.46038e-10
1.46038e-10
1.46038e-10
1.46038e-10
1.46038e-10
1.46038e-10
1.46038e-10
1.46038e-10
1.46038e-10
1.46038e-10
1.46038e-10
1.46038e-10
1.46038e-10
1.46038e-10
1.46038e-10
1.46038e-10
1.46038e-10
1.46038e-10
1.46038e-10
1.46038e-10
1.46038e-10
1.46038e-10
1.46038e-10
1.46038e-10
1.46038e-10
1.46038e-10
1.46038e-10
1.46038e-10
1.46038e-10
1.46038e-10
1.46038e-10
1.46038e-10
1.46038e-10
1.46038e-10
1.46038e-10
1.46038e-10
1.46038e-10
1.46038e-10
1.46038e-10
1.46038e-10
1.46038e-10
1.46038e-10
1.46038e-10
1.46038e-10
1.46038e-10
1.46038e-10
1.46038e-10
1.46038e-10
1.46038e-10
1.46038e-10
1.46038e-10
1.46038e-10
1.46038e-10
1.46038e-10
1.46038e-10
1.46038e-10
1.46038e-10
1.46038e-10
1.46038e-10
1.46038e-10
1.46038e-10
1.46038e-10
1.46038e-10
1.46038e-10
1.46038e-10
1.46038e-10
1.46038e-10
1.46038e-10
1.46038e-10
1.46038e-10
1.46038e-10
1.46039e-10
1.46039e-10
1.46039e-10
1.46039e-10
1.46039e-10
1.46039e-10
1.46039e-10
1.46039e-10
1.46039e-10
1.46039e-10
1.46039e-10
1.46039e-10
1.46039e-10
1.46039e-10
1.46039e-10
1.46039e-10
1.46039e-10
1.4604e-10
1.4604e-10
1.4604e-10
1.4604e-10
1.4604e-10
1.4604e-10
1.4604e-10
1.4604e-10
1.4604e-10
1.46041e-10
1.46041e-10
1.46041e-10
1.46041e-10
1.46041e-10
1.46041e-10
1.46042e-10
1.46042e-10
1.46042e-10
1.46042e-10
1.46042e-10
1.46043e-10
1.46043e-10
1.46043e-10
1.46043e-10
1.46044e-10
1.46044e-10
1.46044e-10
1.46045e-10
1.46045e-10
1.46046e-10
1.46046e-10
1.46046e-10
1.46047e-10
1.46047e-10
1.46048e-10
1.46048e-10
1.46049e-10
1.46048e-10
1.46038e-10
1.46038e-10
1.46038e-10
1.46038e-10
1.46038e-10
1.46038e-10
1.46038e-10
1.46038e-10
1.46038e-10
1.46038e-10
1.46038e-10
1.46038e-10
1.46038e-10
1.46038e-10
1.46038e-10
1.46038e-10
1.46038e-10
1.46038e-10
1.46038e-10
1.46038e-10
1.46038e-10
1.46038e-10
1.46038e-10
1.46038e-10
1.46038e-10
1.46038e-10
1.46038e-10
1.46038e-10
1.46038e-10
1.46038e-10
1.46038e-10
1.46038e-10
1.46038e-10
1.46038e-10
1.46038e-10
1.46038e-10
1.46038e-10
1.46038e-10
1.46038e-10
1.46038e-10
1.46038e-10
1.46038e-10
1.46038e-10
1.46038e-10
1.46038e-10
1.46038e-10
1.46038e-10
1.46038e-10
1.46038e-10
1.46038e-10
1.46038e-10
1.46038e-10
1.46038e-10
1.46038e-10
1.46038e-10
1.46038e-10
1.46038e-10
1.46038e-10
1.46038e-10
1.46038e-10
1.46038e-10
1.46038e-10
1.46038e-10
1.46038e-10
1.46038e-10
1.46038e-10
1.46038e-10
1.46038e-10
1.46038e-10
1.46038e-10
1.46038e-10
1.46038e-10
1.46038e-10
1.46038e-10
1.46038e-10
1.46038e-10
1.46038e-10
1.46038e-10
1.46038e-10
1.46038e-10
1.46038e-10
1.46038e-10
1.46038e-10
1.46038e-10
1.46038e-10
1.46038e-10
1.46038e-10
1.46038e-10
1.46038e-10
1.46038e-10
1.46038e-10
1.46038e-10
1.46038e-10
1.46038e-10
1.46038e-10
1.46038e-10
1.46038e-10
1.46038e-10
1.46038e-10
1.46038e-10
1.46038e-10
1.46038e-10
1.46038e-10
1.46038e-10
1.46038e-10
1.46038e-10
1.46038e-10
1.46039e-10
1.46039e-10
1.46039e-10
1.46039e-10
1.46039e-10
1.46039e-10
1.46039e-10
1.46039e-10
1.46039e-10
1.46039e-10
1.46039e-10
1.46039e-10
1.46039e-10
1.46039e-10
1.46039e-10
1.46039e-10
1.46039e-10
1.4604e-10
1.4604e-10
1.4604e-10
1.4604e-10
1.4604e-10
1.4604e-10
1.4604e-10
1.4604e-10
1.4604e-10
1.46041e-10
1.46041e-10
1.46041e-10
1.46041e-10
1.46041e-10
1.46041e-10
1.46042e-10
1.46042e-10
1.46042e-10
1.46042e-10
1.46042e-10
1.46043e-10
1.46043e-10
1.46043e-10
1.46044e-10
1.46044e-10
1.46044e-10
1.46045e-10
1.46045e-10
1.46045e-10
1.46046e-10
1.46046e-10
1.46047e-10
1.46047e-10
1.46048e-10
1.46048e-10
1.46049e-10
1.46049e-10
1.4605e-10
1.46051e-10
1.46051e-10
1.46052e-10
1.46053e-10
1.46054e-10
1.46055e-10
1.46055e-10
1.46056e-10
1.46057e-10
1.46058e-10
1.4606e-10
1.46061e-10
1.46062e-10
1.46063e-10
1.46065e-10
1.46066e-10
1.46067e-10
1.46069e-10
1.46071e-10
1.46072e-10
1.46074e-10
1.46076e-10
1.46078e-10
1.4608e-10
1.46083e-10
1.46085e-10
1.46088e-10
1.4609e-10
1.46093e-10
1.46096e-10
1.461e-10
1.46103e-10
1.46107e-10
1.46111e-10
1.46115e-10
1.46119e-10
1.46124e-10
1.46128e-10
1.46134e-10
1.46139e-10
1.46145e-10
1.46151e-10
1.46157e-10
1.46164e-10
1.46171e-10
1.46181e-10
1.46176e-10
1.46038e-10
1.46038e-10
1.46038e-10
1.46038e-10
1.46038e-10
1.46038e-10
1.46038e-10
1.46038e-10
1.46038e-10
1.46038e-10
1.46038e-10
1.46038e-10
1.46038e-10
1.46038e-10
1.46038e-10
1.46038e-10
1.46038e-10
1.46038e-10
1.46038e-10
1.46038e-10
1.46038e-10
1.46038e-10
1.46038e-10
1.46038e-10
1.46038e-10
1.46038e-10
1.46038e-10
1.46038e-10
1.46038e-10
1.46038e-10
1.46038e-10
1.46038e-10
1.46038e-10
1.46038e-10
1.46038e-10
1.46038e-10
1.46038e-10
1.46038e-10
1.46038e-10
1.46038e-10
1.46038e-10
1.46038e-10
1.46038e-10
1.46038e-10
1.46038e-10
1.46038e-10
1.46038e-10
1.46038e-10
1.46038e-10
1.46038e-10
1.46038e-10
1.46038e-10
1.46038e-10
1.46038e-10
1.46038e-10
1.46038e-10
1.46038e-10
1.46038e-10
1.46038e-10
1.46038e-10
1.46038e-10
1.46038e-10
1.46038e-10
1.46038e-10
1.46038e-10
1.46039e-10
1.46039e-10
1.46039e-10
1.46039e-10
1.46039e-10
1.46039e-10
1.46039e-10
1.46039e-10
1.46039e-10
1.46039e-10
1.46039e-10
1.46039e-10
1.46039e-10
1.46039e-10
1.46039e-10
1.46039e-10
1.4604e-10
1.4604e-10
1.4604e-10
1.4604e-10
1.4604e-10
1.4604e-10
1.4604e-10
1.4604e-10
1.4604e-10
1.46041e-10
1.46041e-10
1.46041e-10
1.46041e-10
1.46041e-10
1.46041e-10
1.46042e-10
1.46042e-10
1.46042e-10
1.46042e-10
1.46042e-10
1.46043e-10
1.46043e-10
1.46043e-10
1.46043e-10
1.46044e-10
1.46044e-10
1.46044e-10
1.46045e-10
1.46045e-10
1.46045e-10
1.46046e-10
1.46046e-10
1.46047e-10
1.46047e-10
1.46048e-10
1.46048e-10
1.46049e-10
1.46049e-10
1.4605e-10
1.46051e-10
1.46051e-10
1.46052e-10
1.46053e-10
1.46054e-10
1.46055e-10
1.46056e-10
1.46057e-10
1.46058e-10
1.46059e-10
1.4606e-10
1.46061e-10
1.46063e-10
1.46064e-10
1.46066e-10
1.46067e-10
1.46069e-10
1.4607e-10
1.46072e-10
1.46074e-10
1.46076e-10
1.46078e-10
1.4608e-10
1.46083e-10
1.46085e-10
1.46088e-10
1.46091e-10
1.46093e-10
1.46097e-10
1.461e-10
1.46103e-10
1.46107e-10
1.46111e-10
1.46115e-10
1.46119e-10
1.46124e-10
1.46129e-10
1.46134e-10
1.46139e-10
1.46145e-10
1.46152e-10
1.46158e-10
1.46165e-10
1.46173e-10
1.46181e-10
1.46189e-10
1.46198e-10
1.46207e-10
1.46217e-10
1.46228e-10
1.46239e-10
1.46251e-10
1.46263e-10
1.46276e-10
1.4629e-10
1.46305e-10
1.4632e-10
1.46336e-10
1.46354e-10
1.46372e-10
1.46391e-10
1.46411e-10
1.46432e-10
1.46454e-10
1.46478e-10
1.46503e-10
1.4653e-10
1.46558e-10
1.46588e-10
1.4662e-10
1.46654e-10
1.4669e-10
1.46728e-10
1.46769e-10
1.46812e-10
1.46859e-10
1.46908e-10
1.46961e-10
1.47018e-10
1.47078e-10
1.47143e-10
1.47212e-10
1.47286e-10
1.47365e-10
1.47449e-10
1.47539e-10
1.47633e-10
1.47766e-10
1.47743e-10
1.46038e-10
1.46038e-10
1.46038e-10
1.46038e-10
1.46038e-10
1.46038e-10
1.46038e-10
1.46038e-10
1.46038e-10
1.46038e-10
1.46038e-10
1.46038e-10
1.46038e-10
1.46038e-10
1.46038e-10
1.46038e-10
1.46038e-10
1.46038e-10
1.46038e-10
1.46038e-10
1.46038e-10
1.46038e-10
1.46038e-10
1.46038e-10
1.46039e-10
1.46039e-10
1.46039e-10
1.46039e-10
1.46039e-10
1.46039e-10
1.46039e-10
1.46039e-10
1.46039e-10
1.46039e-10
1.46039e-10
1.46039e-10
1.46039e-10
1.46039e-10
1.46039e-10
1.46039e-10
1.46039e-10
1.4604e-10
1.4604e-10
1.4604e-10
1.4604e-10
1.4604e-10
1.4604e-10
1.4604e-10
1.4604e-10
1.4604e-10
1.46041e-10
1.46041e-10
1.46041e-10
1.46041e-10
1.46041e-10
1.46041e-10
1.46042e-10
1.46042e-10
1.46042e-10
1.46042e-10
1.46042e-10
1.46043e-10
1.46043e-10
1.46043e-10
1.46044e-10
1.46044e-10
1.46044e-10
1.46045e-10
1.46045e-10
1.46045e-10
1.46046e-10
1.46046e-10
1.46047e-10
1.46047e-10
1.46047e-10
1.46048e-10
1.46049e-10
1.46049e-10
1.4605e-10
1.4605e-10
1.46051e-10
1.46052e-10
1.46052e-10
1.46053e-10
1.46054e-10
1.46055e-10
1.46056e-10
1.46057e-10
1.46058e-10
1.46059e-10
1.4606e-10
1.46062e-10
1.46063e-10
1.46064e-10
1.46066e-10
1.46067e-10
1.46069e-10
1.46071e-10
1.46073e-10
1.46075e-10
1.46077e-10
1.46079e-10
1.46081e-10
1.46084e-10
1.46086e-10
1.46089e-10
1.46092e-10
1.46095e-10
1.46098e-10
1.46102e-10
1.46105e-10
1.46109e-10
1.46113e-10
1.46117e-10
1.46122e-10
1.46127e-10
1.46131e-10
1.46137e-10
1.46142e-10
1.46148e-10
1.46155e-10
1.46161e-10
1.46168e-10
1.46176e-10
1.46184e-10
1.46192e-10
1.46202e-10
1.46211e-10
1.46222e-10
1.46232e-10
1.46244e-10
1.46256e-10
1.4627e-10
1.46284e-10
1.46298e-10
1.46314e-10
1.46331e-10
1.46348e-10
1.46367e-10
1.46386e-10
1.46407e-10
1.46429e-10
1.46452e-10
1.46477e-10
1.46503e-10
1.46531e-10
1.4656e-10
1.4659e-10
1.46623e-10
1.46657e-10
1.46694e-10
1.46733e-10
1.46774e-10
1.46818e-10
1.46865e-10
1.46915e-10
1.46969e-10
1.47026e-10
1.47087e-10
1.47152e-10
1.47222e-10
1.47296e-10
1.47376e-10
1.47462e-10
1.47554e-10
1.47652e-10
1.47757e-10
1.47869e-10
1.4799e-10
1.48118e-10
1.48256e-10
1.48402e-10
1.48559e-10
1.48726e-10
1.48903e-10
1.49092e-10
1.49292e-10
1.49505e-10
1.4973e-10
1.49968e-10
1.5022e-10
1.50485e-10
1.50765e-10
1.5106e-10
1.51371e-10
1.51698e-10
1.52043e-10
1.52406e-10
1.52788e-10
1.53191e-10
1.53617e-10
1.54066e-10
1.54542e-10
1.55047e-10
1.55582e-10
1.56152e-10
1.56759e-10
1.57407e-10
1.581e-10
1.58843e-10
1.5964e-10
1.60496e-10
1.61419e-10
1.62411e-10
1.63484e-10
1.64625e-10
1.66089e-10
1.66379e-10
1.46038e-10
1.46038e-10
1.46038e-10
1.46038e-10
1.46038e-10
1.46038e-10
1.46038e-10
1.46038e-10
1.46038e-10
1.46038e-10
1.46038e-10
1.46038e-10
1.46038e-10
1.46038e-10
1.46038e-10
1.46038e-10
1.46041e-10
1.46041e-10
1.46041e-10
1.46041e-10
1.46042e-10
1.46042e-10
1.46042e-10
1.46042e-10
1.46042e-10
1.46043e-10
1.46043e-10
1.46043e-10
1.46044e-10
1.46044e-10
1.46044e-10
1.46045e-10
1.46045e-10
1.46045e-10
1.46046e-10
1.46046e-10
1.46047e-10
1.46047e-10
1.46047e-10
1.46048e-10
1.46049e-10
1.46049e-10
1.4605e-10
1.4605e-10
1.46051e-10
1.46052e-10
1.46052e-10
1.46053e-10
1.46054e-10
1.46055e-10
1.46056e-10
1.46057e-10
1.46058e-10
1.46059e-10
1.4606e-10
1.46061e-10
1.46063e-10
1.46064e-10
1.46066e-10
1.46067e-10
1.46069e-10
1.4607e-10
1.46072e-10
1.46074e-10
1.46076e-10
1.46078e-10
1.46081e-10
1.46083e-10
1.46086e-10
1.46088e-10
1.46091e-10
1.46094e-10
1.46098e-10
1.46101e-10
1.46105e-10
1.46109e-10
1.46113e-10
1.46117e-10
1.46121e-10
1.46126e-10
1.46131e-10
1.46137e-10
1.46142e-10
1.46148e-10
1.46155e-10
1.46161e-10
1.46168e-10
1.46176e-10
1.46184e-10
1.46192e-10
1.46201e-10
1.4621e-10
1.4622e-10
1.46231e-10
1.46242e-10
1.46254e-10
1.46267e-10
1.46281e-10
1.46295e-10
1.46311e-10
1.46327e-10
1.46345e-10
1.46363e-10
1.46383e-10
1.46404e-10
1.46426e-10
1.4645e-10
1.46475e-10
1.46502e-10
1.4653e-10
1.4656e-10
1.46591e-10
1.46625e-10
1.4666e-10
1.46698e-10
1.46738e-10
1.4678e-10
1.46824e-10
1.46872e-10
1.46922e-10
1.46975e-10
1.47032e-10
1.47092e-10
1.47156e-10
1.47225e-10
1.47298e-10
1.47376e-10
1.47459e-10
1.47549e-10
1.47645e-10
1.47747e-10
1.47858e-10
1.47976e-10
1.48102e-10
1.48238e-10
1.48384e-10
1.4854e-10
1.48708e-10
1.48887e-10
1.49079e-10
1.49284e-10
1.49503e-10
1.49737e-10
1.49985e-10
1.5025e-10
1.50531e-10
1.50829e-10
1.51146e-10
1.51481e-10
1.51835e-10
1.5221e-10
1.52606e-10
1.53024e-10
1.53466e-10
1.53934e-10
1.54428e-10
1.5495e-10
1.55504e-10
1.56092e-10
1.56716e-10
1.57381e-10
1.58089e-10
1.58846e-10
1.59656e-10
1.60523e-10
1.61455e-10
1.62458e-10
1.63538e-10
1.64703e-10
1.65962e-10
1.67324e-10
1.68798e-10
1.70394e-10
1.72123e-10
1.73995e-10
1.76021e-10
1.78213e-10
1.8058e-10
1.83135e-10
1.85888e-10
1.8885e-10
1.9203e-10
1.95437e-10
1.9908e-10
2.02966e-10
2.07101e-10
2.1149e-10
2.1614e-10
2.21054e-10
2.26236e-10
2.31692e-10
2.37427e-10
2.43447e-10
2.49759e-10
2.56374e-10
2.63305e-10
2.70564e-10
2.78179e-10
2.86165e-10
2.94568e-10
3.03404e-10
3.12749e-10
3.22613e-10
3.33124e-10
3.44256e-10
3.56244e-10
3.68904e-10
3.83866e-10
3.90785e-10
1.46038e-10
1.46038e-10
1.46038e-10
1.46038e-10
1.46038e-10
1.46038e-10
1.46038e-10
1.46038e-10
1.46038e-10
1.46038e-10
1.46038e-10
1.46038e-10
1.46038e-10
1.46057e-10
1.46058e-10
1.46059e-10
1.4606e-10
1.46061e-10
1.46063e-10
1.46064e-10
1.46066e-10
1.46067e-10
1.46069e-10
1.4607e-10
1.46072e-10
1.46074e-10
1.46076e-10
1.46078e-10
1.4608e-10
1.46083e-10
1.46085e-10
1.46088e-10
1.46091e-10
1.46094e-10
1.46097e-10
1.461e-10
1.46104e-10
1.46107e-10
1.46111e-10
1.46116e-10
1.4612e-10
1.46125e-10
1.4613e-10
1.46135e-10
1.46141e-10
1.46147e-10
1.46153e-10
1.4616e-10
1.46167e-10
1.46174e-10
1.46182e-10
1.46191e-10
1.46199e-10
1.46209e-10
1.46219e-10
1.46229e-10
1.4624e-10
1.46252e-10
1.46264e-10
1.46278e-10
1.46292e-10
1.46307e-10
1.46322e-10
1.46339e-10
1.46357e-10
1.46376e-10
1.46396e-10
1.46418e-10
1.46441e-10
1.46466e-10
1.46492e-10
1.46519e-10
1.46549e-10
1.4658e-10
1.46613e-10
1.46649e-10
1.46686e-10
1.46726e-10
1.46769e-10
1.46814e-10
1.46861e-10
1.46912e-10
1.46965e-10
1.47022e-10
1.47082e-10
1.47146e-10
1.47213e-10
1.47285e-10
1.47362e-10
1.47443e-10
1.4753e-10
1.47622e-10
1.47721e-10
1.47826e-10
1.47939e-10
1.48059e-10
1.48188e-10
1.48327e-10
1.48475e-10
1.48634e-10
1.48805e-10
1.48988e-10
1.49185e-10
1.49396e-10
1.49621e-10
1.49863e-10
1.50122e-10
1.50399e-10
1.50694e-10
1.51009e-10
1.51345e-10
1.51703e-10
1.52082e-10
1.52486e-10
1.52913e-10
1.53366e-10
1.53846e-10
1.54354e-10
1.54892e-10
1.5546e-10
1.56063e-10
1.56701e-10
1.57377e-10
1.58096e-10
1.5886e-10
1.59675e-10
1.60544e-10
1.61474e-10
1.62472e-10
1.63543e-10
1.64695e-10
1.65937e-10
1.67279e-10
1.6873e-10
1.703e-10
1.72001e-10
1.73845e-10
1.75843e-10
1.7801e-10
1.80356e-10
1.82897e-10
1.85644e-10
1.88612e-10
1.91813e-10
1.95259e-10
1.98962e-10
2.02933e-10
2.07181e-10
2.11715e-10
2.16543e-10
2.21672e-10
2.27109e-10
2.3286e-10
2.38932e-10
2.45332e-10
2.52072e-10
2.59163e-10
2.66619e-10
2.7446e-10
2.82709e-10
2.91394e-10
3.00553e-10
3.10231e-10
3.20485e-10
3.31382e-10
3.43003e-10
3.55441e-10
3.68807e-10
3.83224e-10
3.98834e-10
4.15797e-10
4.34292e-10
4.54518e-10
4.76693e-10
5.01056e-10
5.27865e-10
5.57399e-10
5.89949e-10
6.25816e-10
6.65298e-10
7.08693e-10
7.56285e-10
8.08342e-10
8.65099e-10
9.26758e-10
9.93472e-10
1.06536e-09
1.14249e-09
1.22492e-09
1.31264e-09
1.40566e-09
1.50382e-09
1.60712e-09
1.71526e-09
1.82832e-09
1.94575e-09
2.0679e-09
2.19389e-09
2.32453e-09
2.45836e-09
2.59719e-09
2.73833e-09
2.88536e-09
3.03336e-09
3.19278e-09
3.34075e-09
1.46041e-10
1.46041e-10
1.46042e-10
1.46042e-10
1.46042e-10
1.46042e-10
1.46042e-10
1.46041e-10
1.46041e-10
1.46041e-10
1.46041e-10
1.46041e-10
1.46041e-10
1.46153e-10
1.4616e-10
1.46167e-10
1.46175e-10
1.46182e-10
1.46191e-10
1.462e-10
1.46209e-10
1.46219e-10
1.4623e-10
1.46241e-10
1.46253e-10
1.46265e-10
1.46278e-10
1.46293e-10
1.46307e-10
1.46323e-10
1.4634e-10
1.46358e-10
1.46376e-10
1.46396e-10
1.46417e-10
1.4644e-10
1.46464e-10
1.46489e-10
1.46516e-10
1.46545e-10
1.46576e-10
1.46608e-10
1.46643e-10
1.4668e-10
1.46719e-10
1.46761e-10
1.46806e-10
1.46853e-10
1.46903e-10
1.46957e-10
1.47014e-10
1.47074e-10
1.47138e-10
1.47206e-10
1.47278e-10
1.47355e-10
1.47436e-10
1.47523e-10
1.47614e-10
1.47712e-10
1.47815e-10
1.47926e-10
1.48043e-10
1.48168e-10
1.48302e-10
1.48445e-10
1.48597e-10
1.4876e-10
1.48935e-10
1.49122e-10
1.49322e-10
1.49538e-10
1.49768e-10
1.50015e-10
1.50281e-10
1.50565e-10
1.50869e-10
1.51195e-10
1.51544e-10
1.51916e-10
1.52314e-10
1.52739e-10
1.53191e-10
1.53672e-10
1.54183e-10
1.54726e-10
1.55303e-10
1.55914e-10
1.56563e-10
1.5725e-10
1.57979e-10
1.58752e-10
1.59573e-10
1.60445e-10
1.61374e-10
1.62363e-10
1.6342e-10
1.6455e-10
1.65761e-10
1.67061e-10
1.6846e-10
1.69968e-10
1.71594e-10
1.73352e-10
1.75253e-10
1.77311e-10
1.7954e-10
1.81953e-10
1.84565e-10
1.87392e-10
1.90449e-10
1.93749e-10
1.97308e-10
2.01139e-10
2.05255e-10
2.09668e-10
2.14388e-10
2.19427e-10
2.24793e-10
2.30494e-10
2.3654e-10
2.42939e-10
2.49702e-10
2.56841e-10
2.64372e-10
2.72314e-10
2.80692e-10
2.89536e-10
2.98884e-10
3.0878e-10
3.1928e-10
3.3045e-10
3.42371e-10
3.55135e-10
3.68852e-10
3.83645e-10
3.99658e-10
4.17052e-10
4.36007e-10
4.56725e-10
4.79429e-10
5.0436e-10
5.31778e-10
5.61957e-10
5.95181e-10
6.31741e-10
6.71922e-10
7.16002e-10
7.64239e-10
8.16867e-10
8.74083e-10
9.36038e-10
1.00284e-09
1.07454e-09
1.15114e-09
1.23263e-09
1.31895e-09
1.41001e-09
1.50569e-09
1.60581e-09
1.71017e-09
1.81859e-09
1.93089e-09
2.0469e-09
2.16651e-09
2.28965e-09
2.41629e-09
2.54645e-09
2.68022e-09
2.8177e-09
2.95908e-09
3.10457e-09
3.25447e-09
3.40908e-09
3.56877e-09
3.73395e-09
3.90504e-09
4.08252e-09
4.26687e-09
4.45854e-09
4.65799e-09
4.8657e-09
5.08211e-09
5.3077e-09
5.54294e-09
5.78834e-09
6.04496e-09
6.32013e-09
6.61025e-09
6.91088e-09
7.22257e-09
7.5454e-09
7.87925e-09
8.22402e-09
8.58034e-09
8.94782e-09
9.32752e-09
9.7186e-09
1.01231e-08
1.05393e-08
1.09703e-08
1.14128e-08
1.18726e-08
1.23417e-08
1.28386e-08
1.33376e-08
1.46055e-10
1.46056e-10
1.46056e-10
1.46056e-10
1.46056e-10
1.46056e-10
1.46056e-10
1.46056e-10
1.46055e-10
1.46055e-10
1.46055e-10
1.46055e-10
1.46054e-10
1.46054e-10
1.46736e-10
1.46778e-10
1.46823e-10
1.4687e-10
1.46921e-10
1.46975e-10
1.47032e-10
1.47094e-10
1.47159e-10
1.47228e-10
1.47301e-10
1.47379e-10
1.47463e-10
1.47551e-10
1.47645e-10
1.47744e-10
1.4785e-10
1.47962e-10
1.48082e-10
1.48209e-10
1.48344e-10
1.48487e-10
1.4864e-10
1.48803e-10
1.48977e-10
1.49162e-10
1.4936e-10
1.49571e-10
1.49797e-10
1.50039e-10
1.50298e-10
1.50576e-10
1.50873e-10
1.51192e-10
1.51533e-10
1.51898e-10
1.5229e-10
1.52708e-10
1.53156e-10
1.53635e-10
1.54146e-10
1.54691e-10
1.55272e-10
1.5589e-10
1.56548e-10
1.57248e-10
1.57991e-10
1.5878e-10
1.59618e-10
1.60508e-10
1.61453e-10
1.62457e-10
1.63525e-10
1.64662e-10
1.65874e-10
1.67169e-10
1.68553e-10
1.70036e-10
1.71628e-10
1.73338e-10
1.7518e-10
1.77164e-10
1.79306e-10
1.81618e-10
1.84117e-10
1.86818e-10
1.89737e-10
1.9289e-10
1.96295e-10
1.99967e-10
2.03923e-10
2.08178e-10
2.12747e-10
2.17645e-10
2.22884e-10
2.28477e-10
2.34436e-10
2.40772e-10
2.47496e-10
2.54623e-10
2.62165e-10
2.70141e-10
2.78572e-10
2.87485e-10
2.96912e-10
3.06895e-10
3.17482e-10
3.28734e-10
3.40719e-10
3.53522e-10
3.6724e-10
3.81987e-10
3.97891e-10
4.151e-10
4.33782e-10
4.54119e-10
4.76317e-10
5.00594e-10
5.27187e-10
5.56343e-10
5.88316e-10
6.23365e-10
6.61743e-10
7.03695e-10
7.49443e-10
7.99188e-10
8.53093e-10
9.11284e-10
9.73842e-10
1.0408e-09
1.11216e-09
1.18786e-09
1.26784e-09
1.35201e-09
1.4403e-09
1.53256e-09
1.62867e-09
1.72849e-09
1.83188e-09
1.93873e-09
2.04896e-09
2.16251e-09
2.27939e-09
2.39964e-09
2.52337e-09
2.65071e-09
2.78188e-09
2.91714e-09
3.05681e-09
3.20121e-09
3.35075e-09
3.5058e-09
3.66678e-09
3.83409e-09
4.00815e-09
4.18937e-09
4.37814e-09
4.57488e-09
4.77996e-09
4.9938e-09
5.21685e-09
5.44994e-09
5.69952e-09
5.96148e-09
6.23288e-09
6.51418e-09
6.80529e-09
7.10609e-09
7.41675e-09
7.73747e-09
8.06843e-09
8.41005e-09
8.76285e-09
9.12718e-09
9.50347e-09
9.89217e-09
1.02938e-08
1.07087e-08
1.11376e-08
1.15808e-08
1.2039e-08
1.25127e-08
1.30026e-08
1.35092e-08
1.40332e-08
1.45755e-08
1.51366e-08
1.57173e-08
1.63184e-08
1.69407e-08
1.7585e-08
1.82522e-08
1.89433e-08
1.96593e-08
2.04032e-08
2.1169e-08
2.19534e-08
2.27564e-08
2.35793e-08
2.44264e-08
2.5298e-08
2.61957e-08
2.7119e-08
2.80701e-08
2.90482e-08
3.00561e-08
3.10922e-08
3.21602e-08
3.32577e-08
3.43903e-08
3.55469e-08
3.67843e-08
3.79267e-08
1.46121e-10
1.46122e-10
1.46123e-10
1.46123e-10
1.46123e-10
1.46123e-10
1.46122e-10
1.46121e-10
1.4612e-10
1.46119e-10
1.46117e-10
1.46116e-10
1.46114e-10
1.46112e-10
1.5026e-10
1.50527e-10
1.50811e-10
1.51116e-10
1.51441e-10
1.51789e-10
1.52162e-10
1.5256e-10
1.52987e-10
1.53443e-10
1.53932e-10
1.54454e-10
1.55012e-10
1.55608e-10
1.56245e-10
1.56924e-10
1.57648e-10
1.58419e-10
1.5924e-10
1.60113e-10
1.61042e-10
1.62029e-10
1.63078e-10
1.64192e-10
1.65377e-10
1.66638e-10
1.67979e-10
1.69409e-10
1.70933e-10
1.72562e-10
1.74303e-10
1.76168e-10
1.78169e-10
1.80317e-10
1.82627e-10
1.85113e-10
1.8779e-10
1.90676e-10
1.93787e-10
1.9714e-10
2.00754e-10
2.04647e-10
2.08836e-10
2.1334e-10
2.18176e-10
2.2336e-10
2.28909e-10
2.34839e-10
2.41163e-10
2.47899e-10
2.55059e-10
2.62662e-10
2.70724e-10
2.79267e-10
2.88315e-10
2.97896e-10
3.08047e-10
3.18811e-10
3.30242e-10
3.42401e-10
3.55363e-10
3.69215e-10
3.84056e-10
4.00002e-10
4.17185e-10
4.3575e-10
4.55864e-10
4.77706e-10
5.01473e-10
5.27374e-10
5.55629e-10
5.86465e-10
6.20111e-10
6.56793e-10
6.96727e-10
7.40114e-10
7.87129e-10
8.37921e-10
8.92601e-10
9.51242e-10
1.01388e-09
1.08049e-09
1.15104e-09
1.22545e-09
1.30361e-09
1.38543e-09
1.47083e-09
1.55972e-09
1.65197e-09
1.74748e-09
1.84618e-09
1.94799e-09
2.05289e-09
2.16088e-09
2.27203e-09
2.38647e-09
2.50433e-09
2.62583e-09
2.75121e-09
2.88073e-09
3.0147e-09
3.15342e-09
3.29722e-09
3.44645e-09
3.60143e-09
3.7625e-09
3.93001e-09
4.10429e-09
4.28572e-09
4.47464e-09
4.67147e-09
4.87661e-09
5.09249e-09
5.32241e-09
5.56092e-09
5.80812e-09
6.06432e-09
6.32942e-09
6.60359e-09
6.88706e-09
7.18007e-09
7.48303e-09
7.79634e-09
8.12029e-09
8.45525e-09
8.8016e-09
9.1598e-09
9.53029e-09
9.91362e-09
1.03103e-08
1.07209e-08
1.11461e-08
1.15864e-08
1.20425e-08
1.25151e-08
1.30048e-08
1.35123e-08
1.40385e-08
1.45839e-08
1.51495e-08
1.57359e-08
1.63441e-08
1.69757e-08
1.76257e-08
1.82921e-08
1.89749e-08
1.96763e-08
2.03987e-08
2.11425e-08
2.19085e-08
2.26972e-08
2.35096e-08
2.43465e-08
2.52087e-08
2.60973e-08
2.7013e-08
2.79567e-08
2.89293e-08
2.99316e-08
3.09645e-08
3.20288e-08
3.31254e-08
3.42551e-08
3.54189e-08
3.66175e-08
3.78518e-08
3.91227e-08
4.04308e-08
4.17768e-08
4.31614e-08
4.45853e-08
4.60489e-08
4.75525e-08
4.90968e-08
5.06822e-08
5.23104e-08
5.39831e-08
5.57031e-08
5.74695e-08
5.92798e-08
6.1134e-08
6.30348e-08
6.49823e-08
6.69791e-08
6.90253e-08
7.11224e-08
7.32733e-08
7.54742e-08
7.77364e-08
8.00468e-08
8.24052e-08
8.50064e-08
8.67351e-08
1.46432e-10
1.46435e-10
1.46436e-10
1.46436e-10
1.46435e-10
1.46433e-10
1.46429e-10
1.46424e-10
1.46418e-10
1.4641e-10
1.46402e-10
1.46394e-10
1.46384e-10
1.46374e-10
1.71489e-10
1.73134e-10
1.74885e-10
1.76753e-10
1.78747e-10
1.80878e-10
1.83158e-10
1.856e-10
1.88218e-10
1.91027e-10
1.94043e-10
1.97284e-10
2.00768e-10
2.04512e-10
2.08537e-10
2.1286e-10
2.17502e-10
2.22482e-10
2.27818e-10
2.33531e-10
2.39639e-10
2.46161e-10
2.53114e-10
2.60518e-10
2.68391e-10
2.76755e-10
2.85631e-10
2.95044e-10
3.05026e-10
3.15609e-10
3.26835e-10
3.38754e-10
3.51423e-10
3.64913e-10
3.79303e-10
3.94687e-10
4.1117e-10
4.28871e-10
4.47925e-10
4.68479e-10
4.90695e-10
5.14749e-10
5.40825e-10
5.69119e-10
5.9983e-10
6.33156e-10
6.69296e-10
7.08435e-10
7.50745e-10
7.96377e-10
8.45458e-10
8.9808e-10
9.54304e-10
1.01415e-09
1.07762e-09
1.14465e-09
1.21517e-09
1.28909e-09
1.36631e-09
1.44674e-09
1.53032e-09
1.61698e-09
1.70664e-09
1.79925e-09
1.89476e-09
1.99318e-09
2.09453e-09
2.19887e-09
2.30633e-09
2.41705e-09
2.53122e-09
2.64906e-09
2.7708e-09
2.8967e-09
3.02704e-09
3.16209e-09
3.30215e-09
3.44752e-09
3.59849e-09
3.75539e-09
3.91855e-09
4.08831e-09
4.26504e-09
4.4491e-09
4.641e-09
4.8451e-09
5.0583e-09
5.27916e-09
5.5081e-09
5.74518e-09
5.99041e-09
6.244e-09
6.50613e-09
6.77721e-09
7.05757e-09
7.34748e-09
7.64728e-09
7.95734e-09
8.27807e-09
8.60987e-09
8.95319e-09
9.3085e-09
9.67629e-09
1.00571e-08
1.04515e-08
1.086e-08
1.12833e-08
1.17219e-08
1.21767e-08
1.26481e-08
1.3137e-08
1.36441e-08
1.41703e-08
1.47146e-08
1.52738e-08
1.58477e-08
1.64372e-08
1.70447e-08
1.76714e-08
1.83178e-08
1.89845e-08
1.96722e-08
2.03817e-08
2.11135e-08
2.18684e-08
2.26471e-08
2.34505e-08
2.42793e-08
2.51345e-08
2.60168e-08
2.69272e-08
2.78666e-08
2.88359e-08
2.98358e-08
3.08671e-08
3.19306e-08
3.30269e-08
3.41567e-08
3.53204e-08
3.65186e-08
3.77515e-08
3.90195e-08
4.03233e-08
4.16639e-08
4.30432e-08
4.44629e-08
4.59216e-08
4.74179e-08
4.89529e-08
5.05282e-08
5.21448e-08
5.38043e-08
5.55081e-08
5.72575e-08
5.90538e-08
6.08982e-08
6.27917e-08
6.47351e-08
6.67295e-08
6.87754e-08
7.08737e-08
7.30251e-08
7.52302e-08
7.74897e-08
7.98041e-08
8.21739e-08
8.45997e-08
8.7082e-08
8.96212e-08
9.2218e-08
9.48728e-08
9.75864e-08
1.00359e-07
1.03192e-07
1.06087e-07
1.09044e-07
1.12065e-07
1.15148e-07
1.18294e-07
1.21503e-07
1.24775e-07
1.28113e-07
1.31515e-07
1.34985e-07
1.38522e-07
1.42123e-07
1.458e-07
1.49533e-07
1.53363e-07
1.57224e-07
1.61147e-07
1.65512e-07
1.66847e-07
1.4789e-10
1.47898e-10
1.47899e-10
1.47894e-10
1.47883e-10
1.47865e-10
1.47842e-10
1.47814e-10
1.47781e-10
1.47744e-10
1.47704e-10
1.4766e-10
1.47614e-10
2.91115e-10
3.00723e-10
3.10883e-10
3.21691e-10
3.33162e-10
3.45335e-10
3.5826e-10
3.71999e-10
3.86622e-10
4.02208e-10
4.18851e-10
4.36653e-10
4.55728e-10
4.76204e-10
4.98218e-10
5.21919e-10
5.47464e-10
5.7502e-10
6.04758e-10
6.3685e-10
6.71467e-10
7.08774e-10
7.48925e-10
7.92056e-10
8.38286e-10
8.87706e-10
9.4038e-10
9.96341e-10
1.05559e-09
1.1181e-09
1.18382e-09
1.25268e-09
1.32459e-09
1.39946e-09
1.4772e-09
1.5578e-09
1.6412e-09
1.72738e-09
1.81628e-09
1.90792e-09
2.00231e-09
2.0995e-09
2.19958e-09
2.30266e-09
2.40891e-09
2.51849e-09
2.6316e-09
2.74846e-09
2.86931e-09
2.99439e-09
3.12397e-09
3.25832e-09
3.39773e-09
3.5425e-09
3.69295e-09
3.84943e-09
4.01228e-09
4.18182e-09
4.35842e-09
4.54534e-09
4.74062e-09
4.94289e-09
5.15248e-09
5.36954e-09
5.59405e-09
5.82615e-09
6.06608e-09
6.31419e-09
6.57077e-09
6.83607e-09
7.11042e-09
7.39416e-09
7.68766e-09
7.99133e-09
8.30558e-09
8.63085e-09
8.96763e-09
9.31642e-09
9.67776e-09
1.00522e-08
1.04403e-08
1.08427e-08
1.126e-08
1.16927e-08
1.21413e-08
1.26064e-08
1.30854e-08
1.35775e-08
1.4083e-08
1.46033e-08
1.51402e-08
1.5694e-08
1.62654e-08
1.68549e-08
1.7463e-08
1.80905e-08
1.8738e-08
1.9406e-08
2.00954e-08
2.08067e-08
2.15408e-08
2.22983e-08
2.30799e-08
2.38864e-08
2.47183e-08
2.55764e-08
2.64613e-08
2.73736e-08
2.83137e-08
2.92822e-08
3.02794e-08
3.13059e-08
3.2362e-08
3.34486e-08
3.45673e-08
3.57197e-08
3.69069e-08
3.81273e-08
3.93819e-08
4.0672e-08
4.19988e-08
4.33634e-08
4.47671e-08
4.62108e-08
4.76958e-08
4.9223e-08
5.07936e-08
5.24085e-08
5.40689e-08
5.57756e-08
5.75298e-08
5.93322e-08
6.11836e-08
6.30848e-08
6.50364e-08
6.70389e-08
6.90929e-08
7.11989e-08
7.33574e-08
7.5569e-08
7.78342e-08
8.01539e-08
8.25289e-08
8.49604e-08