/*--------------------------------*- C++ -*----------------------------------*\
| =========                 |                                                 |
| \\      /  F ield         | OpenFOAM: The Open Source CFD Toolbox           |
|  \\    /   O peration     | Version:  v1706                                 |
|   \\  /    A nd           | Web:      www.OpenFOAM.com                      |
|    \\/     M anipulation  |                                                 |
\*---------------------------------------------------------------------------*/
FoamFile
{
    version     2.0;
    format      ascii;
    class       volScalarField;
    location    "4e-06";
    object      kappatr;
}
// * * * * * * * * * * * * * * * * * * * * * * * * * * * * * * * * * * * * * //

dimensions      [1 1 -3 -1 0 0 0];


internalField   nonuniform List<scalar> 
30104
(
0.014593
0.014593
0.014593
0.014593
0.014593
0.014593
0.014593
0.014593
0.014593
0.014593
0.014593
0.014593
0.014593
0.014593
0.014593
0.014593
0.014593
0.014593
0.014593
0.014593
0.014593
0.014593
0.014593
0.014593
0.014593
0.014593
0.014593
0.014593
0.014593
0.014593
0.014593
0.014593
0.014593
0.014593
0.014593
0.014593
0.014593
0.014593
0.014593
0.014593
0.014593
0.014593
0.014593
0.014593
0.014593
0.014593
0.014593
0.014593
0.014593
0.014593
0.014593
0.014593
0.014593
0.014593
0.014593
0.014593
0.014593
0.014593
0.014593
0.014593
0.014593
0.014593
0.014593
0.014593
0.014593
0.014593
0.014593
0.014593
0.014593
0.014593
0.014593
0.014593
0.014593
0.014593
0.014593
0.014593
0.014593
0.014593
0.014593
0.014593
0.014593
0.014593
0.014593
0.014593
0.014593
0.014593
0.014593
0.014593
0.014593
0.014593
0.014593
0.014593
0.014593
0.014593
0.014593
0.014593
0.014593
0.014593
0.014593
0.014593
0.014593
0.014593
0.014593
0.014593
0.014593
0.014593
0.014593
0.014593
0.014593
0.014593
0.014593
0.014593
0.014593
0.014593
0.014593
0.014593
0.014593
0.014593
0.014593
0.014593
0.014593
0.014593
0.014593
0.014593
0.014593
0.014593
0.014593
0.014593
0.014593
0.014593
0.014593
0.014593
0.014593
0.014593
0.014593
0.014593
0.014593
0.014593
0.014593
0.014593
0.014593
0.014593
0.014593
0.014593
0.014593
0.014593
0.014593
0.014593
0.014593
0.014593
0.014593
0.014593
0.014593
0.014593
0.014593
0.014593
0.014593
0.014593
0.014593
0.014593
0.014593
0.014593
0.014593
0.014593
0.014593
0.014593
0.014593
0.014593
0.014593
0.014593
0.014593
0.014593
0.014593
0.014593
0.014593
0.014593
0.014593
0.014593
0.014593
0.014593
0.014593
0.014593
0.014593
0.014593
0.014593
0.014593
0.014593
0.014593
0.014593
0.014593
0.014593
0.014593
0.014593
0.014593
0.014593
0.014593
0.014593
0.014593
0.014593
0.014593
0.014593
0.014593
0.014593
0.014593
0.014593
0.014593
0.014593
0.014593
0.014593
0.014593
0.014593
0.014593
0.014593
0.014593
0.014593
0.014593
0.014593
0.014593
0.014593
0.014593
0.014593
0.014593
0.014593
0.014593
0.014593
0.014593
0.014593
0.014593
0.014593
0.014593
0.014593
0.014593
0.014593
0.014593
0.014593
0.014593
0.014593
0.014593
0.014593
0.014593
0.014593
0.014593
0.014593
0.014593
0.014593
0.014593
0.014593
0.014593
0.014593
0.014593
0.014593
0.014593
0.014593
0.014593
0.014593
0.014593
0.014593
0.014593
0.014593
0.014593
0.014593
0.014593
0.014593
0.014593
0.014593
0.014593
0.014593
0.014593
0.014593
0.014593
0.014593
0.014593
0.014593
0.014593
0.014593
0.014593
0.014593
0.014593
0.014593
0.014593
0.014593
0.014593
0.014593
0.014593
0.014593
0.014593
0.014593
0.014593
0.014593
0.014593
0.014593
0.014593
0.014593
0.014593
0.014593
0.014593
0.014593
0.014593
0.014593
0.014593
0.014593
0.014593
0.014593
0.014593
0.014593
0.014593
0.014593
0.014593
0.014593
0.014593
0.014593
0.014593
0.014593
0.014593
0.014593
0.014593
0.014593
0.014593
0.014593
0.014593
0.014593
0.014593
0.014593
0.014593
0.014593
0.014593
0.014593
0.014593
0.014593
0.014593
0.014593
0.014593
0.014593
0.014593
0.014593
0.014593
0.014593
0.014593
0.014593
0.014593
0.014593
0.014593
0.014593
0.014593
0.014593
0.014593
0.014593
0.014593
0.014593
0.014593
0.014593
0.014593
0.014593
0.014593
0.014593
0.014593
0.014593
0.0145931
0.0145931
0.0145931
0.0145931
0.0145931
0.0145931
0.0145931
0.0145931
0.0145931
0.0145931
0.0145931
0.0145931
0.0145931
0.0145931
0.0145931
0.0145931
0.0145931
0.0145931
0.0145931
0.0145931
0.0145931
0.0145931
0.0145931
0.0145931
0.0145931
0.0145931
0.0145931
0.0145931
0.0145932
0.0145932
0.0145932
0.0145932
0.0145932
0.0145932
0.0145932
0.0145932
0.0145932
0.0145932
0.0145932
0.0145932
0.0145933
0.0145933
0.0145933
0.0145933
0.0145933
0.0145933
0.0145933
0.0145933
0.0145934
0.0145934
0.0145934
0.0145934
0.0145934
0.0145935
0.0145935
0.0145935
0.0145935
0.0145935
0.0145936
0.0145936
0.0145936
0.0145936
0.0145936
0.014593
0.014593
0.014593
0.014593
0.014593
0.014593
0.014593
0.014593
0.014593
0.014593
0.014593
0.014593
0.014593
0.014593
0.014593
0.014593
0.014593
0.014593
0.014593
0.014593
0.014593
0.014593
0.014593
0.014593
0.014593
0.014593
0.014593
0.014593
0.014593
0.014593
0.014593
0.014593
0.014593
0.014593
0.014593
0.014593
0.014593
0.014593
0.014593
0.014593
0.014593
0.014593
0.014593
0.014593
0.014593
0.014593
0.014593
0.014593
0.014593
0.014593
0.014593
0.014593
0.014593
0.014593
0.014593
0.014593
0.014593
0.014593
0.014593
0.014593
0.014593
0.014593
0.014593
0.014593
0.014593
0.014593
0.014593
0.014593
0.014593
0.014593
0.014593
0.014593
0.014593
0.014593
0.014593
0.014593
0.014593
0.014593
0.014593
0.014593
0.014593
0.014593
0.014593
0.014593
0.014593
0.014593
0.014593
0.014593
0.014593
0.014593
0.014593
0.014593
0.014593
0.014593
0.014593
0.014593
0.014593
0.0145931
0.0145931
0.0145931
0.0145931
0.0145931
0.0145931
0.0145931
0.0145931
0.0145931
0.0145931
0.0145931
0.0145931
0.0145931
0.0145931
0.0145931
0.0145931
0.0145931
0.0145931
0.0145931
0.0145931
0.0145931
0.0145931
0.0145931
0.0145931
0.0145931
0.0145931
0.0145932
0.0145932
0.0145932
0.0145932
0.0145932
0.0145932
0.0145932
0.0145932
0.0145932
0.0145932
0.0145932
0.0145932
0.0145933
0.0145933
0.0145933
0.0145933
0.0145933
0.0145933
0.0145933
0.0145934
0.0145934
0.0145934
0.0145934
0.0145934
0.0145934
0.0145935
0.0145935
0.0145935
0.0145935
0.0145936
0.0145936
0.0145936
0.0145936
0.0145937
0.0145937
0.0145937
0.0145938
0.0145938
0.0145938
0.0145939
0.0145939
0.014594
0.014594
0.0145941
0.0145941
0.0145942
0.0145942
0.0145943
0.0145943
0.0145944
0.0145945
0.0145945
0.0145946
0.0145947
0.0145947
0.0145948
0.0145949
0.014595
0.0145951
0.0145952
0.0145953
0.0145954
0.0145955
0.0145956
0.0145957
0.0145958
0.0145959
0.0145961
0.0145962
0.0145963
0.0145965
0.0145967
0.0145968
0.014597
0.0145972
0.0145974
0.0145976
0.0145978
0.0145981
0.0145983
0.0145985
0.0145988
0.0145991
0.0145993
0.0145997
0.0145994
0.014593
0.014593
0.014593
0.014593
0.014593
0.014593
0.014593
0.014593
0.014593
0.014593
0.014593
0.014593
0.014593
0.014593
0.014593
0.014593
0.014593
0.014593
0.014593
0.014593
0.014593
0.014593
0.014593
0.014593
0.014593
0.014593
0.014593
0.014593
0.014593
0.014593
0.014593
0.014593
0.014593
0.014593
0.014593
0.014593
0.014593
0.014593
0.014593
0.014593
0.014593
0.014593
0.014593
0.014593
0.014593
0.014593
0.014593
0.014593
0.014593
0.014593
0.014593
0.014593
0.014593
0.014593
0.0145931
0.0145931
0.0145931
0.0145931
0.0145931
0.0145931
0.0145931
0.0145931
0.0145931
0.0145931
0.0145931
0.0145931
0.0145931
0.0145931
0.0145931
0.0145931
0.0145931
0.0145931
0.0145931
0.0145931
0.0145931
0.0145931
0.0145931
0.0145931
0.0145931
0.0145932
0.0145932
0.0145932
0.0145932
0.0145932
0.0145932
0.0145932
0.0145932
0.0145932
0.0145932
0.0145932
0.0145933
0.0145933
0.0145933
0.0145933
0.0145933
0.0145933
0.0145933
0.0145933
0.0145934
0.0145934
0.0145934
0.0145934
0.0145934
0.0145935
0.0145935
0.0145935
0.0145935
0.0145936
0.0145936
0.0145936
0.0145936
0.0145937
0.0145937
0.0145937
0.0145938
0.0145938
0.0145938
0.0145939
0.0145939
0.014594
0.014594
0.0145941
0.0145941
0.0145942
0.0145942
0.0145943
0.0145944
0.0145944
0.0145945
0.0145946
0.0145947
0.0145947
0.0145948
0.0145949
0.014595
0.0145951
0.0145952
0.0145953
0.0145955
0.0145956
0.0145957
0.0145958
0.014596
0.0145961
0.0145962
0.0145964
0.0145966
0.0145967
0.0145969
0.0145971
0.0145973
0.0145975
0.0145977
0.0145979
0.0145982
0.0145984
0.0145987
0.014599
0.0145993
0.0145996
0.0145999
0.0146002
0.0146006
0.014601
0.0146014
0.0146018
0.0146022
0.0146027
0.0146032
0.0146037
0.0146042
0.0146048
0.0146053
0.0146059
0.0146066
0.0146072
0.0146079
0.0146086
0.0146093
0.0146101
0.0146108
0.0146117
0.0146125
0.0146134
0.0146144
0.0146153
0.0146164
0.0146174
0.0146186
0.0146198
0.014621
0.0146224
0.0146238
0.0146253
0.0146268
0.0146285
0.0146303
0.0146322
0.0146341
0.0146362
0.0146385
0.0146409
0.0146434
0.014646
0.0146488
0.0146518
0.0146549
0.0146592
0.0146575
0.014593
0.014593
0.014593
0.014593
0.014593
0.014593
0.014593
0.014593
0.014593
0.014593
0.014593
0.014593
0.014593
0.014593
0.014593
0.0145931
0.0145931
0.0145931
0.0145931
0.0145931
0.0145931
0.0145931
0.0145931
0.0145931
0.0145931
0.0145931
0.0145931
0.0145931
0.0145931
0.0145931
0.0145931
0.0145931
0.0145931
0.0145931
0.0145931
0.0145931
0.0145931
0.0145931
0.0145932
0.0145932
0.0145932
0.0145932
0.0145932
0.0145932
0.0145932
0.0145932
0.0145932
0.0145932
0.0145932
0.0145933
0.0145933
0.0145933
0.0145933
0.0145933
0.0145933
0.0145933
0.0145934
0.0145934
0.0145934
0.0145934
0.0145934
0.0145935
0.0145935
0.0145935
0.0145935
0.0145935
0.0145936
0.0145936
0.0145936
0.0145937
0.0145937
0.0145937
0.0145938
0.0145938
0.0145938
0.0145939
0.0145939
0.014594
0.014594
0.0145941
0.0145941
0.0145942
0.0145942
0.0145943
0.0145944
0.0145944
0.0145945
0.0145946
0.0145947
0.0145948
0.0145948
0.0145949
0.014595
0.0145951
0.0145953
0.0145954
0.0145955
0.0145956
0.0145958
0.0145959
0.0145961
0.0145962
0.0145964
0.0145966
0.0145967
0.0145969
0.0145971
0.0145973
0.0145976
0.0145978
0.014598
0.0145983
0.0145985
0.0145988
0.0145991
0.0145994
0.0145997
0.0146001
0.0146004
0.0146008
0.0146012
0.0146016
0.014602
0.0146025
0.014603
0.0146035
0.014604
0.0146046
0.0146052
0.0146058
0.0146065
0.0146072
0.014608
0.0146088
0.0146096
0.0146104
0.0146113
0.0146123
0.0146133
0.0146143
0.0146154
0.0146165
0.0146177
0.014619
0.0146203
0.0146216
0.014623
0.0146245
0.0146261
0.0146277
0.0146294
0.0146312
0.0146331
0.0146351
0.0146372
0.0146394
0.0146418
0.0146443
0.014647
0.0146498
0.0146528
0.014656
0.0146594
0.014663
0.0146668
0.0146708
0.0146751
0.0146797
0.0146845
0.0146896
0.014695
0.0147007
0.0147067
0.014713
0.0147196
0.0147266
0.0147338
0.0147414
0.0147493
0.0147575
0.014766
0.0147749
0.014784
0.0147934
0.0148031
0.0148131
0.0148235
0.0148341
0.0148451
0.0148565
0.0148683
0.0148805
0.0148932
0.0149065
0.0149204
0.014935
0.0149504
0.0149667
0.0149839
0.0150022
0.0150217
0.0150424
0.0150645
0.0150881
0.0151135
0.01514
0.0151778
0.0151724
0.014593
0.014593
0.014593
0.014593
0.014593
0.014593
0.014593
0.014593
0.014593
0.014593
0.014593
0.014593
0.014593
0.014593
0.014593
0.014593
0.0145933
0.0145933
0.0145933
0.0145934
0.0145934
0.0145934
0.0145934
0.0145934
0.0145934
0.0145935
0.0145935
0.0145935
0.0145935
0.0145936
0.0145936
0.0145936
0.0145937
0.0145937
0.0145937
0.0145938
0.0145938
0.0145938
0.0145939
0.0145939
0.014594
0.014594
0.0145941
0.0145941
0.0145942
0.0145943
0.0145943
0.0145944
0.0145945
0.0145945
0.0145946
0.0145947
0.0145948
0.0145949
0.014595
0.0145951
0.0145952
0.0145953
0.0145954
0.0145955
0.0145956
0.0145958
0.0145959
0.0145961
0.0145962
0.0145964
0.0145966
0.0145968
0.014597
0.0145972
0.0145974
0.0145976
0.0145979
0.0145981
0.0145984
0.0145987
0.014599
0.0145993
0.0145997
0.0146
0.0146004
0.0146008
0.0146012
0.0146016
0.0146021
0.0146025
0.014603
0.0146035
0.0146041
0.0146047
0.0146053
0.0146059
0.0146066
0.0146073
0.014608
0.0146088
0.0146097
0.0146106
0.0146115
0.0146125
0.0146135
0.0146146
0.0146158
0.0146171
0.0146184
0.0146197
0.0146212
0.0146227
0.0146243
0.0146259
0.0146277
0.0146295
0.0146314
0.0146334
0.0146356
0.0146378
0.0146401
0.0146425
0.0146451
0.0146478
0.0146506
0.0146536
0.0146567
0.0146601
0.0146636
0.0146673
0.0146713
0.0146755
0.01468
0.0146847
0.0146897
0.0146951
0.0147008
0.0147069
0.0147134
0.0147202
0.0147275
0.0147353
0.0147435
0.0147521
0.0147613
0.0147709
0.0147811
0.0147917
0.0148029
0.0148146
0.0148268
0.0148395
0.0148528
0.0148666
0.0148809
0.0148957
0.0149111
0.014927
0.0149435
0.0149607
0.0149785
0.0149971
0.0150165
0.0150369
0.0150582
0.0150806
0.0151043
0.0151294
0.015156
0.0151842
0.0152143
0.0152464
0.0152808
0.0153175
0.0153567
0.0153988
0.0154438
0.0154918
0.0155432
0.0155979
0.0156562
0.0157181
0.0157836
0.0158529
0.0159258
0.0160023
0.0160823
0.0161657
0.0162521
0.0163415
0.0164335
0.0165278
0.0166242
0.0167223
0.016822
0.016923
0.0170252
0.0171284
0.0172326
0.0173379
0.0174444
0.0175524
0.017662
0.0177741
0.0178885
0.0180067
0.0181282
0.0182557
0.0183872
0.0185277
0.0186718
0.018853
0.0188794
0.0145931
0.0145931
0.0145931
0.0145931
0.0145931
0.0145931
0.0145931
0.0145931
0.0145931
0.0145931
0.0145931
0.0145931
0.0145931
0.0145948
0.0145948
0.0145949
0.014595
0.0145951
0.0145953
0.0145954
0.0145955
0.0145956
0.0145958
0.0145959
0.0145961
0.0145962
0.0145964
0.0145966
0.0145967
0.0145969
0.0145971
0.0145974
0.0145976
0.0145978
0.0145981
0.0145984
0.0145987
0.014599
0.0145993
0.0145996
0.0146
0.0146004
0.0146007
0.0146012
0.0146016
0.0146021
0.0146026
0.0146031
0.0146036
0.0146042
0.0146048
0.0146054
0.0146061
0.0146068
0.0146076
0.0146083
0.0146091
0.01461
0.0146109
0.0146119
0.0146129
0.0146139
0.0146151
0.0146163
0.0146175
0.0146189
0.0146203
0.0146218
0.0146233
0.014625
0.0146268
0.0146287
0.0146306
0.0146327
0.0146349
0.0146372
0.0146396
0.0146422
0.0146449
0.0146477
0.0146507
0.0146539
0.0146572
0.0146606
0.0146643
0.0146681
0.0146721
0.0146763
0.0146808
0.0146855
0.0146905
0.0146958
0.0147014
0.0147073
0.0147136
0.0147203
0.0147274
0.014735
0.0147431
0.0147516
0.0147608
0.0147705
0.0147808
0.0147917
0.0148033
0.0148157
0.0148287
0.0148424
0.014857
0.0148722
0.0148883
0.0149051
0.0149228
0.0149412
0.0149605
0.0149805
0.0150014
0.0150232
0.0150458
0.0150693
0.0150938
0.0151194
0.015146
0.0151739
0.0152032
0.0152339
0.0152663
0.0153005
0.0153368
0.0153753
0.0154163
0.01546
0.0155067
0.0155565
0.0156099
0.0156669
0.0157279
0.015793
0.0158624
0.0159364
0.0160149
0.0160982
0.0161863
0.0162791
0.0163767
0.0164787
0.0165852
0.0166957
0.0168101
0.016928
0.0170489
0.0171727
0.0172989
0.0174273
0.0175576
0.0176897
0.0178236
0.0179593
0.0180971
0.0182371
0.0183799
0.018526
0.0186763
0.0188315
0.0189929
0.0191614
0.0193384
0.0195254
0.0197239
0.0199354
0.0201618
0.0204047
0.020666
0.0209476
0.0212512
0.0215785
0.021931
0.0223099
0.0227161
0.0231497
0.0236104
0.0240971
0.0246083
0.0251413
0.0256932
0.0262603
0.0268387
0.0274242
0.0280132
0.0286012
0.0291851
0.0297604
0.0303252
0.0308747
0.0314093
0.0319231
0.03242
0.032892
0.0333475
0.0337746
0.0341892
0.034571
0.0349479
0.0352821
0.035671
0.0358486
0.0145934
0.0145934
0.0145934
0.0145934
0.0145934
0.0145934
0.0145934
0.0145934
0.0145934
0.0145934
0.0145934
0.0145933
0.0145933
0.014603
0.0146036
0.0146042
0.0146048
0.0146054
0.0146061
0.0146068
0.0146076
0.0146084
0.0146092
0.0146101
0.014611
0.014612
0.0146131
0.0146142
0.0146153
0.0146165
0.0146178
0.0146192
0.0146206
0.0146221
0.0146237
0.0146254
0.0146271
0.014629
0.014631
0.0146331
0.0146353
0.0146377
0.0146402
0.0146428
0.0146456
0.0146486
0.0146517
0.014655
0.0146585
0.0146622
0.0146661
0.0146701
0.0146745
0.014679
0.0146838
0.0146888
0.0146941
0.0146997
0.0147055
0.0147117
0.0147183
0.0147252
0.0147325
0.0147402
0.0147484
0.0147571
0.0147663
0.0147761
0.0147865
0.0147976
0.0148094
0.0148219
0.0148352
0.0148494
0.0148645
0.0148805
0.0148974
0.0149154
0.0149344
0.0149544
0.0149756
0.0149979
0.0150213
0.0150459
0.0150717
0.0150987
0.0151269
0.0151563
0.015187
0.0152191
0.0152526
0.0152875
0.0153241
0.0153624
0.0154025
0.0154447
0.0154892
0.0155362
0.015586
0.0156387
0.0156948
0.0157545
0.0158181
0.0158859
0.0159582
0.0160353
0.0161176
0.0162051
0.0162981
0.0163968
0.0165013
0.0166116
0.0167277
0.0168494
0.0169766
0.017109
0.0172463
0.0173882
0.0175343
0.0176841
0.0178373
0.0179936
0.0181526
0.0183143
0.0184786
0.0186457
0.0188158
0.0189894
0.0191671
0.0193497
0.0195382
0.0197336
0.0199373
0.0201508
0.0203757
0.0206136
0.0208663
0.0211358
0.0214239
0.0217325
0.0220635
0.0224186
0.0227993
0.0232068
0.0236418
0.0241044
0.0245942
0.0251099
0.0256497
0.0262109
0.0267901
0.0273832
0.0279858
0.0285932
0.0292006
0.0298036
0.0303986
0.0309816
0.0315494
0.0320992
0.0326284
0.0331355
0.0336194
0.0340795
0.0345158
0.0349288
0.0353194
0.0356886
0.0360377
0.0363682
0.0366818
0.0369802
0.037265
0.037538
0.0378007
0.0380548
0.0383015
0.0385422
0.0387779
0.0390093
0.0392372
0.0394619
0.0396839
0.0399034
0.0401208
0.0403365
0.040553
0.040791
0.041037
0.0412774
0.0415137
0.0417452
0.0419698
0.0421879
0.0424002
0.0426075
0.0428106
0.0430104
0.0432088
0.0434061
0.0436033
0.0438005
0.0440005
0.0441939
0.0444284
0.0445448
0.0145947
0.0145947
0.0145947
0.0145947
0.0145947
0.0145947
0.0145947
0.0145947
0.0145947
0.0145947
0.0145946
0.0145946
0.0145946
0.0145945
0.0146499
0.0146531
0.0146565
0.01466
0.0146638
0.0146678
0.0146721
0.0146765
0.0146813
0.0146863
0.0146916
0.0146971
0.014703
0.0147093
0.0147158
0.0147228
0.0147301
0.0147378
0.0147459
0.0147544
0.0147635
0.0147731
0.0147832
0.0147939
0.0148052
0.0148172
0.0148299
0.0148434
0.0148577
0.014873
0.0148892
0.0149064
0.0149247
0.0149441
0.0149647
0.0149866
0.0150099
0.0150345
0.0150605
0.015088
0.0151171
0.0151477
0.0151799
0.0152137
0.0152492
0.0152864
0.0153253
0.0153661
0.0154087
0.0154533
0.0154999
0.0155488
0.0156
0.0156537
0.0157102
0.0157698
0.0158326
0.015899
0.0159693
0.0160439
0.0161231
0.0162073
0.0162967
0.0163918
0.0164929
0.0166002
0.016714
0.0168344
0.0169615
0.0170954
0.0172361
0.0173834
0.017537
0.0176969
0.0178625
0.0180335
0.0182095
0.01839
0.0185748
0.0187634
0.0189557
0.0191517
0.0193513
0.0195549
0.019763
0.0199763
0.0201956
0.020422
0.0206567
0.0209012
0.021157
0.0214258
0.0217095
0.0220098
0.0223288
0.0226681
0.0230297
0.0234149
0.0238251
0.0242612
0.0247235
0.0252119
0.0257255
0.0262628
0.0268215
0.0273985
0.0279902
0.0285924
0.0292005
0.0298098
0.0304156
0.0310132
0.0315988
0.0321693
0.032722
0.0332546
0.0337653
0.0342528
0.0347165
0.0351562
0.0355723
0.0359653
0.0363364
0.0366871
0.0370189
0.0373335
0.0376327
0.0379182
0.0381918
0.038455
0.0387091
0.0389552
0.0391944
0.0394273
0.0396545
0.0398763
0.0400929
0.0403047
0.0405118
0.0407148
0.0409142
0.0411124
0.0413303
0.0415518
0.0417674
0.0419787
0.0421844
0.0423835
0.0425772
0.0427663
0.0429518
0.0431353
0.0433183
0.0435015
0.0436854
0.0438706
0.0440577
0.044247
0.0444387
0.0446329
0.0448296
0.0450286
0.0452299
0.0454333
0.0456386
0.0458456
0.0460542
0.0462641
0.0464752
0.0466875
0.0469007
0.0471147
0.0473293
0.0475429
0.0477369
0.0479137
0.048084
0.0482474
0.0484067
0.0485695
0.0487363
0.0489073
0.0490827
0.0492624
0.0494468
0.0496355
0.0498291
0.0500262
0.0502286
0.0504344
0.0506385
0.0508926
0.0509991
0.0146007
0.0146008
0.0146009
0.0146009
0.0146009
0.0146009
0.0146008
0.0146007
0.0146006
0.0146005
0.0146004
0.0146002
0.0146001
0.0145999
0.0149065
0.0149243
0.0149433
0.0149634
0.0149847
0.0150074
0.0150315
0.015057
0.0150841
0.0151129
0.0151434
0.0151757
0.0152099
0.015246
0.0152841
0.0153243
0.0153666
0.0154111
0.0154578
0.0155068
0.0155582
0.0156121
0.0156685
0.0157276
0.0157895
0.0158544
0.0159225
0.015994
0.0160692
0.0161484
0.0162319
0.01632
0.0164132
0.0165117
0.0166161
0.0167267
0.0168438
0.0169677
0.0170988
0.0172372
0.0173832
0.0175368
0.017698
0.0178668
0.018043
0.0182264
0.0184166
0.0186132
0.018816
0.0190244
0.0192381
0.0194567
0.0196801
0.0199082
0.0201411
0.0203789
0.0206222
0.0208717
0.0211283
0.0213931
0.0216673
0.0219525
0.0222502
0.0225621
0.0228899
0.0232353
0.0236
0.0239856
0.0243934
0.0248245
0.0252795
0.0257585
0.0262613
0.0267866
0.027333
0.0278979
0.0284782
0.0290705
0.0296705
0.0302739
0.030876
0.0314723
0.0320585
0.0326306
0.0331853
0.0337202
0.034234
0.0347253
0.0351931
0.0356373
0.0360579
0.0364555
0.0368309
0.0371855
0.0375207
0.0378382
0.0381395
0.0384264
0.0387004
0.0389627
0.0392147
0.0394571
0.0396909
0.0399166
0.0401345
0.040345
0.0405484
0.040745
0.0409353
0.04112
0.0412999
0.0414761
0.0416577
0.0418554
0.0420482
0.042237
0.0424225
0.0426031
0.0427794
0.0429526
0.0431233
0.0432934
0.0434642
0.0436359
0.0438091
0.0439842
0.0441614
0.0443409
0.0445226
0.0447066
0.0448926
0.0450804
0.04527
0.045461
0.0456533
0.0458468
0.0460411
0.0462363
0.0464323
0.046629
0.0468263
0.0470229
0.0471988
0.0473601
0.0475156
0.0476648
0.0478133
0.0479662
0.0481235
0.0482853
0.0484518
0.0486229
0.0487988
0.0489792
0.0491639
0.0493527
0.0495452
0.0497413
0.0499406
0.0501427
0.0503472
0.0505537
0.050762
0.0509715
0.0511819
0.0513928
0.0516038
0.0518144
0.0520242
0.0522326
0.0524392
0.0526433
0.0528444
0.0530419
0.0532386
0.0534409
0.0536507
0.0538689
0.0540943
0.0543222
0.0545525
0.0547853
0.0550207
0.0552583
0.0554985
0.05574
0.0559846
0.0562288
0.0564776
0.0567238
0.0569696
0.0572825
0.057268
0.014628
0.0146283
0.0146284
0.0146284
0.0146284
0.0146282
0.0146279
0.0146275
0.014627
0.0146264
0.0146257
0.014625
0.0146242
0.0146233
0.0162128
0.0162998
0.016391
0.0164868
0.0165876
0.0166937
0.0168054
0.0169232
0.0170474
0.0171784
0.0173167
0.0174625
0.0176161
0.0177777
0.0179476
0.0181258
0.0183123
0.018507
0.0187099
0.0189205
0.0191387
0.0193641
0.0195962
0.0198348
0.0200796
0.0203301
0.0205863
0.0208481
0.0211157
0.0213894
0.0216696
0.0219572
0.0222532
0.0225585
0.0228746
0.0232028
0.0235447
0.0239017
0.0242754
0.0246671
0.0250781
0.0255094
0.0259617
0.0264353
0.0269299
0.0274448
0.0279788
0.0285298
0.0290955
0.0296726
0.0302577
0.0308468
0.0314358
0.0320205
0.0325967
0.0331606
0.0337087
0.0342381
0.0347465
0.0352326
0.0356963
0.036137
0.0365549
0.0369503
0.037324
0.0376771
0.0380108
0.0383264
0.0386254
0.0389093
0.0391793
0.0394367
0.0396825
0.0399175
0.0401423
0.0403574
0.0405633
0.0407604
0.040949
0.0411297
0.0413032
0.0414704
0.0416325
0.0417906
0.0419469
0.0421189
0.0422925
0.0424624
0.0426305
0.042796
0.0429583
0.0431183
0.0432768
0.0434354
0.0435952
0.0437563
0.0439188
0.0440833
0.0442496
0.0444177
0.0445876
0.044759
0.0449319
0.0451059
0.0452809
0.0454568
0.0456334
0.0458108
0.0459889
0.0461675
0.0463467
0.0465266
0.0466997
0.0468513
0.0469968
0.0471377
0.0472752
0.0474162
0.0475618
0.047712
0.0478669
0.0480264
0.0481904
0.0483587
0.0485309
0.0487069
0.0488864
0.0490689
0.0492542
0.0494418
0.0496315
0.0498229
0.0500156
0.0502093
0.0504034
0.0505976
0.0507914
0.0509844
0.051176
0.0513657
0.0515527
0.0517369
0.0519212
0.0521114
0.0523093
0.052516
0.0527284
0.0529438
0.0531621
0.0533834
0.0536076
0.0538345
0.0540639
0.0542956
0.0545294
0.0547651
0.0550022
0.0552406
0.0554801
0.0557203
0.0559611
0.0562023
0.0564436
0.0566851
0.0569265
0.0571679
0.0574094
0.057651
0.057893
0.0581357
0.0583795
0.058625
0.0588727
0.0591237
0.0593784
0.0596369
0.0598982
0.0601614
0.0604252
0.0606893
0.0609536
0.061218
0.0614826
0.061747
0.0620115
0.0622755
0.0625403
0.0628034
0.0630701
0.0633305
0.0635926
0.0638523
0.063708
0.0147483
0.0147491
0.0147494
0.0147492
0.0147485
0.0147473
0.0147456
0.0147435
0.014741
0.0147382
0.014735
0.0147316
0.014728
0.021218
0.0215035
0.0217954
0.0220938
0.0223991
0.0227116
0.0230322
0.0233616
0.0237009
0.0240513
0.0244138
0.0247898
0.0251805
0.025587
0.0260103
0.0264512
0.02691
0.0273869
0.0278816
0.0283933
0.0289207
0.029462
0.030015
0.0305768
0.0311443
0.031714
0.0322822
0.0328452
0.0333993
0.0339411
0.0344675
0.0349758
0.0354641
0.0359308
0.036375
0.0367973
0.0371979
0.0375772
0.0379359
0.0382749
0.0385954
0.0388983
0.0391849
0.0394562
0.0397135
0.0399577
0.0401895
0.0404097
0.0406188
0.0408174
0.041006
0.0411851
0.0413553
0.0415174
0.0416724
0.0418217
0.0419664
0.042108
0.0422481
0.0424012
0.0425573
0.042711
0.0428637
0.0430155
0.0431653
0.0433136
0.0434614
0.0436098
0.0437595
0.0439105
0.0440628
0.0442167
0.0443719
0.0445286
0.0446864
0.0448452
0.0450049
0.0451654
0.0453267
0.0454887
0.0456513
0.0458145
0.0459783
0.0461427
0.0463069
0.0464542
0.0465917
0.0467256
0.0468557
0.0469863
0.0471215
0.0472611
0.0474051
0.0475535
0.0477061
0.0478626
0.0480227
0.0481861
0.0483525
0.0485217
0.0486932
0.0488667
0.0490419
0.0492183
0.0493957
0.0495735
0.0497515
0.049929
0.0501057
0.050281
0.0504542
0.050625
0.050794
0.050966
0.0511445
0.0513306
0.0515242
0.0517216
0.0519221
0.0521258
0.0523327
0.0525425
0.0527551
0.0529703
0.0531878
0.0534073
0.0536288
0.0538518
0.0540763
0.0543021
0.0545289
0.0547568
0.0549855
0.055215
0.0554455
0.0556768
0.0559093
0.0561432
0.0563789
0.0566169
0.0568579
0.0571027
0.0573518
0.057605
0.0578615
0.05812
0.0583794
0.0586394
0.0588998
0.0591605
0.0594212
0.059682
0.0599425
0.0602028
0.0604627
0.060722
0.0609808
0.0612388
0.0614963
0.0617531
0.0620093
0.0622651
0.0625206
0.0627759
0.0630312
0.0632866
0.0635425
0.0637989
0.064056
0.064314
0.0645727
0.0648322
0.0650923
0.0653527
0.0656128
0.0658724
0.0661311
0.0663887
0.0666453
0.0669008
0.0671553
0.0674085
0.0676607
0.0679114
0.0681613
0.0684096
0.0686575
0.0689043
0.0691505
0.0693909
0.0696197
0.0697492
0.0694891
0.0152542
0.0152558
0.0152555
0.015253
0.0152485
0.015242
0.0152337
0.0152238
0.0152125
0.0151999
0.0151861
0.0151712
0.0151556
0.0335176
0.0340465
0.034564
0.0350674
0.0355543
0.0360228
0.0364715
0.0368994
0.037306
0.0376918
0.0380574
0.0384036
0.0387309
0.0390401
0.0393322
0.039608
0.0398685
0.0401145
0.0403469
0.0405664
0.0407737
0.0409693
0.0411539
0.0413281
0.0414925
0.0416479
0.0417953
0.0419359
0.042071
0.0422022
0.0423307
0.0424579
0.0425908
0.0427329
0.0428735
0.0430132
0.0431531
0.0432924
0.0434307
0.0435684
0.0437066
0.0438457
0.043986
0.0441273
0.0442698
0.0444133
0.0445578
0.0447032
0.0448495
0.0449965
0.0451443
0.0452928
0.045442
0.0455919
0.0457422
0.0458931
0.046044
0.046182
0.0463108
0.0464371
0.0465605
0.0466833
0.04681
0.0469411
0.0470762
0.0472154
0.0473584
0.0475048
0.0476545
0.0478072
0.0479626
0.0481203
0.04828
0.0484414
0.0486042
0.0487679
0.0489321
0.0490965
0.0492604
0.0494234
0.049585
0.0497446
0.0499025
0.0500603
0.0502228
0.0503917
0.0505678
0.0507492
0.0509337
0.0511214
0.051312
0.0515055
0.0517017
0.0519004
0.0521013
0.0523041
0.0525088
0.0527151
0.0529228
0.0531317
0.0533417
0.0535528
0.0537649
0.0539781
0.0541925
0.0544083
0.054626
0.0548459
0.0550686
0.0552951
0.0555259
0.0557615
0.0560013
0.0562445
0.0564898
0.0567367
0.056985
0.0572347
0.0574856
0.0577374
0.0579902
0.0582438
0.0584979
0.0587525
0.0590076
0.059263
0.0595187
0.0597748
0.0600313
0.0602883
0.0605457
0.0608038
0.0610625
0.0613219
0.0615822
0.0618432
0.0621051
0.0623676
0.0626306
0.0628936
0.0631562
0.0634177
0.0636779
0.0639366
0.0641937
0.0644491
0.0647028
0.0649548
0.0652051
0.0654538
0.0657009
0.0659466
0.0661909
0.0664339
0.0666757
0.0669163
0.067156
0.0673947
0.0676325
0.0678695
0.0681056
0.0683409
0.0685753
0.0688087
0.069041
0.0692719
0.0695013
0.0697289
0.0699545
0.0701778
0.0703986
0.0706166
0.0708316
0.0710435
0.0712523
0.0714579
0.0716603
0.0718593
0.0720544
0.0722456
0.0724322
0.0726142
0.0727908
0.0729622
0.0731279
0.0732886
0.0734401
0.0735789
0.0736488
0.0736041
0.0732259
0.0171361
0.01713
0.0171162
0.0170952
0.0170677
0.0170345
0.0169961
0.0169531
0.0169059
0.0168548
0.0168005
0.0167432
0.0417371
0.0418799
0.042015
0.0421437
0.0422672
0.0423871
0.0425048
0.0426216
0.0427387
0.0428667
0.0429962
0.0431246
0.0432528
0.0433818
0.0435106
0.0436388
0.043767
0.0438959
0.0440255
0.044156
0.0442873
0.0444196
0.0445527
0.0446867
0.0448215
0.0449571
0.0450936
0.0452307
0.0453686
0.0455069
0.0456455
0.0457843
0.0459185
0.0460408
0.0461606
0.0462786
0.0463947
0.0465121
0.0466335
0.0467588
0.0468879
0.0470204
0.0471563
0.0472952
0.0474369
0.0475811
0.0477275
0.0478758
0.0480256
0.0481766
0.0483284
0.0484805
0.0486324
0.0487837
0.0489338
0.0490827
0.0492301
0.049377
0.0495278
0.0496839
0.0498463
0.0500144
0.0501858
0.0503602
0.0505375
0.0507176
0.0509002
0.0510852
0.0512722
0.0514612
0.0516518
0.0518439
0.0520373
0.0522319
0.0524275
0.0526241
0.0528219
0.0530209
0.0532213
0.0534237
0.0536285
0.0538364
0.0540482
0.0542645
0.0544853
0.05471
0.0549377
0.0551674
0.0553989
0.0556321
0.0558668
0.056103
0.0563405
0.0565793
0.0568192
0.0570602
0.0573023
0.0575455
0.0577897
0.0580352
0.0582819
0.0585299
0.0587794
0.0590305
0.0592833
0.0595378
0.0597942
0.0600523
0.060312
0.060573
0.0608349
0.0610972
0.0613594
0.0616211
0.0618823
0.0621429
0.0624027
0.0626617
0.0629198
0.0631769
0.0634329
0.0636879
0.0639418
0.0641946
0.0644462
0.0646968
0.0649463
0.0651948
0.0654422
0.0656885
0.0659336
0.0661775
0.0664201
0.0666613
0.0669009
0.0671387
0.0673746
0.0676084
0.0678398
0.0680688
0.0682952
0.0685191
0.0687404
0.0689592
0.0691755
0.0693893
0.0696006
0.0698096
0.0700162
0.0702206
0.0704226
0.0706223
0.0708197
0.0710147
0.0712072
0.0713972
0.0715845
0.0717691
0.0719509
0.0721297
0.0723051
0.0724767
0.0726441
0.072807
0.0729647
0.0731167
0.0732625
0.0734015
0.073533
0.0736564
0.0737711
0.0738761
0.0739706
0.0740537
0.0741253
0.0741888
0.074245
0.0742937
0.0743351
0.0743688
0.0743948
0.0744137
0.0744244
0.0744299
0.0744275
0.0744226
0.0744024
0.0743602
0.0742397
0.0740268
0.0736226
0.0223082
0.022279
0.0222316
0.022167
0.0220881
0.0219973
0.0218956
0.0217837
0.0216623
0.0215318
0.0446684
0.044793
0.0449185
0.0450449
0.0451719
0.0452996
0.0454273
0.045555
0.045683
0.045801
0.0459143
0.0460267
0.046138
0.0462482
0.0463602
0.046476
0.0465953
0.0467179
0.0468437
0.0469724
0.0471037
0.0472375
0.0473734
0.0475111
0.0476502
0.0477904
0.0479312
0.0480721
0.0482128
0.0483527
0.0484918
0.04863
0.0487669
0.0489057
0.0490487
0.0491967
0.0493505
0.0495088
0.0496701
0.0498342
0.0500011
0.0501705
0.0503422
0.050516
0.0506917
0.050869
0.0510478
0.0512279
0.0514091
0.0515913
0.0517747
0.0519592
0.0521452
0.0523328
0.0525227
0.0527154
0.0529116
0.0531121
0.0533169
0.0535255
0.0537374
0.0539515
0.0541675
0.0543853
0.0546046
0.0548255
0.0550479
0.0552716
0.0554966
0.0557228
0.0559504
0.0561793
0.0564096
0.0566414
0.0568748
0.0571101
0.0573474
0.0575868
0.0578285