/*--------------------------------*- C++ -*----------------------------------*\
| =========                 |                                                 |
| \\      /  F ield         | OpenFOAM: The Open Source CFD Toolbox           |
|  \\    /   O peration     | Version:  v1706                                 |
|   \\  /    A nd           | Web:      www.OpenFOAM.com                      |
|    \\/     M anipulation  |                                                 |
\*---------------------------------------------------------------------------*/
FoamFile
{
    version     2.0;
    format      ascii;
    class       volScalarField;
    location    "4e-06";
    object      Mach;
}
// * * * * * * * * * * * * * * * * * * * * * * * * * * * * * * * * * * * * * //

dimensions      [0 0 0 0 0 0 0];


internalField   nonuniform List<scalar> 
30104
(
11.2859
11.2859
11.2859
11.2859
11.2859
11.2859
11.2859
11.2859
11.2859
11.2859
11.2859
11.2859
11.2859
11.2859
11.2859
11.2859
11.2859
11.2859
11.2859
11.2859
11.2859
11.2859
11.2859
11.2859
11.2859
11.2859
11.2859
11.2859
11.2859
11.2859
11.2859
11.2859
11.2859
11.2859
11.2859
11.2859
11.2859
11.2859
11.2859
11.2859
11.2859
11.2859
11.2859
11.2859
11.2859
11.2859
11.2859
11.2859
11.2859
11.2859
11.2859
11.2859
11.2859
11.2859
11.2859
11.2859
11.2859
11.2859
11.2859
11.2859
11.2859
11.2859
11.2859
11.2859
11.2859
11.2859
11.2859
11.2859
11.2859
11.2859
11.2859
11.2859
11.2859
11.2859
11.2859
11.2859
11.2859
11.2859
11.2859
11.2859
11.2859
11.2859
11.2859
11.2859
11.2859
11.2859
11.2859
11.2859
11.2859
11.2859
11.2859
11.2859
11.2859
11.2859
11.2859
11.2859
11.2859
11.2859
11.2859
11.2859
11.2859
11.2859
11.2859
11.2859
11.2859
11.2859
11.2859
11.2859
11.2859
11.2859
11.2859
11.2859
11.2859
11.2859
11.2859
11.2859
11.2859
11.2859
11.2859
11.2859
11.2859
11.2859
11.2859
11.2859
11.2859
11.2859
11.2859
11.2859
11.2859
11.2859
11.2859
11.2859
11.2859
11.2859
11.2859
11.2859
11.2859
11.2859
11.2859
11.2859
11.2859
11.2859
11.2859
11.2859
11.2859
11.2859
11.2859
11.2859
11.2859
11.2859
11.2859
11.2859
11.2859
11.2859
11.2859
11.2859
11.2859
11.2859
11.2859
11.2859
11.2859
11.2859
11.2859
11.2859
11.2859
11.2859
11.2859
11.2859
11.2859
11.2859
11.2859
11.2859
11.2859
11.2859
11.2859
11.2859
11.2859
11.2859
11.2859
11.2859
11.2859
11.2859
11.2859
11.2859
11.2859
11.2859
11.2859
11.2859
11.2859
11.2859
11.2859
11.2859
11.2859
11.2858
11.2858
11.2858
11.2858
11.2858
11.2858
11.2858
11.2858
11.2858
11.2858
11.2858
11.2858
11.2858
11.2858
11.2858
11.2858
11.2858
11.2859
11.2859
11.2859
11.2859
11.2859
11.2859
11.2859
11.2859
11.2859
11.2859
11.2859
11.2859
11.2859
11.2859
11.2859
11.2859
11.2859
11.2859
11.2859
11.2859
11.2859
11.2859
11.2859
11.2859
11.2859
11.2859
11.2859
11.2859
11.2859
11.2859
11.2859
11.2859
11.2859
11.2859
11.2859
11.2859
11.2859
11.2859
11.2859
11.2859
11.2859
11.2859
11.2859
11.2859
11.2859
11.2859
11.2859
11.2859
11.2859
11.2859
11.2859
11.2859
11.2859
11.2859
11.2859
11.2859
11.2859
11.2859
11.2859
11.2859
11.2859
11.2859
11.2859
11.2859
11.2859
11.2859
11.2859
11.2859
11.2859
11.2859
11.2859
11.2859
11.2859
11.2859
11.2859
11.2859
11.2859
11.2859
11.2859
11.2859
11.2859
11.2859
11.2859
11.2859
11.2859
11.2859
11.2859
11.2859
11.2859
11.2859
11.2859
11.2859
11.2859
11.2859
11.2859
11.2859
11.2859
11.2859
11.2859
11.2859
11.2859
11.2859
11.2859
11.2859
11.2859
11.2859
11.2859
11.2859
11.2859
11.2859
11.2859
11.2859
11.2859
11.2859
11.2859
11.2859
11.2859
11.2859
11.2859
11.2859
11.2859
11.2859
11.2859
11.2858
11.2858
11.2858
11.2858
11.2858
11.2858
11.2858
11.2858
11.2858
11.2858
11.2858
11.2858
11.2858
11.2858
11.2858
11.2858
11.2858
11.2858
11.2858
11.2858
11.2858
11.2858
11.2858
11.2858
11.2858
11.2858
11.2858
11.2858
11.2858
11.2858
11.2858
11.2858
11.2858
11.2858
11.2858
11.2858
11.2858
11.2858
11.2858
11.2858
11.2858
11.2858
11.2858
11.2858
11.2858
11.2858
11.2858
11.2858
11.2858
11.2858
11.2858
11.2858
11.2858
11.2858
11.2858
11.2858
11.2858
11.2858
11.2858
11.2858
11.2857
11.2857
11.2857
11.2857
11.2857
11.2857
11.2857
11.2857
11.2857
11.2857
11.2857
11.2857
11.2857
11.2857
11.2857
11.2857
11.2856
11.2856
11.2856
11.2856
11.2856
11.2856
11.2856
11.2856
11.2855
11.2855
11.2855
11.2859
11.2859
11.2859
11.2859
11.2859
11.2859
11.2859
11.2859
11.2859
11.2859
11.2859
11.2859
11.2859
11.2859
11.2859
11.2859
11.2859
11.2859
11.2859
11.2859
11.2859
11.2859
11.2859
11.2859
11.2859
11.2859
11.2859
11.2859
11.2859
11.2859
11.2859
11.2859
11.2859
11.2859
11.2859
11.2859
11.2859
11.2859
11.2859
11.2859
11.2859
11.2859
11.2859
11.2859
11.2859
11.2859
11.2859
11.2859
11.2859
11.2859
11.2859
11.2859
11.2859
11.2859
11.2859
11.2859
11.2859
11.2859
11.2859
11.2859
11.2859
11.2859
11.2859
11.2859
11.2859
11.2859
11.2859
11.2859
11.2859
11.2859
11.2859
11.2859
11.2858
11.2858
11.2858
11.2858
11.2858
11.2858
11.2858
11.2858
11.2858
11.2858
11.2858
11.2858
11.2858
11.2858
11.2858
11.2858
11.2858
11.2858
11.2858
11.2858
11.2858
11.2858
11.2858
11.2858
11.2858
11.2858
11.2858
11.2858
11.2858
11.2858
11.2858
11.2858
11.2858
11.2858
11.2858
11.2858
11.2858
11.2858
11.2858
11.2858
11.2858
11.2858
11.2858
11.2858
11.2858
11.2858
11.2858
11.2858
11.2858
11.2858
11.2858
11.2858
11.2858
11.2858
11.2858
11.2858
11.2858
11.2857
11.2857
11.2857
11.2857
11.2857
11.2857
11.2857
11.2857
11.2857
11.2857
11.2857
11.2857
11.2857
11.2857
11.2857
11.2856
11.2856
11.2856
11.2856
11.2856
11.2856
11.2856
11.2856
11.2856
11.2856
11.2855
11.2855
11.2855
11.2855
11.2855
11.2855
11.2854
11.2854
11.2854
11.2854
11.2854
11.2853
11.2853
11.2853
11.2852
11.2852
11.2852
11.2851
11.2851
11.2851
11.285
11.285
11.2849
11.2849
11.2848
11.2848
11.2848
11.2847
11.2846
11.2846
11.2845
11.2845
11.2844
11.2844
11.2843
11.2842
11.2841
11.2841
11.284
11.2839
11.2838
11.2837
11.2836
11.2835
11.2834
11.2833
11.2832
11.283
11.2829
11.2828
11.2826
11.2825
11.2823
11.2821
11.2823
11.2859
11.2859
11.2859
11.2859
11.2859
11.2859
11.2859
11.2859
11.2859
11.2859
11.2859
11.2859
11.2859
11.2859
11.2859
11.2859
11.2859
11.2859
11.2859
11.2859
11.2859
11.2859
11.2859
11.2859
11.2859
11.2859
11.2859
11.2859
11.2859
11.2859
11.2858
11.2858
11.2858
11.2858
11.2858
11.2858
11.2858
11.2858
11.2858
11.2858
11.2858
11.2858
11.2858
11.2858
11.2858
11.2858
11.2858
11.2858
11.2858
11.2858
11.2858
11.2858
11.2858
11.2858
11.2858
11.2858
11.2858
11.2858
11.2858
11.2858
11.2858
11.2858
11.2858
11.2858
11.2858
11.2858
11.2858
11.2858
11.2858
11.2858
11.2858
11.2858
11.2858
11.2858
11.2858
11.2858
11.2858
11.2858
11.2858
11.2858
11.2858
11.2858
11.2858
11.2858
11.2858
11.2857
11.2857
11.2857
11.2857
11.2857
11.2857
11.2857
11.2857
11.2857
11.2857
11.2857
11.2857
11.2857
11.2857
11.2856
11.2856
11.2856
11.2856
11.2856
11.2856
11.2856
11.2856
11.2855
11.2855
11.2855
11.2855
11.2855
11.2855
11.2855
11.2854
11.2854
11.2854
11.2854
11.2854
11.2853
11.2853
11.2853
11.2853
11.2852
11.2852
11.2852
11.2851
11.2851
11.2851
11.285
11.285
11.2849
11.2849
11.2848
11.2848
11.2847
11.2847
11.2846
11.2845
11.2845
11.2844
11.2843
11.2842
11.2841
11.2841
11.284
11.2839
11.2838
11.2837
11.2836
11.2834
11.2833
11.2832
11.2831
11.2829
11.2828
11.2826
11.2825
11.2823
11.2822
11.282
11.2818
11.2816
11.2814
11.2811
11.2809
11.2806
11.2804
11.2801
11.2798
11.2795
11.2792
11.2789
11.2786
11.2782
11.2778
11.2775
11.2771
11.2767
11.2763
11.2758
11.2754
11.2749
11.2745
11.274
11.2735
11.273
11.2724
11.2719
11.2713
11.2707
11.27
11.2693
11.2686
11.2679
11.267
11.2662
11.2653
11.2643
11.2632
11.2621
11.2609
11.2597
11.2583
11.2569
11.2553
11.2537
11.2514
11.2524
11.2859
11.2859
11.2859
11.2859
11.2859
11.2859
11.2859
11.2859
11.2859
11.2859
11.2859
11.2859
11.2859
11.2859
11.2859
11.2858
11.2858
11.2858
11.2858
11.2858
11.2858
11.2858
11.2858
11.2858
11.2858
11.2858
11.2858
11.2858
11.2858
11.2858
11.2858
11.2858
11.2858
11.2858
11.2858
11.2858
11.2858
11.2858
11.2858
11.2858
11.2858
11.2858
11.2858
11.2858
11.2857
11.2857
11.2857
11.2857
11.2857
11.2857
11.2857
11.2857
11.2857
11.2857
11.2857
11.2857
11.2857
11.2856
11.2856
11.2856
11.2856
11.2856
11.2856
11.2856
11.2856
11.2855
11.2855
11.2855
11.2855
11.2855
11.2855
11.2854
11.2854
11.2854
11.2854
11.2854
11.2853
11.2853
11.2853
11.2852
11.2852
11.2852
11.2852
11.2851
11.2851
11.2851
11.285
11.285
11.2849
11.2849
11.2848
11.2848
11.2847
11.2847
11.2846
11.2846
11.2845
11.2844
11.2844
11.2843
11.2842
11.2841
11.284
11.2839
11.2838
11.2837
11.2836
11.2835
11.2833
11.2832
11.2831
11.2829
11.2828
11.2826
11.2824
11.2822
11.2821
11.2819
11.2817
11.2814
11.2812
11.281
11.2807
11.2805
11.2802
11.2799
11.2796
11.2793
11.2789
11.2786
11.2782
11.2778
11.2774
11.2769
11.2765
11.276
11.2755
11.2749
11.2744
11.2738
11.2732
11.2725
11.2719
11.2712
11.2705
11.2697
11.2689
11.2681
11.2673
11.2664
11.2655
11.2646
11.2636
11.2626
11.2615
11.2603
11.2591
11.2579
11.2565
11.2551
11.2536
11.252
11.2503
11.2484
11.2465
11.2444
11.2422
11.2398
11.2373
11.2346
11.2317
11.2287
11.2255
11.222
11.2184
11.2146
11.2106
11.2064
11.202
11.1974
11.1926
11.1875
11.1824
11.177
11.1714
11.1657
11.1598
11.1537
11.1474
11.141
11.1344
11.1275
11.1205
11.1131
11.1056
11.0977
11.0894
11.0807
11.0716
11.062
11.0518
11.0409
11.0294
11.0171
11.0039
10.9902
10.9708
10.9734
11.2858
11.2858
11.2858
11.2858
11.2858
11.2858
11.2858
11.2858
11.2858
11.2858
11.2858
11.2858
11.2858
11.2859
11.2859
11.2859
11.2857
11.2857
11.2857
11.2857
11.2857
11.2856
11.2856
11.2856
11.2856
11.2856
11.2856
11.2856
11.2856
11.2855
11.2855
11.2855
11.2855
11.2855
11.2854
11.2854
11.2854
11.2854
11.2854
11.2853
11.2853
11.2853
11.2852
11.2852
11.2852
11.2851
11.2851
11.2851
11.285
11.285
11.2849
11.2849
11.2849
11.2848
11.2847
11.2847
11.2846
11.2846
11.2845
11.2844
11.2844
11.2843
11.2842
11.2841
11.2841
11.284
11.2839
11.2838
11.2837
11.2835
11.2834
11.2833
11.2832
11.283
11.2829
11.2827
11.2825
11.2824
11.2822
11.282
11.2818
11.2815
11.2813
11.281
11.2808
11.2805
11.2802
11.2799
11.2796
11.2793
11.2789
11.2786
11.2782
11.2778
11.2773
11.2769
11.2764
11.2759
11.2754
11.2748
11.2742
11.2736
11.2729
11.2722
11.2715
11.2707
11.2699
11.269
11.2681
11.2672
11.2662
11.2652
11.2641
11.263
11.2618
11.2606
11.2593
11.2579
11.2566
11.2551
11.2536
11.252
11.2503
11.2485
11.2467
11.2447
11.2427
11.2405
11.2382
11.2357
11.2331
11.2303
11.2274
11.2242
11.2208
11.2172
11.2134
11.2093
11.2049
11.2003
11.1954
11.1902
11.1847
11.1789
11.1728
11.1664
11.1596
11.1526
11.1452
11.1375
11.1295
11.1212
11.1125
11.1036
11.0943
11.0847
11.0748
11.0645
11.0538
11.0426
11.031
11.0189
11.0062
10.9929
10.9788
10.964
10.9483
10.9316
10.9138
10.895
10.8749
10.8534
10.8306
10.8064
10.7806
10.7532
10.7243
10.6938
10.6618
10.6282
10.5931
10.5565
10.5187
10.4797
10.4396
10.3986
10.3568
10.3144
10.2717
10.2286
10.1853
10.142
10.0987
10.0554
10.0123
9.96923
9.92624
9.88315
9.84002
9.79647
9.75266
9.70798
9.6628
9.61602
9.56864
9.51856
9.4685
9.40552
9.40239
11.2858
11.2858
11.2858
11.2858
11.2858
11.2858
11.2858
11.2858
11.2858
11.2858
11.2858
11.2858
11.2858
11.2849
11.2848
11.2848
11.2847
11.2846
11.2846
11.2845
11.2844
11.2844
11.2843
11.2842
11.2841
11.284
11.2839
11.2838
11.2837
11.2836
11.2835
11.2834
11.2833
11.2831
11.283
11.2828
11.2827
11.2825
11.2823
11.2822
11.282
11.2818
11.2815
11.2813
11.2811
11.2808
11.2805
11.2802
11.2799
11.2796
11.2793
11.2789
11.2785
11.2781
11.2777
11.2773
11.2768
11.2763
11.2758
11.2752
11.2746
11.274
11.2734
11.2727
11.272
11.2712
11.2704
11.2695
11.2687
11.2677
11.2667
11.2657
11.2645
11.2634
11.2621
11.2608
11.2594
11.258
11.2565
11.2549
11.2532
11.2515
11.2496
11.2477
11.2457
11.2436
11.2414
11.239
11.2366
11.2341
11.2314
11.2285
11.2255
11.2224
11.2191
11.2155
11.2118
11.2078
11.2036
11.1991
11.1943
11.1892
11.1837
11.1779
11.1718
11.1653
11.1583
11.151
11.1432
11.1349
11.1263
11.1171
11.1076
11.0975
11.087
11.076
11.0645
11.0526
11.0402
11.0272
11.0138
10.9998
10.9853
10.9702
10.9544
10.938
10.9207
10.9026
10.8836
10.8635
10.8423
10.8199
10.7961
10.7708
10.744
10.7155
10.6853
10.6533
10.6194
10.5835
10.5458
10.5062
10.4647
10.4214
10.3764
10.3298
10.2818
10.2326
10.1822
10.131
10.0791
10.0267
9.97395
9.921
9.86796
9.8149
9.76183
9.70876
9.65561
9.60229
9.54866
9.49453
9.43967
9.38381
9.32665
9.26787
9.20712
9.14405
9.07829
9.00948
8.93727
8.86131
8.7813
8.69699
8.60818
8.51475
8.41667
8.31404
8.20711
8.09629
7.9821
7.86522
7.7464
7.62649
7.50636
7.38692
7.26893
7.15322
7.04036
6.93098
6.82529
6.72386
6.62648
6.53381
6.44503
6.36127
6.28077
6.20556
6.13259
6.06549
5.99873
5.93936
5.87762
5.82542
5.76363
5.7251
11.2857
11.2857
11.2857
11.2856
11.2856
11.2856
11.2857
11.2857
11.2857
11.2857
11.2857
11.2857
11.2857
11.2802
11.2799
11.2796
11.2793
11.2789
11.2785
11.2781
11.2777
11.2773
11.2768
11.2763
11.2758
11.2752
11.2746
11.274
11.2733
11.2726
11.2719
11.2711
11.2703
11.2695
11.2686
11.2676
11.2666
11.2655
11.2644
11.2632
11.2619
11.2606
11.2592
11.2577
11.2561
11.2544
11.2527
11.2508
11.2488
11.2468
11.2446
11.2423
11.2399
11.2374
11.2347
11.2319
11.229
11.2259
11.2226
11.2192
11.2157
11.2119
11.2079
11.2037
11.1993
11.1947
11.1897
11.1845
11.179
11.1731
11.1669
11.1603
11.1532
11.1458
11.1378
11.1294
11.1204
11.1109
11.1008
11.0902
11.0789
11.067
11.0545
11.0414
11.0276
11.0131
10.998
10.9822
10.9658
10.9486
10.9307
10.912
10.8926
10.8723
10.8512
10.829
10.8059
10.7816
10.7561
10.7292
10.7009
10.671
10.6394
10.606
10.5707
10.5335
10.4941
10.4526
10.409
10.3632
10.3153
10.2653
10.2133
10.1595
10.1041
10.0471
9.98886
9.92956
9.8694
9.8086
9.74735
9.68581
9.6241
9.56228
9.50038
9.43835
9.37612
9.31352
9.2504
9.1865
9.12156
9.05527
8.9873
8.9173
8.84491
8.76978
8.69157
8.60997
8.5247
8.43555
8.34237
8.24508
8.14372
8.03846
7.9296
7.81755
7.70287
7.58626
7.46847
7.35031
7.23264
7.11632
7.00213
6.89076
6.78284
6.67882
6.57905
6.48374
6.39302
6.30693
6.22542
6.14836
6.07553
6.00672
5.94164
5.88002
5.82156
5.76598
5.71302
5.66241
5.6139
5.56726
5.52225
5.47869
5.43639
5.39518
5.35491
5.31546
5.27673
5.23865
5.20118
5.16429
5.12796
5.09219
5.057
5.02239
4.98834
4.95347
4.91938
4.8875
4.85761
4.82919
4.80165
4.77493
4.74901
4.72382
4.69925
4.67538
4.6523
4.63
4.60827
4.58734
4.56675
4.54745
4.52612
4.51528
11.2849
11.2849
11.2849
11.2849
11.2849
11.2849
11.2849
11.2849
11.2849
11.2849
11.2849
11.285
11.285
11.285
11.2538
11.252
11.2501
11.2481
11.2459
11.2437
11.2413
11.2388
11.2361
11.2333
11.2304
11.2273
11.224
11.2205
11.2169
11.213
11.209
11.2047
11.2002
11.1955
11.1906
11.1853
11.1798
11.174
11.1679
11.1615
11.1546
11.1474
11.1398
11.1317
11.1231
11.114
11.1043
11.0941
11.0832
11.0717
11.0595
11.0466
11.0329
11.0185
11.0032
10.9872
10.9703
10.9526
10.934
10.9145
10.8941
10.8728
10.8506
10.8274
10.8032
10.778
10.7517
10.7242
10.6955
10.6654
10.6339
10.6009
10.5663
10.5299
10.4916
10.4513
10.4089
10.3644
10.3176
10.2685
10.217
10.1633
10.1074
10.0492
9.98903
9.92695
9.86318
9.7979
9.73136
9.66377
9.59537
9.52636
9.45693
9.38722
9.31732
9.24728
9.17708
9.10663
9.03579
8.96437
8.89213
8.81879
8.74405
8.66759
8.58907
8.50818
8.4246
8.33805
8.24833
8.15525
8.05874
7.9588
7.85557
7.74927
7.64028
7.52907
7.41623
7.30243
7.18843
7.07501
6.96293
6.85294
6.74572
6.64186
6.54183
6.44599
6.35456
6.26764
6.18523
6.10728
6.03367
5.96421
5.89866
5.83678
5.77827
5.72285
5.67024
5.62016
5.57233
5.52649
5.48241
5.43987
5.39866
5.35862
5.31959
5.28148
5.24417
5.20762
5.17176
5.13658
5.10208
5.06823
5.03506
5.00258
4.97079
4.93972
4.90803
4.87741
4.84899
4.82247
4.79715
4.77267
4.74895
4.72592
4.70344
4.68163
4.66057
4.64015
4.62032
4.60107
4.58239
4.56427
4.54669
4.52962
4.51306
4.49696
4.48131
4.46609
4.45127
4.43682
4.42272
4.40893
4.39544
4.38222
4.36927
4.35656
4.34408
4.33191
4.3202
4.3075
4.29335
4.27771
4.26113
4.24473
4.22852
4.21245
4.1965
4.18065
4.16493
4.14927
4.13372
4.11821
4.10278
4.08733
4.07227
4.05473
4.04751
11.2815
11.2815
11.2815
11.2814
11.2814
11.2815
11.2815
11.2815
11.2816
11.2816
11.2817
11.2818
11.2819
11.282
11.1128
11.1033
11.0932
11.0825
11.0712
11.0593
11.0466
11.0332
11.0191
11.0041
10.9882
10.9715
10.9538
10.9351
10.9154
10.8947
10.873
10.8502
10.8263
10.8013
10.7751
10.7478
10.7193
10.6895
10.6585
10.6262
10.5924
10.5573
10.5205
10.4822
10.4421
10.4002
10.3563
10.3104
10.2624
10.2121
10.1595
10.1045
10.0472
9.9875
9.9255
9.86127
9.79492
9.72661
9.65652
9.58486
9.51186
9.43774
9.36274
9.28707
9.21091
9.13442
9.05771
8.98082
8.90375
8.82643
8.74873
8.67047
8.59144
8.51136
8.42995
8.34693
8.262
8.1749
8.08541
7.99333
7.89855
7.80104
7.70084
7.5981
7.49311
7.38622
7.27791
7.16875
7.05937
6.95045
6.84271
6.73682
6.63345
6.53316
6.43647
6.34375
6.25529
6.17125
6.0917
6.01655
5.94566
5.87886
5.81594
5.75664
5.7007
5.64783
5.59774
5.55014
5.50475
5.46132
5.41961
5.37941
5.34054
5.30283
5.26617
5.23045
5.19561
5.16157
5.1283
5.09578
5.06401
5.03295
5.00262
4.97299
4.94407
4.91587
4.88801
4.85989
4.83365
4.80925
4.78628
4.76408
4.74254
4.72155
4.70102
4.68111
4.66189
4.64323
4.6251
4.60752
4.59046
4.57393
4.5579
4.54236
4.52728
4.51264
4.49841
4.48458
4.47113
4.45801
4.44517
4.43262
4.42033
4.40829
4.39651
4.385
4.37388
4.36167
4.34801
4.33289
4.31732
4.30195
4.28673
4.27164
4.25665
4.24175
4.22694
4.21219
4.19749
4.18283
4.16819
4.15357
4.13894
4.1243
4.1096
4.09485
4.08
4.06504
4.04994
4.03467
4.0192
4.00351
3.98755
3.97131
3.95475
3.93784
3.92055
3.90285
3.88502
3.86748
3.85036
3.83375
3.8175
3.80112
3.78461
3.76798
3.75124
3.73438
3.71739
3.70029
3.68299
3.66567
3.64797
3.63044
3.61243
3.59238
3.58947
11.2663
11.2661
11.2661
11.266
11.2661
11.2662
11.2664
11.2666
11.2669
11.2672
11.2676
11.268
11.2685
11.2689
10.4543
10.413
10.37
10.3253
10.2786
10.2301
10.1795
10.1268
10.0719
10.0148
9.95529
9.89349
9.82936
9.76293
9.69426
9.62346
9.55066
9.47603
9.39976
9.32205
9.24313
9.16323
9.08256
9.00133
8.9197
8.83781
8.75575
8.67354
8.59118
8.50859
8.42563
8.34214
8.25791
8.1727
8.08627
7.99837
7.9088
7.81737
7.72397
7.62853
7.53107
7.43168
7.33057
7.22803
7.12443
7.02025
6.91602
6.81232
6.70978
6.609
6.51056
6.41501
6.32283
6.23439
6.14998
6.0698
5.99392
5.92234
5.85496
5.7916
5.73199
5.67588
5.62303
5.57315
5.52598
5.48124
5.43865
5.39796
5.35896
5.32142
5.2852
5.25014
5.21612
5.18305
5.15086
5.1195
5.08893
5.05912
5.03004
5.00168
4.97401
4.94701
4.92064
4.89492
4.86989
4.84447
4.82004
4.79737
4.77619
4.75591
4.7362
4.71697
4.69815
4.67991
4.6623
4.6452
4.62862
4.61255
4.59699
4.58194
4.56738
4.55329
4.53965
4.52645
4.51362
4.50116
4.48902
4.47719
4.46562
4.45429
4.4432
4.43233
4.42174
4.41095
4.39882
4.38533
4.37081
4.35636
4.34207
4.32788
4.3138
4.2998
4.28587
4.27201
4.25818
4.24439
4.23061
4.21682
4.20301
4.18914
4.17519
4.16113
4.14693
4.13256
4.11799
4.10319
4.08812
4.07276
4.05706
4.041
4.02453
4.00768
3.99071
3.97401
3.95772
3.94192
3.92624
3.91039
3.89437
3.87821
3.8619
3.84544
3.82881
3.81202
3.79506
3.77792
3.7606
3.74309
3.72539
3.70751
3.68944
3.67119
3.65276
3.63415
3.61539
3.59648
3.57743
3.55828
3.53903
3.51972
3.50037
3.48101
3.46169
3.44244
3.42327
3.40417
3.38506
3.36589
3.34659
3.32713
3.30751
3.28773
3.26778
3.24767
3.22736
3.20692
3.18619
3.1655
3.14417
3.12347
3.1015
3.08257
3.08384
11.2
11.1996
11.1994
11.1995
11.2
11.2006
11.2016
11.2027
11.2041
11.2057
11.2074
11.2093
11.2113
8.55733
8.47184
8.38629
8.30066
8.21489
8.12887
8.04246
7.95548
7.86776
7.7791
7.68933
7.59831
7.50594
7.41218
7.31705
7.22066
7.12318
7.02488
6.92608
6.8272
6.72869
6.63107
6.53486
6.44058
6.34874
6.25981
6.17418
6.09219
6.01407
5.93999
5.87001
5.80409
5.74214
5.68399
5.62942
5.57813
5.52983
5.48427
5.44119
5.40035
5.36149
5.32439
5.28885
5.25467
5.22172
5.18986
5.15899
5.12903
5.0999
5.07157
5.04398
5.0171
4.99089
4.96532
4.94035
4.91595
4.89207
4.86874
4.84599
4.82301
4.80074
4.78004
4.76063
4.74215
4.72419
4.70661
4.68946
4.67288
4.65686
4.64133
4.6263
4.61178
4.59775
4.58421
4.57113
4.55848
4.54624
4.53438
4.52286
4.51164
4.5007
4.48999
4.4795
4.46922
4.45903
4.4492
4.43841
4.42642
4.41321
4.39962
4.38619
4.37288
4.35967
4.34656
4.33352
4.32053
4.30759
4.29468
4.28177
4.26884
4.25587
4.24283
4.22968
4.2164
4.20296
4.18931
4.17543
4.16128
4.14683
4.13204
4.11687
4.10133
4.08552
4.06976
4.05429
4.03921
4.02445
4.00953
3.99443
3.97914
3.96366
3.948
3.93214
3.91608
3.89982
3.88333
3.86664
3.84971
3.83257
3.81519
3.7976
3.7798
3.76179
3.7436
3.72523
3.70671
3.68807
3.66933
3.65053
3.63171
3.6129
3.59415
3.57549
3.55687
3.53825
3.51955
3.50072
3.48175
3.46265
3.44341
3.42404
3.40453
3.38488
3.3651
3.3452
3.32516
3.30501
3.28474
3.26437
3.2439
3.22334
3.2027
3.18199
3.16122
3.14039
3.11952
3.09861
3.07766
3.05667
3.03565
3.01458
2.99348
2.97231
2.95107
2.92974
2.90831
2.88678
2.86516
2.84346
2.8217
2.79988
2.77804
2.75617
2.73432
2.71243
2.69067
2.66876
2.64721
2.62509
2.60429
2.58242
2.56936
2.57855
10.9303
10.9295
10.9297
10.9311
10.9335
10.9369
10.9412
10.9463
10.9523
10.9589
10.9661
10.9739
10.9821
5.98003
5.90733
5.83839
5.77327
5.71196
5.65436
5.60035
5.54971
5.50223
5.45762
5.4156
5.3759
5.33831
5.30261
5.26859
5.23606
5.20485
5.17481
5.14582
5.11777
5.09059
5.06419
5.03852
5.01354
4.98918
4.96542
4.9422
4.91947
4.8972
4.87536
4.85393
4.83294
4.81214
4.79135
4.77186
4.75357
4.73631
4.71969
4.7035
4.68768
4.67237
4.6576
4.64334
4.62956
4.61628
4.60346
4.59109
4.57916
4.56763
4.55645
4.5456
4.53504
4.52475
4.51469
4.50484
4.49512
4.48548
4.47622
4.46621
4.45516
4.44306
4.43035
4.41777
4.40532
4.39297
4.38072
4.36853
4.3564
4.34429
4.33219
4.32008
4.30793
4.2957
4.28337
4.2709
4.25827
4.24543
4.23235
4.219
4.20535
4.19134
4.17699
4.16236
4.14756
4.13292
4.11855
4.10452
4.09054
4.07637
4.062
4.04743
4.03267
4.0177
4.00252
3.98712
3.9715
3.95565
3.93956
3.92324
3.90669
3.88992
3.87292
3.85573
3.83834
3.82079
3.8031
3.78529
3.7674
3.74947
3.73154
3.71364
3.69576
3.67787
3.65989
3.64176
3.62346
3.60498
3.58634
3.56753
3.54855
3.52942
3.51014
3.49072
3.47117
3.4515
3.43172
3.41186
3.39191
3.3719
3.35184
3.33174
3.3116
3.29145
3.27128
3.25111
3.23092
3.21072
3.19049
3.17023
3.14991
3.1295
3.10899
3.08838
3.06765
3.04683
3.02591
3.0049
2.98381
2.96263
2.94138
2.92006
2.89868
2.87725
2.85577
2.83426
2.81272
2.79117
2.76962
2.74807
2.72654
2.70504
2.68358
2.66216
2.6408
2.61949
2.59824
2.57707
2.55596
2.53493
2.51399
2.49312
2.47235
2.45168
2.43111
2.41066
2.39031
2.3701
2.34999
2.33002
2.31017
2.29044
2.27086
2.25134
2.23202
2.2126
2.19352
2.17397
2.15597
2.13853
2.13045
2.14876
10.0483
10.0512
10.0575
10.0668
10.0787
10.0931
10.1099
10.1288
10.1495
10.172
10.1961
10.2215
4.96724
4.94568
4.92456
4.90382
4.88342
4.86334
4.84358
4.82413
4.80503
4.78575
4.76722
4.74982
4.73338
4.71781
4.7028
4.68818
4.674
4.66031
4.64712
4.63438
4.62211
4.61029
4.5989
4.58789
4.57724
4.5669
4.55685
4.54706
4.53752
4.52818
4.51893
4.50979
4.50094
4.49192
4.48204
4.4713
4.45968
4.44784
4.43615
4.42457
4.41308
4.40167
4.3903
4.37896
4.36761
4.35625
4.34482
4.33331
4.32169
4.30991
4.29794
4.28576
4.27333
4.2606
4.24756
4.23424
4.22065
4.20684
4.1931
4.17955
4.16624
4.15308
4.13973
4.12617
4.11242
4.09845
4.08427
4.06987
4.05525
4.04039
4.0253
4.00997
3.99441
3.97862
3.96261
3.94639
3.92999
3.91342
3.8967
3.87986
3.86295
3.84599
3.82902
3.81204
3.79505
3.77797
3.76075
3.74334
3.72573
3.70792
3.68992
3.67174
3.65337
3.63483
3.61614
3.59729
3.57831
3.55921
3.54001
3.52071
3.50134
3.48191
3.46243
3.44291
3.42337
3.4038
3.38421
3.36459
3.34494
3.32524
3.30548
3.28562
3.26568
3.24564
3.22551
3.2053
3.18502
3.16467
3.14426
3.12379
3.10327
3.08271
3.06211
3.04147
3.0208
3.00011
2.97939
2.95865
2.93788
2.91708
2.89626
2.87541
2.85452
2.83359
2.81262
2.79161
2.77054
2.74942
2.72826
2.70705
2.68581
2.66456
2.6433
2.62206
2.60085
2.57968
2.55858
2.53755
2.51661
2.49578
2.47505
2.45444
2.43396
2.41362
2.39341
2.37334
2.35342
2.33362
2.31396
2.29443
2.27503
2.25575
2.23659
2.21755
2.19862
2.1798
2.16109
2.14249
2.12398
2.10558
2.08728
2.06909
2.05101
2.03305
2.01521
1.99744
1.97971
1.96203
1.94437
1.92674
1.90911
1.89149
1.87381
1.85612
1.8382
1.82028
1.80193
1.78518
1.77027
1.76376
1.78471
8.26187
8.27067
8.28525
8.3036
8.32618
8.3524
8.38202
8.41484
8.45068
8.48947
4.59526
4.58536
4.57575
4.56639
4.55726
4.54837
4.53954
4.53082
4.52225
4.514
4.50517
4.49563
4.48538
4.47443
4.46341
4.45251
4.44171
4.43098
4.4203
4.40965
4.399
4.38831
4.37757
4.36674
4.35579
4.34468
4.33339
4.32189
4.31013
4.29808
4.28581
4.2733
4.26049
4.24762
4.23481
4.22214
4.20967
4.19718
4.18448
4.17157
4.15845
4.14511
4.13155
4.11776
4.10374
4.08948
4.07499
4.06027
4.04532
4.03016
4.01481
3.99927
3.98358
3.96777
3.95185
3.93587
3.91985
3.9038
3.88772
3.87155
3.85524
3.83873
3.82201
3.80508
3.78794
3.77061
3.75309
3.73539
3.71752
3.6995
3.68133
3.66303
3.64462
3.62611
3.60751
3.58884
3.57011
3.55131
3.53246
3.51356
3.4946
3.47558
3.45647
3.43726
3.41793
3.3985
3.37895
3.35931
3.33958
3.31977
3.2999
3.27996
3.25998
3.23996
3.2199
3.19982
3.17973
3.15961
3.13949
3.11935
3.0992
3.07905
3.05887
3.03868
3.01846
2.99821
2.97793
2.9576
2.93722
2.91679
2.89632
2.8758
2.85524
2.83464
2.81402
2.79337
2.77271
2.75202
2.73133
2.71062
2.6899
2.66919
2.64848
2.62777
2.60709
2.58642
2.56578
2.54517
2.5246
2.50409
2.48362
2.46322
2.4429
2.42266
2.40251
2.38246
2.36253
2.34271
2.32302
2.30346
2.28404
2.26475
2.2456
2.22659
2.20773
2.18901
2.17043
2.15198
2.13367
2.11549
2.09744
2.0795
2.06168
2.04399
2.02642
2.00898
1.99166
1.97442
1.95724
1.94012
1.92304
1.90599
1.88898
1.87197
1.85498
1.83798
1.82095
1.8039
1.7868
1.76963
1.75238
1.73507
1.71777
1.70052
1.6833
1.66621
1.64927
1.63251
1.61594
1.5996
1.58351
1.56768
1.55215
1.53689
1.52185
1.50716
1.49258
1.48024
1.47214
1.46852
1.4894
6.38414
6.40313
6.42498
6.44914
6.47559
6.50488
6.53682
6.57123
6.60818
4.38455
4.37408
4.36343
4.35256
4.34145
4.33015
4.31865
4.30687
4.29487
4.28284
4.27084
4.25893
4.24716
4.2353
4.22323
4.21095
4.19846
4.18574
4.1728
4.15963
4.14622
4.13259
4.11873
4.10465
4.09037
4.0759
4.06125
4.04646
4.03155
4.01655
4.00147
3.98634
3.97116
3.9559
3.94053
3.92498
3.90922
3.89325
3.87706
3.86067
3.84409
3.82732
3.81037
3.79327
3.77602
3.75864
3.74113
3.72352
3.70581
3.68802
3.67015
3.6522
3.63418
3.61608
3.5979
3.57961
3.5612
3.54266
3.52399
3.50518
3.48626
3.46723
3.4481
3.42888
3.40958
3.39022
3.3708
3.35133
3.33181
3.31226
3.29269
3.27308
3.25345
3.23379
3.21411
3.19439
3.17465
3.15487
3.13504
3.11518
3.09527
3.07532
3.05532
3.0353
3.01525
2.99519
2.97511
2.95502
2.93492
2.91482
2.89472
2.87462
2.85451
2.8344
2.81429
2.79417
2.77404
2.7539
2.73375
2.71358
2.6934
2.6732
2.65299
2.63277
2.61254
2.59231
2.57208
2.55187
2.53169
2.51153
2.49143
2.47137
2.45139
2.43147
2.41164
2.3919
2.37225
2.35271
2.33327
2.31395
2.29475
2.27567
2.25671
2.23786
2.21914
2.20054
2.18206
2.16371
2.14549
2.12739
2.10941
2.09156
2.07383
2.05623
2.03877
2.02144
2.00426
1.98721
1.97029
1.95347
1.93673
1.92007
1.90347
1.88693
1.87043
1.85397
1.83753
1.8211
1.80466
1.7882
1.77169
1.75513
1.73859
1.72208
1.7056
1.68916
1.67281
1.65659
1.64052
1.62461
1.60888
1.59336
1.57807
1.56303
1.54827
1.53382
1.51971
1.50597
1.49263
1.47975
1.46724
1.45502
1.44306
1.43142
1.42007
1.40899
1.3983
1.3878
1.37774
1.36791
1.35841
1.34929
1.3402
1.3316
1.32254
1.31437
1.30715
1.30525
1.30561
1.32111
5.22621
5.24675
4.15527
4.14185
4.12824
4.11447
4.10055
4.08652
4.07238
4.05816
4.04387
4.02951
4.01504
4.00044
3.98565
3.97064
3.95542
3.93999
3.92437
3.90855
3.89256
3.8764
3.86009
3.84365
3.82707
3.81038
3.79359
3.7767
3.75972
3.74266
3.7255
3.70824
3.69088
3.6734
3.65578
3.63803
3.62013
3.60209
3.58392
3.56564
3.54726
3.52877
3.51021
3.49156
3.47284
3.45406
3.43523
3.41634
3.3974
3.37841
3.35938
3.34029
3.32115
3.30196
3.28271
3.26339
3.24402
3.22458
3.2051
3.18557
3.166
3.14641
3.12679
3.10716
3.08752
3.06787
3.04822
3.02857
3.00892
2.98926
2.9696
2.94995
2.93028
2.91061
2.89093
2.87124
2.85153
2.83182
2.81209
2.79235
2.77259
2.75283
2.73307
2.7133
2.69354
2.67378
2.65403
2.63429
2.61456
2.59485
2.57515
2.55546
2.5358
2.51615
2.49654
2.47696
2.45741
2.43792
2.41847
2.39908
2.37975
2.36051
2.34134
2.32227
2.3033
2.28444
2.26569
2.24706
2.22854
2.21014
2.19187
2.17371
2.15569
2.13778
2.12
2.10235
2.08481
2.06739
2.05011
2.03295
2.01592
1.99903
1.98226
1.96563
1.94911
1.93268
1.91633
1.90006
1.88386
1.86771
1.85162
1.83556
1.81952
1.80348
1.78743
1.77141
1.75544
1.73952
1.72365
1.70783
1.69205
1.67639
1.66085
1.64546
1.63021
1.61514
1.60025
1.58557
1.57113
1.55693
1.54302
1.52942
1.51617
1.50326
1.49058
1.47812
1.4659
1.45394
1.44224
1.4308
1.41963
1.40874
1.39813
1.3878
1.37776
1.36801
1.35854
1.34936
1.34047
1.33186
1.32352
1.31549
1.30771
1.30036
1.2933
1.28667
1.28036
1.27438
1.26884
1.26353
1.25871
1.25414
1.24995
1.24614
1.2425
1.23921
1.23566
1.23265
1.23056
1.23374
1.23703
1.24431
3.88531
3.86943
3.85344
3.83735
3.82116
3.80486
3.78846
3.77193
3.75527
3.73847
3.72152
3.70443
3.68719
3.66983
3.65234
3.63475
3.61706
3.59928
3.58142
3.56348
3.54546
3.52738
3.50923
3.49101
3.47272
3.45437
3.43594
3.41744
3.39886
3.3802
3.36146
3.34266
3.32378
3.30484
3.28586
3.26683
3.24777
3.22867
3.20955
3.19041
3.17125
3.15208
3.13289
3.11368
3.09446
3.07522
3.05597
3.03671
3.01743
2.99813
2.97882
2.9595
2.94016
2.92082
2.90148
2.88214
2.8628
2.84347
2.82415
2.80484
2.78554
2.76624
2.74696
2.72769
2.70842
2.68916
2.66991
2.65066
2.63142
2.61218
2.59295
2.57373
2.55452
2.53532
2.51614
2.49697
2.47784
2.45874
2.43968
2.42066
2.4017
2.3828
2.36396
2.3452
2.32652
2.30792
2.28941
2.271
2.25269
2.23448
2.21637
2.19836
2.18046
2.16266
2.14496
2.12738
2.10991
2.09254
2.0753
2.05818
2.04118
2.02431
2.00758
1.99097
1.97451
1.95818
1.94196
1.92584
1.9098
1.89384
1.87796
1.86213
1.84634
1.83058
1.81483
1.79913
1.7835
1.76793
1.75243
1.737
1.72163
1.70633
1.69112
1.67605
1.66112
1.64634
1.63174
1.61732
1.60309
1.58909
1.57533
1.56185
1.54866
1.53568
1.52286
1.51023
1.4978
1.48557
1.47357
1.46178
1.45022
1.43888
1.42779
1.41693
1.40633
1.39597
1.38586
1.37601
1.3664
1.35705
1.34794
1.3391
1.33057
1.32237
1.3145
1.30696
1.29974
1.29285
1.28629
1.28007
1.27417
1.26862
1.2634
1.25852
1.25398
1.24979
1.24594
1.24245
1.23929
1.23652
1.23405
1.232
1.23025
1.2289
1.22789
1.22722
1.22696
1.22698
1.22744
1.22821
1.22936
1.23087
1.23265
1.2347
1.23672
1.2388
1.24176
1.24862