/*--------------------------------*- C++ -*----------------------------------*\
| =========                 |                                                 |
| \\      /  F ield         | OpenFOAM: The Open Source CFD Toolbox           |
|  \\    /   O peration     | Version:  v1706                                 |
|   \\  /    A nd           | Web:      www.OpenFOAM.com                      |
|    \\/     M anipulation  |                                                 |
\*---------------------------------------------------------------------------*/
FoamFile
{
    version     2.0;
    format      ascii;
    class       volScalarField;
    location    "4e-06";
    object      mu;
}
// * * * * * * * * * * * * * * * * * * * * * * * * * * * * * * * * * * * * * //

dimensions      [1 -1 -1 0 0 0 0];


internalField   nonuniform List<scalar> 
30104
(
1.0351e-05
1.0351e-05
1.0351e-05
1.0351e-05
1.0351e-05
1.0351e-05
1.0351e-05
1.0351e-05
1.0351e-05
1.0351e-05
1.0351e-05
1.0351e-05
1.0351e-05
1.0351e-05
1.0351e-05
1.0351e-05
1.0351e-05
1.0351e-05
1.0351e-05
1.0351e-05
1.0351e-05
1.0351e-05
1.0351e-05
1.0351e-05
1.0351e-05
1.0351e-05
1.0351e-05
1.0351e-05
1.0351e-05
1.0351e-05
1.0351e-05
1.0351e-05
1.0351e-05
1.0351e-05
1.0351e-05
1.0351e-05
1.0351e-05
1.0351e-05
1.0351e-05
1.0351e-05
1.0351e-05
1.0351e-05
1.0351e-05
1.0351e-05
1.0351e-05
1.0351e-05
1.0351e-05
1.0351e-05
1.0351e-05
1.0351e-05
1.0351e-05
1.0351e-05
1.0351e-05
1.0351e-05
1.0351e-05
1.0351e-05
1.0351e-05
1.0351e-05
1.0351e-05
1.0351e-05
1.0351e-05
1.0351e-05
1.0351e-05
1.0351e-05
1.0351e-05
1.0351e-05
1.0351e-05
1.0351e-05
1.0351e-05
1.0351e-05
1.0351e-05
1.0351e-05
1.0351e-05
1.0351e-05
1.0351e-05
1.0351e-05
1.0351e-05
1.0351e-05
1.0351e-05
1.0351e-05
1.0351e-05
1.0351e-05
1.0351e-05
1.0351e-05
1.0351e-05
1.0351e-05
1.0351e-05
1.0351e-05
1.0351e-05
1.0351e-05
1.0351e-05
1.0351e-05
1.0351e-05
1.0351e-05
1.0351e-05
1.0351e-05
1.0351e-05
1.0351e-05
1.0351e-05
1.0351e-05
1.0351e-05
1.0351e-05
1.0351e-05
1.0351e-05
1.0351e-05
1.0351e-05
1.0351e-05
1.0351e-05
1.0351e-05
1.0351e-05
1.0351e-05
1.0351e-05
1.0351e-05
1.0351e-05
1.0351e-05
1.0351e-05
1.0351e-05
1.0351e-05
1.0351e-05
1.0351e-05
1.0351e-05
1.0351e-05
1.0351e-05
1.0351e-05
1.0351e-05
1.0351e-05
1.0351e-05
1.0351e-05
1.0351e-05
1.0351e-05
1.0351e-05
1.0351e-05
1.0351e-05
1.0351e-05
1.0351e-05
1.0351e-05
1.0351e-05
1.0351e-05
1.0351e-05
1.0351e-05
1.0351e-05
1.0351e-05
1.0351e-05
1.0351e-05
1.0351e-05
1.0351e-05
1.0351e-05
1.0351e-05
1.0351e-05
1.0351e-05
1.0351e-05
1.0351e-05
1.0351e-05
1.0351e-05
1.0351e-05
1.0351e-05
1.0351e-05
1.0351e-05
1.0351e-05
1.0351e-05
1.0351e-05
1.0351e-05
1.0351e-05
1.0351e-05
1.0351e-05
1.0351e-05
1.0351e-05
1.0351e-05
1.0351e-05
1.0351e-05
1.0351e-05
1.0351e-05
1.0351e-05
1.0351e-05
1.0351e-05
1.0351e-05
1.0351e-05
1.0351e-05
1.0351e-05
1.0351e-05
1.0351e-05
1.0351e-05
1.0351e-05
1.0351e-05
1.0351e-05
1.0351e-05
1.0351e-05
1.0351e-05
1.0351e-05
1.0351e-05
1.0351e-05
1.0351e-05
1.0351e-05
1.0351e-05
1.0351e-05
1.0351e-05
1.0351e-05
1.0351e-05
1.0351e-05
1.0351e-05
1.0351e-05
1.0351e-05
1.0351e-05
1.0351e-05
1.0351e-05
1.0351e-05
1.0351e-05
1.0351e-05
1.0351e-05
1.0351e-05
1.0351e-05
1.0351e-05
1.0351e-05
1.0351e-05
1.0351e-05
1.0351e-05
1.0351e-05
1.0351e-05
1.0351e-05
1.0351e-05
1.0351e-05
1.0351e-05
1.0351e-05
1.0351e-05
1.0351e-05
1.0351e-05
1.0351e-05
1.0351e-05
1.0351e-05
1.0351e-05
1.0351e-05
1.0351e-05
1.0351e-05
1.0351e-05
1.0351e-05
1.0351e-05
1.0351e-05
1.0351e-05
1.0351e-05
1.0351e-05
1.0351e-05
1.0351e-05
1.0351e-05
1.0351e-05
1.0351e-05
1.0351e-05
1.0351e-05
1.0351e-05
1.0351e-05
1.0351e-05
1.0351e-05
1.0351e-05
1.0351e-05
1.0351e-05
1.0351e-05
1.0351e-05
1.0351e-05
1.0351e-05
1.0351e-05
1.0351e-05
1.0351e-05
1.0351e-05
1.0351e-05
1.0351e-05
1.0351e-05
1.0351e-05
1.0351e-05
1.0351e-05
1.0351e-05
1.0351e-05
1.0351e-05
1.0351e-05
1.0351e-05
1.0351e-05
1.0351e-05
1.0351e-05
1.0351e-05
1.0351e-05
1.0351e-05
1.0351e-05
1.0351e-05
1.0351e-05
1.0351e-05
1.0351e-05
1.0351e-05
1.0351e-05
1.0351e-05
1.0351e-05
1.0351e-05
1.0351e-05
1.0351e-05
1.0351e-05
1.0351e-05
1.0351e-05
1.0351e-05
1.0351e-05
1.0351e-05
1.0351e-05
1.0351e-05
1.0351e-05
1.0351e-05
1.0351e-05
1.0351e-05
1.0351e-05
1.0351e-05
1.0351e-05
1.0351e-05
1.0351e-05
1.0351e-05
1.0351e-05
1.0351e-05
1.0351e-05
1.0351e-05
1.0351e-05
1.0351e-05
1.0351e-05
1.0351e-05
1.0351e-05
1.0351e-05
1.0351e-05
1.0351e-05
1.0351e-05
1.0351e-05
1.0351e-05
1.0351e-05
1.0351e-05
1.0351e-05
1.0351e-05
1.0351e-05
1.0351e-05
1.0351e-05
1.0351e-05
1.0351e-05
1.0351e-05
1.0351e-05
1.0351e-05
1.0351e-05
1.0351e-05
1.0351e-05
1.0351e-05
1.0351e-05
1.0351e-05
1.0351e-05
1.0351e-05
1.0351e-05
1.0351e-05
1.0351e-05
1.0351e-05
1.0351e-05
1.0351e-05
1.0351e-05
1.0351e-05
1.0351e-05
1.0351e-05
1.0351e-05
1.0351e-05
1.0351e-05
1.0351e-05
1.0351e-05
1.0351e-05
1.0351e-05
1.0351e-05
1.0351e-05
1.0351e-05
1.0351e-05
1.0351e-05
1.0351e-05
1.03511e-05
1.03511e-05
1.03511e-05
1.03511e-05
1.03511e-05
1.03511e-05
1.03511e-05
1.03511e-05
1.03511e-05
1.03511e-05
1.03511e-05
1.03511e-05
1.03511e-05
1.03511e-05
1.03511e-05
1.03511e-05
1.03511e-05
1.03511e-05
1.03511e-05
1.03511e-05
1.03511e-05
1.03511e-05
1.03511e-05
1.03511e-05
1.03511e-05
1.03511e-05
1.03511e-05
1.03512e-05
1.03512e-05
1.03512e-05
1.03512e-05
1.03512e-05
1.03512e-05
1.03512e-05
1.03512e-05
1.03512e-05
1.03512e-05
1.03512e-05
1.03513e-05
1.03513e-05
1.03513e-05
1.03513e-05
1.03513e-05
1.03513e-05
1.03513e-05
1.03513e-05
1.03514e-05
1.03514e-05
1.03514e-05
1.03514e-05
1.03514e-05
1.03515e-05
1.03514e-05
1.0351e-05
1.0351e-05
1.0351e-05
1.0351e-05
1.0351e-05
1.0351e-05
1.0351e-05
1.0351e-05
1.0351e-05
1.0351e-05
1.0351e-05
1.0351e-05
1.0351e-05
1.0351e-05
1.0351e-05
1.0351e-05
1.0351e-05
1.0351e-05
1.0351e-05
1.0351e-05
1.0351e-05
1.0351e-05
1.0351e-05
1.0351e-05
1.0351e-05
1.0351e-05
1.0351e-05
1.0351e-05
1.0351e-05
1.0351e-05
1.0351e-05
1.0351e-05
1.0351e-05
1.0351e-05
1.0351e-05
1.0351e-05
1.0351e-05
1.0351e-05
1.0351e-05
1.0351e-05
1.0351e-05
1.0351e-05
1.0351e-05
1.0351e-05
1.0351e-05
1.0351e-05
1.0351e-05
1.0351e-05
1.0351e-05
1.0351e-05
1.0351e-05
1.0351e-05
1.0351e-05
1.0351e-05
1.0351e-05
1.0351e-05
1.0351e-05
1.0351e-05
1.0351e-05
1.0351e-05
1.0351e-05
1.0351e-05
1.0351e-05
1.0351e-05
1.0351e-05
1.0351e-05
1.0351e-05
1.0351e-05
1.0351e-05
1.0351e-05
1.0351e-05
1.0351e-05
1.0351e-05
1.0351e-05
1.0351e-05
1.0351e-05
1.0351e-05
1.0351e-05
1.0351e-05
1.0351e-05
1.0351e-05
1.0351e-05
1.0351e-05
1.0351e-05
1.0351e-05
1.0351e-05
1.0351e-05
1.0351e-05
1.0351e-05
1.0351e-05
1.0351e-05
1.0351e-05
1.0351e-05
1.0351e-05
1.0351e-05
1.0351e-05
1.0351e-05
1.0351e-05
1.0351e-05
1.0351e-05
1.0351e-05
1.0351e-05
1.0351e-05
1.0351e-05
1.0351e-05
1.0351e-05
1.03511e-05
1.03511e-05
1.03511e-05
1.03511e-05
1.03511e-05
1.03511e-05
1.03511e-05
1.03511e-05
1.03511e-05
1.03511e-05
1.03511e-05
1.03511e-05
1.03511e-05
1.03511e-05
1.03511e-05
1.03511e-05
1.03511e-05
1.03511e-05
1.03511e-05
1.03511e-05
1.03511e-05
1.03511e-05
1.03511e-05
1.03511e-05
1.03511e-05
1.03512e-05
1.03512e-05
1.03512e-05
1.03512e-05
1.03512e-05
1.03512e-05
1.03512e-05
1.03512e-05
1.03512e-05
1.03512e-05
1.03512e-05
1.03512e-05
1.03513e-05
1.03513e-05
1.03513e-05
1.03513e-05
1.03513e-05
1.03513e-05
1.03513e-05
1.03514e-05
1.03514e-05
1.03514e-05
1.03514e-05
1.03514e-05
1.03514e-05
1.03515e-05
1.03515e-05
1.03515e-05
1.03515e-05
1.03516e-05
1.03516e-05
1.03516e-05
1.03517e-05
1.03517e-05
1.03517e-05
1.03518e-05
1.03518e-05
1.03518e-05
1.03519e-05
1.03519e-05
1.0352e-05
1.0352e-05
1.0352e-05
1.03521e-05
1.03521e-05
1.03522e-05
1.03522e-05
1.03523e-05
1.03523e-05
1.03524e-05
1.03525e-05
1.03525e-05
1.03526e-05
1.03527e-05
1.03527e-05
1.03528e-05
1.03529e-05
1.0353e-05
1.03531e-05
1.03532e-05
1.03533e-05
1.03534e-05
1.03535e-05
1.03536e-05
1.03537e-05
1.03538e-05
1.0354e-05
1.03541e-05
1.03543e-05
1.03544e-05
1.03546e-05
1.03548e-05
1.03549e-05
1.03551e-05
1.03553e-05
1.03555e-05
1.03557e-05
1.03555e-05
1.0351e-05
1.0351e-05
1.0351e-05
1.0351e-05
1.0351e-05
1.0351e-05
1.0351e-05
1.0351e-05
1.0351e-05
1.0351e-05
1.0351e-05
1.0351e-05
1.0351e-05
1.0351e-05
1.0351e-05
1.0351e-05
1.0351e-05
1.0351e-05
1.0351e-05
1.0351e-05
1.0351e-05
1.0351e-05
1.0351e-05
1.0351e-05
1.0351e-05
1.0351e-05
1.0351e-05
1.0351e-05
1.0351e-05
1.0351e-05
1.0351e-05
1.0351e-05
1.0351e-05
1.0351e-05
1.0351e-05
1.0351e-05
1.0351e-05
1.0351e-05
1.0351e-05
1.0351e-05
1.0351e-05
1.0351e-05
1.0351e-05
1.0351e-05
1.0351e-05
1.0351e-05
1.0351e-05
1.0351e-05
1.0351e-05
1.0351e-05
1.0351e-05
1.0351e-05
1.0351e-05
1.0351e-05
1.0351e-05
1.0351e-05
1.0351e-05
1.0351e-05
1.0351e-05
1.0351e-05
1.0351e-05
1.0351e-05
1.0351e-05
1.03511e-05
1.03511e-05
1.03511e-05
1.03511e-05
1.03511e-05
1.03511e-05
1.03511e-05
1.03511e-05
1.03511e-05
1.03511e-05
1.03511e-05
1.03511e-05
1.03511e-05
1.03511e-05
1.03511e-05
1.03511e-05
1.03511e-05
1.03511e-05
1.03511e-05
1.03511e-05
1.03511e-05
1.03511e-05
1.03511e-05
1.03511e-05
1.03512e-05
1.03512e-05
1.03512e-05
1.03512e-05
1.03512e-05
1.03512e-05
1.03512e-05
1.03512e-05
1.03512e-05
1.03512e-05
1.03512e-05
1.03513e-05
1.03513e-05
1.03513e-05
1.03513e-05
1.03513e-05
1.03513e-05
1.03513e-05
1.03514e-05
1.03514e-05
1.03514e-05
1.03514e-05
1.03514e-05
1.03514e-05
1.03515e-05
1.03515e-05
1.03515e-05
1.03515e-05
1.03516e-05
1.03516e-05
1.03516e-05
1.03517e-05
1.03517e-05
1.03517e-05
1.03518e-05
1.03518e-05
1.03518e-05
1.03519e-05
1.03519e-05
1.0352e-05
1.0352e-05
1.03521e-05
1.03521e-05
1.03522e-05
1.03522e-05
1.03523e-05
1.03524e-05
1.03524e-05
1.03525e-05
1.03526e-05
1.03527e-05
1.03527e-05
1.03528e-05
1.03529e-05
1.0353e-05
1.03531e-05
1.03532e-05
1.03533e-05
1.03534e-05
1.03535e-05
1.03536e-05
1.03538e-05
1.03539e-05
1.0354e-05
1.03542e-05
1.03543e-05
1.03545e-05
1.03547e-05
1.03548e-05
1.0355e-05
1.03552e-05
1.03554e-05
1.03557e-05
1.03559e-05
1.03561e-05
1.03564e-05
1.03567e-05
1.03569e-05
1.03572e-05
1.03576e-05
1.03579e-05
1.03582e-05
1.03586e-05
1.0359e-05
1.03593e-05
1.03598e-05
1.03602e-05
1.03606e-05
1.03611e-05
1.03615e-05
1.0362e-05
1.03626e-05
1.03631e-05
1.03637e-05
1.03642e-05
1.03648e-05
1.03655e-05
1.03661e-05
1.03668e-05
1.03676e-05
1.03683e-05
1.03691e-05
1.037e-05
1.03709e-05
1.03718e-05
1.03728e-05
1.03739e-05
1.0375e-05
1.03762e-05
1.03774e-05
1.03788e-05
1.03802e-05
1.03817e-05
1.03833e-05
1.03849e-05
1.03867e-05
1.03886e-05
1.03906e-05
1.03927e-05
1.03949e-05
1.03979e-05
1.03967e-05
1.0351e-05
1.0351e-05
1.0351e-05
1.0351e-05
1.0351e-05
1.0351e-05
1.0351e-05
1.0351e-05
1.0351e-05
1.0351e-05
1.0351e-05
1.0351e-05
1.0351e-05
1.0351e-05
1.0351e-05
1.0351e-05
1.0351e-05
1.0351e-05
1.0351e-05
1.0351e-05
1.0351e-05
1.0351e-05
1.03511e-05
1.03511e-05
1.03511e-05
1.03511e-05
1.03511e-05
1.03511e-05
1.03511e-05
1.03511e-05
1.03511e-05
1.03511e-05
1.03511e-05
1.03511e-05
1.03511e-05
1.03511e-05
1.03511e-05
1.03511e-05
1.03511e-05
1.03511e-05
1.03511e-05
1.03511e-05
1.03511e-05
1.03511e-05
1.03511e-05
1.03512e-05
1.03512e-05
1.03512e-05
1.03512e-05
1.03512e-05
1.03512e-05
1.03512e-05
1.03512e-05
1.03512e-05
1.03512e-05
1.03512e-05
1.03513e-05
1.03513e-05
1.03513e-05
1.03513e-05
1.03513e-05
1.03513e-05
1.03513e-05
1.03514e-05
1.03514e-05
1.03514e-05
1.03514e-05
1.03514e-05
1.03514e-05
1.03515e-05
1.03515e-05
1.03515e-05
1.03515e-05
1.03516e-05
1.03516e-05
1.03516e-05
1.03517e-05
1.03517e-05
1.03517e-05
1.03518e-05
1.03518e-05
1.03518e-05
1.03519e-05
1.03519e-05
1.0352e-05
1.0352e-05
1.03521e-05
1.03521e-05
1.03522e-05
1.03522e-05
1.03523e-05
1.03524e-05
1.03524e-05
1.03525e-05
1.03526e-05
1.03527e-05
1.03528e-05
1.03529e-05
1.0353e-05
1.03531e-05
1.03532e-05
1.03533e-05
1.03534e-05
1.03535e-05
1.03536e-05
1.03538e-05
1.03539e-05
1.03541e-05
1.03542e-05
1.03544e-05
1.03546e-05
1.03547e-05
1.03549e-05
1.03551e-05
1.03553e-05
1.03555e-05
1.03558e-05
1.0356e-05
1.03563e-05
1.03565e-05
1.03568e-05
1.03571e-05
1.03574e-05
1.03577e-05
1.03581e-05
1.03584e-05
1.03588e-05
1.03592e-05
1.03597e-05
1.03601e-05
1.03606e-05
1.03611e-05
1.03616e-05
1.03622e-05
1.03628e-05
1.03634e-05
1.0364e-05
1.03647e-05
1.03654e-05
1.03661e-05
1.03669e-05
1.03677e-05
1.03685e-05
1.03694e-05
1.03703e-05
1.03713e-05
1.03723e-05
1.03733e-05
1.03744e-05
1.03756e-05
1.03768e-05
1.03781e-05
1.03794e-05
1.03808e-05
1.03823e-05
1.03839e-05
1.03856e-05
1.03874e-05
1.03893e-05
1.03913e-05
1.03934e-05
1.03957e-05
1.03981e-05
1.04006e-05
1.04033e-05
1.04062e-05
1.04093e-05
1.04125e-05
1.04159e-05
1.04195e-05
1.04233e-05
1.04274e-05
1.04316e-05
1.04361e-05
1.04408e-05
1.04457e-05
1.04509e-05
1.04563e-05
1.04619e-05
1.04677e-05
1.04737e-05
1.048e-05
1.04865e-05
1.04931e-05
1.05e-05
1.05071e-05
1.05145e-05
1.0522e-05
1.05298e-05
1.05379e-05
1.05462e-05
1.05549e-05
1.0564e-05
1.05734e-05
1.05832e-05
1.05936e-05
1.06045e-05
1.06161e-05
1.06283e-05
1.06412e-05
1.06551e-05
1.06697e-05
1.06855e-05
1.07022e-05
1.07202e-05
1.0739e-05
1.07658e-05
1.0762e-05
1.0351e-05
1.0351e-05
1.0351e-05
1.0351e-05
1.0351e-05
1.0351e-05
1.0351e-05
1.0351e-05
1.0351e-05
1.0351e-05
1.0351e-05
1.0351e-05
1.0351e-05
1.0351e-05
1.0351e-05
1.0351e-05
1.03512e-05
1.03512e-05
1.03512e-05
1.03512e-05
1.03513e-05
1.03513e-05
1.03513e-05
1.03513e-05
1.03513e-05
1.03513e-05
1.03513e-05
1.03514e-05
1.03514e-05
1.03514e-05
1.03514e-05
1.03514e-05
1.03515e-05
1.03515e-05
1.03515e-05
1.03515e-05
1.03516e-05
1.03516e-05
1.03516e-05
1.03517e-05
1.03517e-05
1.03517e-05
1.03518e-05
1.03518e-05
1.03518e-05
1.03519e-05
1.03519e-05
1.0352e-05
1.0352e-05
1.03521e-05
1.03521e-05
1.03522e-05
1.03523e-05
1.03523e-05
1.03524e-05
1.03525e-05
1.03525e-05
1.03526e-05
1.03527e-05
1.03528e-05
1.03529e-05
1.0353e-05
1.03531e-05
1.03532e-05
1.03533e-05
1.03534e-05
1.03535e-05
1.03537e-05
1.03538e-05
1.0354e-05
1.03541e-05
1.03543e-05
1.03545e-05
1.03547e-05
1.03548e-05
1.03551e-05
1.03553e-05
1.03555e-05
1.03557e-05
1.0356e-05
1.03562e-05
1.03565e-05
1.03568e-05
1.03571e-05
1.03574e-05
1.03578e-05
1.03581e-05
1.03585e-05
1.03589e-05
1.03593e-05
1.03597e-05
1.03601e-05
1.03606e-05
1.03611e-05
1.03617e-05
1.03622e-05
1.03628e-05
1.03635e-05
1.03641e-05
1.03648e-05
1.03656e-05
1.03664e-05
1.03672e-05
1.03681e-05
1.0369e-05
1.03699e-05
1.0371e-05
1.0372e-05
1.03732e-05
1.03744e-05
1.03756e-05
1.03769e-05
1.03783e-05
1.03797e-05
1.03812e-05
1.03828e-05
1.03844e-05
1.03861e-05
1.03879e-05
1.03899e-05
1.03919e-05
1.0394e-05
1.03962e-05
1.03986e-05
1.04011e-05
1.04037e-05
1.04065e-05
1.04095e-05
1.04127e-05
1.0416e-05
1.04196e-05
1.04234e-05
1.04275e-05
1.04318e-05
1.04364e-05
1.04413e-05
1.04464e-05
1.04519e-05
1.04577e-05
1.04639e-05
1.04704e-05
1.04772e-05
1.04844e-05
1.0492e-05
1.04999e-05
1.05082e-05
1.05168e-05
1.05259e-05
1.05353e-05
1.0545e-05
1.05552e-05
1.05657e-05
1.05766e-05
1.05879e-05
1.05996e-05
1.06118e-05
1.06245e-05
1.06376e-05
1.06514e-05
1.06658e-05
1.0681e-05
1.06969e-05
1.07137e-05
1.07314e-05
1.07503e-05
1.07704e-05
1.07917e-05
1.08145e-05
1.08388e-05
1.08649e-05
1.08927e-05
1.09225e-05
1.09544e-05
1.09885e-05
1.1025e-05
1.10638e-05
1.11051e-05
1.1149e-05
1.11955e-05
1.12446e-05
1.12963e-05
1.13506e-05
1.14074e-05
1.14665e-05
1.15278e-05
1.15912e-05
1.16565e-05
1.17234e-05
1.17917e-05
1.18614e-05
1.19321e-05
1.20037e-05
1.20762e-05
1.21494e-05
1.22233e-05
1.2298e-05
1.23735e-05
1.24502e-05
1.25279e-05
1.26074e-05
1.26885e-05
1.27724e-05
1.28586e-05
1.2949e-05
1.30423e-05
1.3142e-05
1.32441e-05
1.33726e-05
1.33914e-05
1.03511e-05
1.03511e-05
1.03511e-05
1.03511e-05
1.03511e-05
1.03511e-05
1.03511e-05
1.03511e-05
1.03511e-05
1.03511e-05
1.03511e-05
1.03511e-05
1.03511e-05
1.03522e-05
1.03523e-05
1.03524e-05
1.03524e-05
1.03525e-05
1.03526e-05
1.03527e-05
1.03528e-05
1.03529e-05
1.0353e-05
1.03531e-05
1.03532e-05
1.03533e-05
1.03534e-05
1.03535e-05
1.03536e-05
1.03538e-05
1.03539e-05
1.03541e-05
1.03543e-05
1.03544e-05
1.03546e-05
1.03548e-05
1.0355e-05
1.03552e-05
1.03555e-05
1.03557e-05
1.03559e-05
1.03562e-05
1.03565e-05
1.03568e-05
1.03571e-05
1.03574e-05
1.03578e-05
1.03582e-05
1.03585e-05
1.03589e-05
1.03594e-05
1.03598e-05
1.03603e-05
1.03608e-05
1.03613e-05
1.03619e-05
1.03624e-05
1.03631e-05
1.03637e-05
1.03644e-05
1.03651e-05
1.03659e-05
1.03667e-05
1.03675e-05
1.03684e-05
1.03693e-05
1.03703e-05
1.03714e-05
1.03725e-05
1.03737e-05
1.0375e-05
1.03763e-05
1.03777e-05
1.03792e-05
1.03807e-05
1.03824e-05
1.03841e-05
1.03859e-05
1.03878e-05
1.03898e-05
1.03919e-05
1.03942e-05
1.03965e-05
1.0399e-05
1.04015e-05
1.04043e-05
1.04071e-05
1.04101e-05
1.04133e-05
1.04166e-05
1.04202e-05
1.04239e-05
1.04279e-05
1.04321e-05
1.04366e-05
1.04413e-05
1.04464e-05
1.04517e-05
1.04574e-05
1.04635e-05
1.047e-05
1.04769e-05
1.04842e-05
1.0492e-05
1.05002e-05
1.05089e-05
1.05182e-05
1.05279e-05
1.05382e-05
1.05491e-05
1.05605e-05
1.05724e-05
1.05849e-05
1.0598e-05
1.06116e-05
1.06259e-05
1.06407e-05
1.06561e-05
1.06722e-05
1.06889e-05
1.07062e-05
1.07244e-05
1.07433e-05
1.0763e-05
1.07838e-05
1.08056e-05
1.08286e-05
1.08528e-05
1.08786e-05
1.09059e-05
1.0935e-05
1.0966e-05
1.09991e-05
1.10344e-05
1.10723e-05
1.11127e-05
1.1156e-05
1.12022e-05
1.12514e-05
1.13039e-05
1.13596e-05
1.14187e-05
1.14812e-05
1.1547e-05
1.16162e-05
1.16886e-05
1.17641e-05
1.18425e-05
1.19236e-05
1.20072e-05
1.2093e-05
1.21808e-05
1.22704e-05
1.23614e-05
1.24538e-05
1.25476e-05
1.26425e-05
1.27388e-05
1.28365e-05
1.29358e-05
1.30371e-05
1.31407e-05
1.32473e-05
1.33575e-05
1.34719e-05
1.35914e-05
1.3717e-05
1.38496e-05
1.39904e-05
1.41405e-05
1.4301e-05
1.44733e-05
1.46587e-05
1.48584e-05
1.50737e-05
1.53059e-05
1.55559e-05
1.58247e-05
1.61128e-05
1.64204e-05
1.67471e-05
1.70924e-05
1.7455e-05
1.7833e-05
1.82245e-05
1.86268e-05
1.9037e-05
1.94523e-05
1.98701e-05
2.02872e-05
2.07014e-05
2.11094e-05
2.15101e-05
2.18998e-05
2.2279e-05
2.26434e-05
2.29959e-05
2.33307e-05
2.36538e-05
2.39568e-05
2.42508e-05
2.45216e-05
2.4789e-05
2.5026e-05
2.53019e-05
2.54278e-05
1.03513e-05
1.03513e-05
1.03513e-05
1.03513e-05
1.03513e-05
1.03513e-05
1.03513e-05
1.03513e-05
1.03513e-05
1.03513e-05
1.03513e-05
1.03512e-05
1.03512e-05
1.03581e-05
1.03585e-05
1.03589e-05
1.03594e-05
1.03598e-05
1.03603e-05
1.03608e-05
1.03613e-05
1.03619e-05
1.03625e-05
1.03631e-05
1.03638e-05
1.03645e-05
1.03652e-05
1.0366e-05
1.03668e-05
1.03677e-05
1.03686e-05
1.03696e-05
1.03706e-05
1.03716e-05
1.03728e-05
1.0374e-05
1.03752e-05
1.03765e-05
1.0378e-05
1.03795e-05
1.0381e-05
1.03827e-05
1.03845e-05
1.03864e-05
1.03883e-05
1.03904e-05
1.03927e-05
1.0395e-05
1.03975e-05
1.04001e-05
1.04028e-05
1.04057e-05
1.04088e-05
1.0412e-05
1.04154e-05
1.04189e-05
1.04227e-05
1.04267e-05
1.04308e-05
1.04352e-05
1.04399e-05
1.04448e-05
1.04499e-05
1.04554e-05
1.04612e-05
1.04674e-05
1.04739e-05
1.04809e-05
1.04883e-05
1.04961e-05
1.05045e-05
1.05134e-05
1.05228e-05
1.05329e-05
1.05436e-05
1.05549e-05
1.05669e-05
1.05797e-05
1.05931e-05
1.06074e-05
1.06224e-05
1.06382e-05
1.06548e-05
1.06723e-05
1.06905e-05
1.07097e-05
1.07297e-05
1.07505e-05
1.07723e-05
1.07951e-05
1.08188e-05
1.08436e-05
1.08696e-05
1.08967e-05
1.09252e-05
1.09552e-05
1.09867e-05
1.102e-05
1.10553e-05
1.10927e-05
1.11325e-05
1.11748e-05
1.12199e-05
1.1268e-05
1.13194e-05
1.13741e-05
1.14324e-05
1.14945e-05
1.15605e-05
1.16305e-05
1.17046e-05
1.17828e-05
1.18651e-05
1.19515e-05
1.20417e-05
1.21356e-05
1.2233e-05
1.23337e-05
1.24373e-05
1.25436e-05
1.26522e-05
1.27631e-05
1.28759e-05
1.29906e-05
1.31071e-05
1.32256e-05
1.33463e-05
1.34694e-05
1.35955e-05
1.3725e-05
1.38587e-05
1.39973e-05
1.41418e-05
1.42932e-05
1.44527e-05
1.46215e-05
1.48007e-05
1.49919e-05
1.51962e-05
1.54151e-05
1.56499e-05
1.59018e-05
1.61718e-05
1.64609e-05
1.67694e-05
1.70975e-05
1.74449e-05
1.78108e-05
1.81937e-05
1.85917e-05
1.90025e-05
1.94232e-05
1.98507e-05
2.02815e-05
2.07123e-05
2.11401e-05
2.15621e-05
2.19757e-05
2.23784e-05
2.27683e-05
2.31437e-05
2.35034e-05
2.38467e-05
2.4173e-05
2.44825e-05
2.47754e-05
2.50525e-05
2.53143e-05
2.5562e-05
2.57964e-05
2.60189e-05
2.62305e-05
2.64325e-05
2.66262e-05
2.68125e-05
2.69927e-05
2.71677e-05
2.73385e-05
2.75056e-05
2.76698e-05
2.78314e-05
2.79908e-05
2.81483e-05
2.8304e-05
2.84582e-05
2.86112e-05
2.87647e-05
2.89336e-05
2.9108e-05
2.92786e-05
2.94462e-05
2.96104e-05
2.97697e-05
2.99244e-05
3.0075e-05
3.0222e-05
3.03661e-05
3.05078e-05
3.06485e-05
3.07885e-05
3.09284e-05
3.10682e-05
3.12101e-05
3.13473e-05
3.15136e-05
3.15962e-05
1.03522e-05
1.03522e-05
1.03522e-05
1.03522e-05
1.03522e-05
1.03522e-05
1.03522e-05
1.03522e-05
1.03522e-05
1.03522e-05
1.03522e-05
1.03521e-05
1.03521e-05
1.03521e-05
1.03914e-05
1.03936e-05
1.0396e-05
1.03986e-05
1.04012e-05
1.04041e-05
1.04071e-05
1.04102e-05
1.04136e-05
1.04172e-05
1.04209e-05
1.04249e-05
1.04291e-05
1.04335e-05
1.04381e-05
1.0443e-05
1.04482e-05
1.04537e-05
1.04594e-05
1.04655e-05
1.04719e-05
1.04787e-05
1.04859e-05
1.04935e-05
1.05015e-05
1.051e-05
1.0519e-05
1.05286e-05
1.05388e-05
1.05496e-05
1.05611e-05
1.05733e-05
1.05862e-05
1.06e-05
1.06147e-05
1.06302e-05
1.06467e-05
1.06642e-05
1.06826e-05
1.07021e-05
1.07227e-05
1.07444e-05
1.07673e-05
1.07913e-05
1.08164e-05
1.08428e-05
1.08704e-05
1.08993e-05
1.09296e-05
1.09612e-05
1.09943e-05
1.10289e-05
1.10653e-05
1.11034e-05
1.11435e-05
1.11857e-05
1.12303e-05
1.12774e-05
1.13272e-05
1.13801e-05
1.14363e-05
1.1496e-05
1.15595e-05
1.16269e-05
1.16986e-05
1.17747e-05
1.18554e-05
1.19408e-05
1.2031e-05
1.2126e-05
1.22258e-05
1.23302e-05
1.24392e-05
1.25526e-05
1.26701e-05
1.27914e-05
1.29162e-05
1.30443e-05
1.31753e-05
1.33091e-05
1.34455e-05
1.35845e-05
1.37261e-05
1.38706e-05
1.40182e-05
1.41694e-05
1.4325e-05
1.44856e-05
1.46521e-05
1.48255e-05
1.50069e-05
1.51976e-05
1.53988e-05
1.56119e-05
1.58381e-05
1.60788e-05
1.63352e-05
1.66085e-05
1.68995e-05
1.72088e-05
1.75367e-05
1.78831e-05
1.82474e-05
1.86286e-05
1.90248e-05
1.94341e-05
1.98538e-05
2.02809e-05
2.07123e-05
2.11445e-05
2.15741e-05
2.19981e-05
2.24134e-05
2.28181e-05
2.32102e-05
2.35879e-05
2.39502e-05
2.4296e-05
2.46249e-05
2.49368e-05
2.52319e-05
2.55106e-05
2.57739e-05
2.60226e-05
2.6258e-05
2.64811e-05
2.66934e-05
2.68959e-05
2.70899e-05
2.72766e-05
2.74568e-05
2.76314e-05
2.78011e-05
2.79663e-05
2.81274e-05
2.82847e-05
2.84384e-05
2.85886e-05
2.87355e-05
2.88795e-05
2.90209e-05
2.91615e-05
2.93161e-05
2.94732e-05
2.96261e-05
2.9776e-05
2.99219e-05
3.00632e-05
3.02005e-05
3.03347e-05
3.04662e-05
3.05964e-05
3.07262e-05
3.08561e-05
3.09866e-05
3.1118e-05
3.12507e-05
3.1385e-05
3.15209e-05
3.16587e-05
3.17982e-05
3.19394e-05
3.20821e-05
3.22264e-05
3.2372e-05
3.25189e-05
3.26668e-05
3.28157e-05
3.29655e-05
3.3116e-05
3.32672e-05
3.34191e-05
3.35713e-05
3.37228e-05
3.38604e-05
3.39858e-05
3.41066e-05
3.42225e-05
3.43355e-05
3.44509e-05
3.45693e-05
3.46906e-05
3.48149e-05
3.49424e-05
3.50732e-05
3.52071e-05
3.53444e-05
3.54842e-05
3.56278e-05
3.57738e-05
3.59185e-05
3.60988e-05
3.61743e-05
1.03565e-05
1.03565e-05
1.03566e-05
1.03566e-05
1.03566e-05
1.03566e-05
1.03565e-05
1.03565e-05
1.03564e-05
1.03563e-05
1.03562e-05
1.03561e-05
1.0356e-05
1.03559e-05
1.05733e-05
1.0586e-05
1.05995e-05
1.06137e-05
1.06289e-05
1.06449e-05
1.0662e-05
1.06801e-05
1.06994e-05
1.07198e-05
1.07414e-05
1.07643e-05
1.07885e-05
1.08142e-05
1.08412e-05
1.08697e-05
1.08997e-05
1.09313e-05
1.09644e-05
1.09992e-05
1.10356e-05
1.10739e-05
1.11139e-05
1.11558e-05
1.11997e-05
1.12458e-05
1.12941e-05
1.13448e-05
1.13981e-05
1.14543e-05
1.15135e-05
1.1576e-05
1.16421e-05
1.1712e-05
1.1786e-05
1.18644e-05
1.19475e-05
1.20354e-05
1.21284e-05
1.22266e-05
1.23301e-05
1.24391e-05
1.25534e-05
1.26732e-05
1.27981e-05
1.29282e-05
1.30631e-05
1.32026e-05
1.33464e-05
1.34942e-05
1.36458e-05
1.38009e-05
1.39594e-05
1.41212e-05
1.42863e-05
1.4455e-05
1.46276e-05
1.48046e-05
1.49866e-05
1.51744e-05
1.53689e-05
1.55712e-05
1.57824e-05
1.60036e-05
1.62361e-05
1.64811e-05
1.67398e-05
1.70133e-05
1.73026e-05
1.76083e-05
1.79311e-05
1.82709e-05
1.86274e-05
1.90001e-05
1.93876e-05
1.97883e-05
2.02e-05
2.06201e-05
2.10457e-05
2.14737e-05
2.19008e-05
2.23237e-05
2.27395e-05
2.31453e-05
2.35388e-05
2.39182e-05
2.42826e-05
2.46311e-05
2.49629e-05
2.5278e-05
2.55763e-05
2.58583e-05
2.61246e-05
2.63761e-05
2.66139e-05
2.68391e-05
2.70528e-05
2.72563e-05
2.74507e-05
2.76368e-05
2.78155e-05
2.79874e-05
2.81533e-05
2.83133e-05
2.84679e-05
2.86172e-05
2.87615e-05
2.89009e-05
2.9036e-05
2.91669e-05
2.92945e-05
2.94195e-05
2.95483e-05
2.96885e-05
2.98253e-05
2.99592e-05
3.00908e-05
3.02189e-05
3.0344e-05
3.04668e-05
3.05879e-05
3.07086e-05
3.08297e-05
3.09515e-05
3.10743e-05
3.11985e-05
3.13242e-05
3.14515e-05
3.15805e-05
3.17109e-05
3.18429e-05
3.19761e-05
3.21106e-05
3.2246e-05
3.23825e-05
3.25197e-05
3.26576e-05
3.2796e-05
3.2935e-05
3.30745e-05
3.32145e-05
3.33539e-05
3.34787e-05
3.35931e-05
3.37034e-05
3.38092e-05
3.39146e-05
3.4023e-05
3.41346e-05
3.42494e-05
3.43674e-05
3.44889e-05
3.46136e-05
3.47416e-05
3.48726e-05
3.50065e-05
3.51431e-05
3.52821e-05
3.54235e-05
3.55668e-05
3.57119e-05
3.58584e-05
3.60061e-05
3.61547e-05
3.6304e-05
3.64536e-05
3.66032e-05
3.67526e-05
3.69014e-05
3.70492e-05
3.71958e-05
3.73405e-05
3.74832e-05
3.76233e-05
3.77628e-05
3.79063e-05
3.80551e-05
3.82099e-05
3.83697e-05
3.85314e-05
3.86948e-05
3.88599e-05
3.90269e-05
3.91954e-05
3.93658e-05
3.95371e-05
3.97106e-05
3.98838e-05
4.00602e-05
4.02349e-05
4.04093e-05
4.06312e-05
4.06209e-05
1.03758e-05
1.0376e-05
1.03761e-05
1.03761e-05
1.03761e-05
1.03759e-05
1.03757e-05
1.03754e-05
1.03751e-05
1.03747e-05
1.03742e-05
1.03737e-05
1.03731e-05
1.03725e-05
1.15e-05
1.15616e-05
1.16263e-05
1.16943e-05
1.17658e-05
1.1841e-05
1.19203e-05
1.20038e-05
1.20919e-05
1.21849e-05
1.22829e-05
1.23864e-05
1.24953e-05
1.261e-05
1.27305e-05
1.28569e-05
1.29892e-05
1.31273e-05
1.32711e-05
1.34205e-05
1.35753e-05
1.37352e-05
1.38999e-05
1.40691e-05
1.42427e-05
1.44204e-05
1.46021e-05
1.47878e-05
1.49776e-05
1.51717e-05
1.53705e-05
1.55746e-05
1.57844e-05
1.6001e-05
1.62252e-05
1.64581e-05
1.67006e-05
1.69538e-05
1.72189e-05
1.74967e-05
1.77882e-05
1.80942e-05
1.8415e-05
1.87509e-05
1.91017e-05
1.9467e-05
1.98457e-05
2.02366e-05
2.06378e-05
2.10471e-05
2.14621e-05
2.188e-05
2.22978e-05
2.27125e-05
2.31213e-05
2.35212e-05
2.391e-05
2.42855e-05
2.46461e-05
2.4991e-05
2.53198e-05
2.56324e-05
2.59288e-05
2.62093e-05
2.64744e-05
2.67248e-05
2.69615e-05
2.71854e-05
2.73975e-05
2.75988e-05
2.77904e-05
2.7973e-05
2.81473e-05
2.8314e-05
2.84734e-05
2.8626e-05
2.87721e-05
2.89118e-05
2.90456e-05
2.91738e-05
2.92969e-05
2.94155e-05
2.95305e-05
2.96426e-05
2.97534e-05
2.98755e-05
2.99986e-05
3.01191e-05
3.02384e-05
3.03557e-05
3.04709e-05
3.05843e-05
3.06968e-05
3.08093e-05
3.09226e-05
3.10369e-05
3.11522e-05
3.12688e-05
3.13868e-05
3.15061e-05
3.16266e-05
3.17482e-05
3.18707e-05
3.19942e-05
3.21183e-05
3.22431e-05
3.23684e-05
3.24942e-05
3.26205e-05
3.27472e-05
3.28743e-05
3.30019e-05
3.31247e-05
3.32322e-05
3.33355e-05
3.34354e-05
3.35329e-05
3.36329e-05
3.37362e-05
3.38428e-05
3.39526e-05
3.40657e-05
3.41821e-05
3.43014e-05
3.44236e-05
3.45484e-05
3.46757e-05
3.48052e-05
3.49366e-05
3.50697e-05
3.52043e-05
3.534e-05
3.54767e-05
3.56141e-05
3.57518e-05
3.58895e-05
3.6027e-05
3.61639e-05
3.62998e-05
3.64343e-05
3.6567e-05
3.66977e-05
3.68284e-05
3.69633e-05
3.71037e-05
3.72503e-05
3.74009e-05
3.75537e-05
3.77085e-05
3.78655e-05
3.80246e-05
3.81855e-05
3.83482e-05
3.85126e-05
3.86784e-05
3.88455e-05
3.90138e-05
3.91829e-05
3.93527e-05
3.95231e-05
3.96939e-05
3.9865e-05
4.00362e-05
4.02074e-05
4.03787e-05
4.05499e-05
4.07212e-05
4.08926e-05
4.10642e-05
4.12364e-05
4.14093e-05
4.15834e-05
4.17592e-05
4.19372e-05
4.21179e-05
4.23012e-05
4.24865e-05
4.26732e-05
4.28604e-05
4.30477e-05
4.32352e-05
4.34227e-05
4.36104e-05
4.37979e-05
4.39856e-05
4.41728e-05
4.43606e-05
4.45472e-05
4.47364e-05
4.49211e-05
4.5107e-05
4.52912e-05
4.51889e-05
1.04612e-05
1.04617e-05
1.0462e-05
1.04618e-05
1.04613e-05
1.04604e-05
1.04592e-05
1.04578e-05
1.0456e-05
1.0454e-05
1.04517e-05
1.04493e-05
1.04467e-05
1.50502e-05
1.52527e-05
1.54598e-05
1.56714e-05
1.58879e-05
1.61097e-05
1.6337e-05
1.65707e-05
1.68114e-05
1.70599e-05
1.7317e-05
1.75837e-05
1.78609e-05
1.81492e-05
1.84495e-05
1.87621e-05
1.90876e-05
1.94259e-05
1.97768e-05
2.01397e-05
2.05138e-05
2.08978e-05
2.129e-05
2.16885e-05
2.2091e-05
2.24951e-05
2.28982e-05
2.32975e-05
2.36905e-05
2.40748e-05
2.44482e-05
2.48088e-05
2.51551e-05
2.54861e-05
2.58013e-05
2.61008e-05
2.63849e-05
2.6654e-05
2.69084e-05
2.71489e-05
2.73762e-05
2.7591e-05
2.77943e-05
2.79868e-05
2.81693e-05
2.83425e-05
2.85069e-05
2.86631e-05
2.88114e-05
2.89523e-05
2.90861e-05
2.92131e-05
2.93338e-05
2.94488e-05
2.95588e-05
2.96646e-05
2.97673e-05
2.98677e-05
2.99671e-05
3.00757e-05
3.01864e-05
3.02954e-05
3.04037e-05
3.05114e-05
3.06177e-05
3.07229e-05
3.08277e-05
3.0933e-05
3.10392e-05
3.11462e-05
3.12543e-05
3.13634e-05
3.14736e-05
3.15847e-05
3.16966e-05
3.18092e-05
3.19225e-05
3.20364e-05
3.21508e-05
3.22657e-05
3.2381e-05
3.24968e-05
3.2613e-05
3.27296e-05
3.28461e-05
3.29506e-05
3.30481e-05
3.3143e-05
3.32353e-05
3.3328e-05
3.34238e-05
3.35229e-05
3.3625e-05
3.37303e-05
3.38385e-05
3.39495e-05
3.40631e-05
3.4179e-05
3.42971e-05
3.4417e-05
3.45387e-05
3.46618e-05
3.4786e-05
3.49112e-05
3.5037e-05
3.51631e-05
3.52893e-05
3.54153e-05
3.55406e-05
3.56649e-05
3.57878e-05
3.5909e-05
3.60289e-05
3.61508e-05
3.62774e-05
3.64094e-05
3.65468e-05
3.66868e-05
3.6829e-05
3.69735e-05
3.71202e-05
3.72691e-05
3.74199e-05
3.75725e-05
3.77267e-05
3.78825e-05
3.80396e-05
3.81978e-05
3.8357e-05
3.85172e-05
3.86781e-05
3.88397e-05
3.90019e-05
3.91647e-05
3.93282e-05
3.94923e-05
3.96572e-05
3.98231e-05
3.99903e-05
4.01591e-05
4.033e-05
4.05036e-05
4.06803e-05
4.086e-05
4.10419e-05
4.12252e-05
4.14092e-05
4.15936e-05
4.17784e-05
4.19633e-05
4.21482e-05
4.23332e-05
4.2518e-05
4.27026e-05
4.28869e-05
4.30709e-05
4.32544e-05
4.34375e-05
4.36201e-05
4.38022e-05
4.3984e-05
4.41654e-05
4.43466e-05
4.45277e-05
4.47088e-05
4.489e-05
4.50715e-05
4.52534e-05
4.54358e-05
4.56187e-05
4.58022e-05
4.59863e-05
4.61708e-05
4.63555e-05
4.654e-05
4.67241e-05
4.69076e-05
4.70904e-05
4.72724e-05
4.74536e-05
4.76341e-05
4.78137e-05
4.79926e-05
4.81704e-05
4.83477e-05
4.85238e-05
4.86996e-05
4.88747e-05
4.90493e-05
4.92198e-05