/*--------------------------------*- C++ -*----------------------------------*\
| =========                 |                                                 |
| \\      /  F ield         | OpenFOAM: The Open Source CFD Toolbox           |
|  \\    /   O peration     | Version:  v1706                                 |
|   \\  /    A nd           | Web:      www.OpenFOAM.com                      |
|    \\/     M anipulation  |                                                 |
\*---------------------------------------------------------------------------*/
FoamFile
{
    version     2.0;
    format      ascii;
    class       volScalarField;
    location    "4e-06";
    object      p;
}
// * * * * * * * * * * * * * * * * * * * * * * * * * * * * * * * * * * * * * //

dimensions      [1 -1 -2 0 0 0 0];


internalField   nonuniform List<scalar> 
30104
(
21.9139
21.9139
21.9139
21.9139
21.9139
21.9139
21.9139
21.9139
21.9139
21.9139
21.9139
21.9139
21.9139
21.9139
21.9139
21.9139
21.9139
21.9139
21.9139
21.9139
21.9139
21.9139
21.9139
21.9139
21.9139
21.9139
21.9139
21.9139
21.9139
21.9139
21.9139
21.9139
21.9139
21.9139
21.9139
21.9139
21.9139
21.9139
21.9139
21.9139
21.9139
21.9139
21.9139
21.9139
21.9139
21.9139
21.9139
21.9139
21.9139
21.9139
21.9139
21.9139
21.9139
21.9139
21.9139
21.9139
21.9139
21.9139
21.9139
21.9139
21.9139
21.9139
21.9139
21.9139
21.9139
21.9139
21.9139
21.9139
21.9139
21.9139
21.9139
21.9139
21.9139
21.9139
21.9139
21.9139
21.9139
21.9139
21.9139
21.9139
21.9139
21.9139
21.9139
21.9139
21.9139
21.9139
21.9139
21.9139
21.9139
21.9139
21.9139
21.9139
21.9139
21.9139
21.9139
21.9139
21.9139
21.9139
21.9139
21.9139
21.9139
21.9139
21.9139
21.9139
21.9139
21.9139
21.9139
21.9139
21.9139
21.9139
21.9139
21.9139
21.9139
21.9139
21.9139
21.9139
21.9139
21.9139
21.9139
21.9139
21.9139
21.9139
21.9139
21.9139
21.9139
21.9139
21.9139
21.9139
21.9139
21.9139
21.9139
21.9139
21.9139
21.9139
21.9139
21.9139
21.9139
21.9139
21.9139
21.9139
21.9139
21.9139
21.9139
21.9139
21.9139
21.9139
21.9139
21.9139
21.9139
21.9139
21.9139
21.9139
21.9139
21.9139
21.9139
21.9139
21.9139
21.9139
21.9139
21.9139
21.9139
21.9139
21.9139
21.9139
21.9139
21.9139
21.9139
21.9139
21.9139
21.9139
21.9139
21.9139
21.9139
21.9139
21.9139
21.9139
21.9139
21.9139
21.9139
21.9139
21.9139
21.9139
21.9139
21.9139
21.9139
21.9139
21.9139
21.9139
21.9139
21.9139
21.9139
21.9139
21.9139
21.9139
21.9139
21.9139
21.9139
21.9139
21.9139
21.9139
21.914
21.914
21.914
21.914
21.914
21.914
21.914
21.914
21.914
21.914
21.9139
21.9139
21.9139
21.9139
21.9139
21.9139
21.9139
21.9139
21.9139
21.9139
21.9139
21.9139
21.9139
21.9139
21.9139
21.9139
21.9139
21.9139
21.9139
21.9139
21.9139
21.9139
21.9139
21.9139
21.9139
21.9139
21.9139
21.9139
21.9139
21.9139
21.9139
21.9139
21.9139
21.9139
21.9139
21.9139
21.9139
21.9139
21.9139
21.9139
21.9139
21.9139
21.9139
21.9139
21.9139
21.9139
21.9139
21.9139
21.9139
21.9139
21.9139
21.9139
21.9139
21.9139
21.9139
21.9139
21.9139
21.9139
21.9139
21.9139
21.9139
21.9139
21.9139
21.9139
21.9139
21.9139
21.9139
21.9139
21.9139
21.9139
21.9139
21.9139
21.9139
21.9139
21.9139
21.9139
21.9139
21.9139
21.9139
21.9139
21.9139
21.9139
21.9139
21.9139
21.9139
21.9139
21.9139
21.9139
21.9139
21.9139
21.9139
21.9139
21.9139
21.9139
21.9139
21.9139
21.9139
21.9139
21.9139
21.9139
21.9139
21.9139
21.9139
21.9139
21.9139
21.9139
21.9139
21.9139
21.9139
21.9139
21.9139
21.9139
21.9139
21.9139
21.9139
21.9139
21.9139
21.9139
21.9139
21.9139
21.9139
21.9139
21.9139
21.9139
21.9139
21.9139
21.9139
21.914
21.914
21.914
21.914
21.914
21.914
21.914
21.914
21.914
21.914
21.914
21.914
21.914
21.914
21.914
21.914
21.914
21.914
21.914
21.914
21.914
21.914
21.914
21.914
21.914
21.914
21.914
21.9141
21.9141
21.9141
21.9141
21.9141
21.9141
21.9141
21.9141
21.9141
21.9141
21.9141
21.9141
21.9142
21.9142
21.9142
21.9142
21.9142
21.9142
21.9142
21.9142
21.9142
21.9143
21.9143
21.9143
21.9143
21.9143
21.9143
21.9144
21.9144
21.9144
21.9144
21.9145
21.9145
21.9145
21.9145
21.9146
21.9146
21.9147
21.9147
21.9147
21.9148
21.9148
21.9149
21.9149
21.915
21.915
21.9151
21.9151
21.9152
21.9153
21.9153
21.9154
21.9155
21.9155
21.9156
21.9156
21.9139
21.9139
21.9139
21.9139
21.9139
21.9139
21.9139
21.9139
21.9139
21.9139
21.9139
21.9139
21.9139
21.9139
21.9139
21.9139
21.9139
21.9139
21.9139
21.9139
21.9139
21.9139
21.9139
21.9139
21.9139
21.9139
21.9139
21.9139
21.9139
21.9139
21.9139
21.9139
21.9139
21.9139
21.9139
21.9139
21.9139
21.9139
21.9139
21.9139
21.9139
21.9139
21.9139
21.9139
21.9139
21.9139
21.9139
21.9139
21.9139
21.9139
21.9139
21.9139
21.9139
21.9139
21.9139
21.9139
21.9139
21.9139
21.9139
21.9139
21.9139
21.9139
21.9139
21.9139
21.9139
21.9139
21.9139
21.9139
21.9139
21.9139
21.9139
21.9139
21.9139
21.9139
21.9139
21.9139
21.9139
21.9139
21.9139
21.914
21.914
21.914
21.914
21.914
21.914
21.914
21.914
21.914
21.914
21.914
21.914
21.914
21.914
21.914
21.914
21.914
21.914
21.914
21.914
21.914
21.914
21.914
21.9141
21.9141
21.9141
21.9141
21.9141
21.9141
21.9141
21.9141
21.9141
21.9141
21.9141
21.9141
21.9142
21.9142
21.9142
21.9142
21.9142
21.9142
21.9142
21.9142
21.9143
21.9143
21.9143
21.9143
21.9143
21.9143
21.9144
21.9144
21.9144
21.9144
21.9145
21.9145
21.9145
21.9145
21.9146
21.9146
21.9146
21.9146
21.9147
21.9147
21.9147
21.9148
21.9148
21.9149
21.9149
21.915
21.915
21.9151
21.9151
21.9152
21.9153
21.9153
21.9154
21.9155
21.9156
21.9157
21.9158
21.9159
21.916
21.9161
21.9162
21.9163
21.9164
21.9166
21.9167
21.9169
21.917
21.9172
21.9173
21.9175
21.9177
21.9178
21.918
21.9182
21.9184
21.9186
21.9188
21.919
21.9192
21.9194
21.9196
21.9198
21.9201
21.9203
21.9206
21.9208
21.9211
21.9214
21.9217
21.9221
21.9224
21.9228
21.9232
21.9236
21.9241
21.9245
21.925
21.9255
21.926
21.9265
21.9271
21.9276
21.9282
21.9288
21.9295
21.9303
21.9297
21.9139
21.9139
21.9139
21.9139
21.9139
21.9139
21.9139
21.9139
21.9139
21.9139
21.9139
21.9139
21.9139
21.9139
21.9139
21.9139
21.9139
21.9139
21.9139
21.9139
21.9139
21.9139
21.9139
21.9139
21.9139
21.9139
21.9139
21.9139
21.9139
21.9139
21.9139
21.9139
21.9139
21.9139
21.9139
21.9139
21.914
21.914
21.914
21.914
21.914
21.914
21.914
21.914
21.914
21.914
21.914
21.914
21.914
21.914
21.914
21.914
21.914
21.914
21.914
21.914
21.914
21.914
21.914
21.914
21.9141
21.9141
21.9141
21.9141
21.9141
21.9141
21.9141
21.9141
21.9141
21.9141
21.9142
21.9142
21.9142
21.9142
21.9142
21.9142
21.9142
21.9143
21.9143
21.9143
21.9143
21.9143
21.9143
21.9144
21.9144
21.9144
21.9144
21.9145
21.9145
21.9145
21.9145
21.9146
21.9146
21.9146
21.9147
21.9147
21.9147
21.9148
21.9148
21.9149
21.9149
21.9149
21.915
21.915
21.9151
21.9151
21.9152
21.9153
21.9153
21.9154
21.9155
21.9155
21.9156
21.9157
21.9158
21.9159
21.916
21.9161
21.9162
21.9163
21.9164
21.9166
21.9167
21.9169
21.917
21.9172
21.9174
21.9176
21.9178
21.918
21.9182
21.9184
21.9187
21.9189
21.9192
21.9195
21.9198
21.9201
21.9204
21.9207
21.921
21.9214
21.9217
21.9221
21.9225
21.9229
21.9233
21.9237
21.9241
21.9246
21.925
21.9255
21.9261
21.9266
21.9272
21.9278
21.9284
21.9291
21.9299
21.9306
21.9314
21.9322
21.9331
21.934
21.935
21.936
21.9371
21.9382
21.9393
21.9405
21.9417
21.943
21.9443
21.9457
21.9472
21.9487
21.9502
21.9519
21.9535
21.9553
21.9572
21.9591
21.9612
21.9633
21.9656
21.968
21.9705
21.9732
21.976
21.9791
21.9823
21.9857
21.9894
21.9932
21.9974
22.0018
22.0064
22.0114
22.0167
22.0223
22.0282
22.0346
22.0413
22.0484
22.056
22.064
22.0723
22.0832
22.0825
21.9139
21.9139
21.9139
21.9139
21.9139
21.9139
21.9139
21.9139
21.9139
21.9139
21.9139
21.9139
21.9139
21.9139
21.9139
21.914
21.914
21.914
21.914
21.9141
21.9141
21.9141
21.9141
21.9141
21.9141
21.9141
21.9141
21.9141
21.9141
21.9141
21.9142
21.9142
21.9142
21.9142
21.9142
21.9142
21.9142
21.9143
21.9143
21.9143
21.9143
21.9143
21.9144
21.9144
21.9144
21.9144
21.9145
21.9145
21.9145
21.9146
21.9146
21.9146
21.9147
21.9147
21.9147
21.9148
21.9148
21.9149
21.9149
21.9149
21.915
21.915
21.9151
21.9152
21.9152
21.9153
21.9153
21.9154
21.9155
21.9156
21.9156
21.9157
21.9158
21.9159
21.916
21.9161
21.9162
21.9163
21.9164
21.9166
21.9167
21.9168
21.917
21.9171
21.9173
21.9175
21.9176
21.9178
21.918
21.9183
21.9185
21.9187
21.919
21.9193
21.9196
21.9199
21.9202
21.9206
21.9209
21.9213
21.9217
21.9222
21.9226
21.9231
21.9236
21.9241
21.9246
21.9252
21.9258
21.9264
21.927
21.9277
21.9283
21.929
21.9298
21.9305
21.9313
21.9322
21.933
21.934
21.9349
21.9359
21.937
21.9381
21.9393
21.9406
21.9419
21.9433
21.9447
21.9463
21.9479
21.9496
21.9514
21.9533
21.9553
21.9573
21.9595
21.9617
21.9641
21.9666
21.9691
21.9718
21.9746
21.9776
21.9806
21.9839
21.9873
21.9908
21.9946
21.9986
22.0028
22.0072
22.012
22.017
22.0224
22.0281
22.0341
22.0406
22.0475
22.0549
22.0627
22.0711
22.08
22.0895
22.0995
22.1103
22.1216
22.1337
22.1465
22.1601
22.1744
22.1895
22.2054
22.2222
22.2398
22.2581
22.2773
22.2973
22.318
22.3394
22.3616
22.3844
22.4079
22.432
22.4567
22.482
22.508
22.5346
22.5619
22.59
22.619
22.649
22.6802
22.7127
22.7467
22.7824
22.8201
22.86
22.9023
22.9472
22.9952
23.0462
23.1009
23.159
23.2216
23.2868
23.3764
23.3775
21.9139
21.9139
21.9139
21.9139
21.9139
21.9139
21.9139
21.9139
21.9139
21.9139
21.9139
21.9139
21.9139
21.9139
21.9139
21.9139
21.9147
21.9147
21.9147
21.9148
21.9148
21.9149
21.9149
21.915
21.915
21.9151
21.9152
21.9152
21.9153
21.9153
21.9154
21.9155
21.9156
21.9157
21.9157
21.9158
21.9159
21.916
21.9161
21.9162
21.9164
21.9165
21.9166
21.9167
21.9169
21.917
21.9172
21.9173
21.9175
21.9177
21.9179
21.9181
21.9183
21.9185
21.9187
21.919
21.9192
21.9195
21.9198
21.9201
21.9204
21.9208
21.9212
21.9216
21.922
21.9224
21.9229
21.9234
21.9239
21.9244
21.925
21.9256
21.9263
21.927
21.9277
21.9285
21.9293
21.9301
21.931
21.9319
21.9329
21.9339
21.9349
21.936
21.9372
21.9384
21.9396
21.9409
21.9423
21.9437
21.9452
21.9468
21.9485
21.9502
21.9521
21.954
21.9561
21.9582
21.9605
21.9629
21.9655
21.9682
21.971
21.974
21.9771
21.9804
21.9839
21.9875
21.9913
21.9953
21.9995
22.0039
22.0085
22.0134
22.0184
22.0238
22.0294
22.0353
22.0416
22.0482
22.0552
22.0626
22.0705
22.0788
22.0877
22.0972
22.1073
22.1181
22.1296
22.1419
22.155
22.169
22.1839
22.1998
22.2167
22.2347
22.2538
22.2741
22.2957
22.3185
22.3425
22.3679
22.3945
22.4225
22.4518
22.4824
22.5142
22.5473
22.5817
22.6173
22.6541
22.692
22.7313
22.7718
22.8136
22.8568
22.9016
22.9482
22.9967
23.0473
23.1004
23.1563
23.2153
23.2777
23.3439
23.4144
23.4895
23.5697
23.6553
23.7469
23.8448
23.9495
24.0615
24.181
24.3086
24.4444
24.5889
24.7422
24.9045
25.0761
25.2569
25.4469
25.6462
25.8544
26.0714
26.297
26.5309
26.7728
27.0227
27.2804
27.5459
27.8196
28.1018
28.3933
28.6947
29.0078
29.3336
29.675
30.0331
30.4129
30.815
31.2473
31.7084
32.2127
32.752
33.3521
33.9947
34.7592
35.3652
21.9141
21.9141
21.9141
21.9141
21.9141
21.9141
21.9141
21.9141
21.9141
21.9141
21.9141
21.9141
21.9141
21.9183
21.9185
21.9187
21.919
21.9192
21.9195
21.9198
21.9201
21.9204
21.9207
21.9211
21.9215
21.9218
21.9223
21.9227
21.9232
21.9236
21.9242
21.9247
21.9253
21.9259
21.9266
21.9272
21.928
21.9287
21.9296
21.9304
21.9314
21.9323
21.9334
21.9344
21.9356
21.9368
21.9381
21.9394
21.9408
21.9423
21.9439
21.9455
21.9472
21.949
21.9509
21.9528
21.9549
21.957
21.9593
21.9617
21.9642
21.9668
21.9696
21.9725
21.9756
21.9789
21.9823
21.9859
21.9898
21.9938
21.9981
22.0027
22.0074
22.0125
22.0178
22.0234
22.0292
22.0354
22.0419
22.0488
22.056
22.0635
22.0715
22.0799
22.0888
22.0981
22.108
22.1184
22.1295
22.1412
22.1536
22.1669
22.181
22.196
22.212
22.2291
22.2473
22.2668
22.2875
22.3097
22.3333
22.3584
22.3852
22.4137
22.4439
22.476
22.5099
22.5458
22.5836
22.6234
22.6653
22.7091
22.755
22.8029
22.8528
22.9047
22.9586
23.0145
23.0726
23.1328
23.1954
23.2604
23.3282
23.3989
23.473
23.5507
23.6327
23.7192
23.8109
23.9083
24.0121
24.1227
24.2409
24.3673
24.5025
24.6471
24.8017
24.9669
25.1431
25.331
25.5308
25.7429
25.9676
26.205
26.4554
26.7185
26.9945
27.2831
27.5841
27.8975
28.2229
28.5604
28.9101
29.2724
29.6477
30.0372
30.4422
30.8645
31.3066
31.7712
32.262
32.7832
33.34
33.9381
34.5843
35.2865
36.0534
36.8948
37.8216
38.8461
39.9814
41.2424
42.6449
44.2059
45.9439
47.8782
50.0293
52.4181
55.0652
57.9903
61.2116
64.7454
68.605
72.7995
77.3336
82.2066
87.4138
92.9467
98.8006
104.956
111.394
118.081
124.996
132.087
139.343
146.684
154.129
161.558
169.038
176.394
183.783
190.92
198.108
204.946
211.909
219.189
21.9148
21.9148
21.9148
21.9148
21.9148
21.9148
21.9148
21.9148
21.9148
21.9148
21.9148
21.9148
21.9147
21.9388
21.9402
21.9417
21.9432
21.9449
21.9466
21.9484
21.9504
21.9524
21.9545
21.9568
21.9592
21.9617
21.9643
21.9671
21.97
21.973
21.9762
21.9796
21.9831
21.9869
21.9908
21.9949
21.9993
22.0039
22.0088
22.0139
22.0193
22.0251
22.0312
22.0376
22.0444
22.0515
22.0591
22.0671
22.0755
22.0844
22.0938
22.1037
22.1141
22.1251
22.1367
22.1489
22.1618
22.1754
22.1898
22.205
22.2212
22.2383
22.2564
22.2757
22.2962
22.3181
22.3414
22.3662
22.3926
22.4209
22.451
22.4831
22.5173
22.5538
22.5926
22.6339
22.6778
22.7243
22.7735
22.8255
22.8805
22.9383
22.9991
23.063
23.1298
23.1997
23.2728
23.3489
23.4284
23.5112
23.5975
23.6876
23.7817
23.8801
23.9833
24.0917
24.206
24.3267
24.4545
24.5901
24.7344
24.8881
25.0521
25.2272
25.4142
25.614
25.8272
26.0547
26.2971
26.5549
26.8288
27.119
27.4258
27.7494
28.09
28.4474
28.8216
29.2126
29.6203
30.0447
30.4863
30.9454
31.423
31.9205
32.4398
32.9835
33.555
34.1583
34.7982
35.4808
36.213
37.0027
37.8593
38.7934
39.8168
40.9427
42.186
43.5629
45.0913
46.7906
48.6818
50.7874
53.1308
55.7365
58.629
61.8323
65.369
69.2597
73.5218
78.1684
83.2072
88.6393
94.4593
100.655
107.207
114.094
121.299
128.789
136.524
144.46
152.548
160.741
168.988
177.241
185.454
193.588
201.605
209.474
217.166
224.657
231.927
238.964
245.757
252.298
258.584
264.614
270.39
275.913
281.187
286.214
291
295.55
299.871
303.973
307.87
311.583
315.182
319.223
323.415
327.32
330.957
334.329
337.418
340.24
342.818
345.177
347.343
349.355
351.25
353.071
354.82
356.558
358.28
359.95
362.078
362.512
21.918
21.918
21.9181
21.9181
21.9181
21.9181
21.9181
21.9181
21.918
21.918
21.9179
21.9179
21.9178
21.9177
22.0549
22.0627
22.0709
22.0796
22.0887
22.0984
22.1087
22.1196
22.131
22.1431
22.156
22.1695
22.1838
22.1989
22.2148
22.2316
22.2494
22.2682
22.2881
22.3091
22.3313
22.3549
22.3799
22.4064
22.4346
22.4646
22.4965
22.5305
22.5667
22.6053
22.6464
22.6903
22.737
22.7867
22.8397
22.896
22.9558
23.0193
23.0865
23.1577
23.2329
23.3122
23.3957
23.4836
23.5758
23.6725
23.7738
23.8798
23.9907
24.1067
24.2281
24.3553
24.4886
24.6287
24.776
24.9313
25.0954
25.2691
25.4534
25.6491
25.8574
26.0792
26.3156
26.5676
26.8362
27.1223
27.4269
27.7507
28.0944
28.4586
28.8437
29.2502
29.6782
30.1279
30.5996
31.0934
31.6096
32.1488
32.7115
33.2992
33.9133
34.5563
35.2312
35.942
36.6936
37.4922
38.3448
39.26
40.2474
41.3183
42.4856
43.7635
45.168
46.7171
48.4303
50.3289
52.4358
54.7756
57.3739
60.257
63.4516
66.9836
70.8775
75.1556
79.8361
84.9329
90.4538
96.3999
102.765
109.534
116.685
124.189
132.013
140.128
148.498
157.076
165.812
174.651
183.539
192.422
201.248
209.966
218.534
226.914
235.074
242.987
250.63
257.991
265.059
271.824
278.284
284.433
290.273
295.8
301.019
305.93
310.541
314.86
318.9
322.679
326.226
329.614
333.433
337.278
340.803
344.041
346.992
349.66
352.072
354.264
356.271
358.142
359.925
361.652
363.35
365.046
366.762
368.516
370.322
372.19
374.124
376.126
378.19
380.315
382.495
384.724
386.992
389.291
391.612
393.944
396.28
398.609
400.913
403.139
404.587
405.31
405.878
406.28
406.545
406.8
407.083
407.401
407.775
408.206
408.722
409.297
409.981
410.695
411.545
412.399
413.293
414.838
413.506
21.9326
21.9329
21.933
21.9331
21.9332
21.9331
21.933
21.9329
21.9327
21.9324
21.9321
21.9318
21.9314
21.9309
22.683
22.7277
22.7754
22.8261
22.8801
22.9375
22.9988
23.0639
23.1332
23.207
23.2853
23.3685
23.4566
23.55
23.6488
23.7531
23.8631
23.9791
24.101
24.2292
24.3638
24.5051
24.6533
24.8087
24.9718
25.143
25.323
25.5123
25.7118
25.9224
26.1449
26.3805
26.6303
26.8955
27.1773
27.4769
27.7955
28.1344
28.4947
28.8775
29.2837
29.7143
30.1699
30.6514
31.1592
31.6938
32.2558
32.8457
33.4642
34.112
34.7904
35.5009
36.2459
37.0281
37.8513
38.7203
39.6409
40.6203
41.6669
42.7908
44.0034
45.3179
46.7492
48.314
50.0308
51.9199
54.0037
56.3061
58.8526
61.6701
64.786
68.2283
72.0243
76.2
80.7791
85.7815
91.2224
97.1111
103.45
110.232
117.445
125.063
133.058
141.388
150.011
158.882
167.968
177.213
186.56
195.952
205.328
214.629
223.802
232.796
241.569
250.085
258.313
266.228
273.81
281.044
287.919
294.425
300.559
306.316
311.696
316.704
321.346
325.635
329.592
333.24
336.612
339.749
342.886
346.452
349.713
352.682
355.39
357.838
360.051
362.068
363.928
365.682
367.381
369.052
370.723
372.42
374.159
375.955
377.814
379.739
381.729
383.781
385.887
388.04
390.232
392.451
394.683
396.92
399.152
401.367
403.554
405.663
406.941
407.582
408.081
408.422
408.676
408.953
409.275
409.656
410.111
410.651
411.278
411.992
412.787
413.658
414.596
415.589
416.626
417.695
418.778
419.86
420.923
421.948
422.918
423.815
424.617
425.306
425.862
426.264
426.494
426.53
426.354
425.955
425.41
424.928
424.572
424.357
424.283
424.283
424.342
424.443
424.592
424.753
424.95
425.116
425.328
425.438
425.642
425.655
425.709
426.517
421.02
21.9982
21.9989
21.9994
21.9996
21.9996
21.9992
21.9986
21.9977
21.9966
21.9953
21.9937
21.992
21.9901
21.9881
26.0782
26.3121
26.5584
26.818
27.0921
27.3816
27.688
28.0125
28.3564
28.7212
29.1083
29.5191
29.9549
30.4171
30.9067
31.425
31.973
32.5516
33.1617
33.8043
34.4802
35.1903
35.936
36.7187
37.5402
38.403
39.3101
40.2656
41.2743
42.3423
43.477
44.6873
45.9835
47.3775
48.8832
50.5161
52.2936
54.2351
56.3617
58.6965
61.264
64.0905
67.2033
70.6305
74.4
78.5393
83.0745
88.0286
93.4215
99.2678
105.576
112.348
119.576
127.244
135.328
143.792
152.597
161.692
171.024
180.541
190.202
199.95
209.719
219.449
229.078
238.546
247.798
256.788
265.475
273.824
281.805
289.397
296.581
303.344
309.676
315.572
321.033
326.064
330.674
334.884
338.718
342.21
345.4
348.329
351.07
354.155
357.166
359.892
362.376
364.638
366.689
368.569
370.318
371.992
373.636
375.274
376.931
378.626
380.373
382.178
384.044
385.967
387.944
389.967
392.026
394.112
396.21
398.312
400.407
402.48
404.523
406.523
408.252
408.991
409.538
409.967
410.281
410.595
410.963
411.392
411.896
412.484
413.156
413.908
414.737
415.633
416.586
417.582
418.607
419.644
420.675
421.684
422.65
423.554
424.376
425.094
425.69
426.142
426.43
426.535
426.437
426.13
425.702
425.359
425.159
425.121
425.219
425.397
425.643
425.947
426.296
426.674
427.069
427.466
427.849
428.207
428.524
428.791
428.997
429.133
429.193
429.171
429.064
428.87
428.592
428.233
427.8
427.304
426.758
426.179
425.584
424.997
424.443
423.949
423.535
423.191
422.9
422.639
422.39
422.133
421.875
421.606
421.338
421.055
420.78
420.486
420.227
419.924
419.749
419.415
419.271
418.96
411.128
22.2889
22.2915
22.2928
22.2929
22.2917
22.2893
22.2858
22.2812
22.2756
22.2692
22.2619
22.254
22.2454
41.5003
42.5715
43.7016
44.8968
46.164
47.5119
48.9506
50.4915
52.1482
53.9358
55.8713
57.9734
60.263
62.7624
65.4957
68.4885
71.7673
75.3596
79.2929
83.5944
88.2899
93.403
98.954
104.959
111.428
118.364
125.763
133.611
141.886
150.557
159.583
168.915
178.501
188.279
198.191
208.189
218.218
228.212
238.103
247.829
257.33
266.55
275.439
283.956
292.067
299.741
306.958
313.702
319.963
325.738
331.03
335.85
340.217
344.156
347.704
350.906
353.81
356.462
358.926
361.648
364.333
366.762
368.98
371.017
372.885
374.618
376.261
377.864
379.465
381.08
382.73
384.427
386.177
387.983
389.84
391.741
393.68
395.646
397.627
399.61
401.583
403.53
405.441
407.307
409.091
410.16
410.761
411.272
411.679
412.04
412.449
412.926
413.477
414.11
414.823
415.61
416.465
417.375
418.329
419.311
420.304
421.291
422.253
423.169
424.021
424.787
425.448
425.982
426.368
426.589
426.624
426.46
426.121
425.768
425.533
425.442
425.502
425.661
425.889
426.177
426.511
426.876
427.259
427.646
428.025
428.383
428.71
428.995
429.23
429.408
429.525
429.578
429.566
429.491
429.358
429.174
428.951
428.702
428.445
428.199
427.987
427.833
427.754
427.735
427.751
427.774
427.776
427.744
427.673
427.557
427.391
427.172
426.897
426.565
426.176
425.733
425.237
424.697
424.117
423.508
422.88
422.242
421.607
420.986
420.39
419.83
419.317
418.86
418.466
418.141
417.889
417.711
417.604
417.563
417.579
417.648
417.764
417.928
418.143
418.407
418.727
419.091
419.517
419.982
420.511
421.076
421.703
422.388
423.092
423.833
424.336
423.644
414.556
23.5193
23.5257
23.5271
23.5233
23.5141
23.5002
23.4818
23.4594
23.4332
23.4036
23.371
23.3358
23.2984
138.401
146.69
155.387
164.455
173.85
183.522
193.413
203.461
213.601
223.774
233.93
244.002
253.92
263.618
273.035
282.113
290.802
299.06
306.852
314.15
320.938
327.203
332.943
338.164
342.88
347.113
350.898
354.276
357.298
360.021
362.496
364.776
367.067
369.551
371.806
373.86
375.759
377.528
379.186
380.767
382.318
383.873
385.453
387.068
388.73
390.441
392.2
394.002
395.838
397.698
399.569
401.439
403.292
405.112
406.887
408.6
410.234
411.303
411.92
412.468
412.94
413.359
413.823
414.357
414.968
415.656
416.418
417.244
418.126
419.051
420.004
420.968
421.925
422.856
423.742
424.562
425.295
425.92
426.417
426.766
426.948
426.951
426.78
426.496
426.276
426.172
426.2
426.343
426.554
426.816
427.116
427.44
427.773
428.103
428.416
428.701
428.947
429.145
429.289
429.374
429.399
429.365
429.274
429.135
428.956
428.753
428.54
428.339
428.173
428.068
428.046
428.112
428.244
428.415
428.598
428.771
428.925
429.053
429.148
429.205
429.22
429.19
429.113
428.99
428.821
428.61
428.358
428.072
427.755
427.415
427.055
426.683
426.303
425.921
425.541
425.166
424.796
424.43
424.065
423.692
423.303
422.889
422.448
421.983
421.499
421.004
420.503
420.005
419.519
419.053
418.615
418.214
417.857
417.551
417.304
417.122
417.011
416.973
417.014
417.133
417.331
417.606
417.956
418.377
418.863
419.41
420.01
420.654
421.337
422.047
422.78
423.523
424.274
425.021
425.763
426.494
427.203
427.895
428.548
429.171
429.74
430.264
430.72
431.121
431.447
431.73
431.896
431.949
430.877
428.249
415.213
28.4591
28.4543
28.4278
28.3819
28.3175
28.2364
28.1403
28.0307
27.909
27.7765
27.6344
27.4838
348.458
352.593
356.265
359.518
362.409
364.998
367.338
369.486
371.499
373.719
375.848
377.783
379.567
381.245
382.84
384.371
385.871
387.375
388.904
390.469
392.077
393.73
395.426
397.156
398.911
400.679
402.446
404.197
405.912
407.58
409.177
410.689
411.973
412.662
413.254
413.804
414.297
414.785
415.338
415.963
416.661
417.427
418.251
419.123
420.03
420.956
421.884
422.797
423.674
424.496
425.242
425.893
426.428
426.827
427.073
427.166
427.104
426.924
426.785
426.741
426.806
426.982
427.222
427.505
427.816
428.14
428.465
428.775
429.059
429.305
429.503
429.646
429.729
429.748
429.705
429.603
429.45
429.256
429.037
428.81
428.599
428.429
428.324
428.304
428.358
428.465
428.601
428.738
428.864
428.975
429.063
429.126
429.162
429.169
429.146
429.097
429.023
428.929
428.818
428.697
428.572
428.446
428.327
428.218
428.122
428.042
427.977
427.925
427.88
427.833
427.772
427.682
427.554
427.383
427.167
426.907
426.605
426.261
425.88
425.464
425.019
424.549
424.061
423.559
423.05
422.541
422.036
421.542
421.063
420.604
420.169
419.76
419.382
419.035
418.722
418.444
418.201
417.996
417.829
417.702
417.618
417.582
417.596
417.665
417.79
417.974
418.217
418.518
418.878
419.292
419.759
420.273
420.83
421.421
422.042
422.686
423.344
424.011
424.681
425.345
425.995
426.623
427.22
427.777
428.286
428.736
429.121
429.432
429.661
429.799
429.842
429.779
429.602
429.299
428.876
428.349
427.741
427.034
426.247
425.368
424.397
423.369
422.218
421.092
419.794
418.683
417.242
415.784
412.805
408.218
393.364
45.1767
45.1269
45.0086
44.826
44.5881
44.3032
43.9759
43.6095
43.2061
42.768
399.774
401.446
403.122
404.784
406.412
407.992
409.503
410.916
412.253
413.132
413.756
414.355
414.926
415.463
416.018
416.639
417.328
418.079
418.885
419.734
420.612
421.505
422.395
423.263
424.09
424.856
425.543
426.13
426.601
426.937
427.144
427.218
427.155
427.07
427.053
427.117
427.279
427.523
427.812
428.127
428.454
428.78
429.09
429.373
429.617
429.812
429.953
430.034
430.054
430.013
429.918
429.777
429.602
429.411
429.224
429.065
428.956
428.916
428.942
429.014
429.112
429.211
429.293
429.354
429.39
429.397
429.375
429.324
429.246
429.144
429.023
428.889
428.749
428.61
428.479
428.365
428.272
428.207
428.171
428.165
428.188
428.232
428.289
428.345
428.389
428.412
428.41
428.383
428.33
428.252
428.149
428.023
427.876
427.71
427.526
427.327
427.113
426.888
426.651
426.404
426.146
425.877
425.597
425.302
424.993
424.666
424.32
423.953
423.565
423.155
422.727
422.283
421.831
421.377
420.928
420.49
420.071
419.676
419.311
418.982
418.694
418.452
418.259
418.117
418.029
417.995
418.017
418.094
418.223
418.405
418.635
418.911
419.229
419.586
419.977
420.4
420.848
421.319
421.808
422.31
422.822
423.34
423.859
424.373
424.878
425.366
425.832
426.269
426.671
427.028
427.334
427.58
427.758
427.854
427.861
427.77
427.575
427.295
426.941
426.512
426.006
425.423
424.764
424.031
423.227
422.355
421.421
420.431
419.385
418.297
417.163
416.018
414.874
413.782
412.723
411.67
410.614
409.532
408.497
407.435
406.436
405.456
404.518
403.69
402.877
402.385
401.626
401.121
398.806
394.305
381.841
94.8022
94.5565
94.0401
93.3794
92.604
91.6847
90.6287
89.4545
88.1761
424.323
425.036
425.666
426.195
426.61
426.912
427.105
427.174
427.153
427.164
427.234
427.371
427.587
427.866
428.174
428.494
428.815
429.123
429.405
429.651
429.851
429.999
430.091
430.126
430.105
430.035
429.926
429.791
429.649
429.519
429.419
429.373
429.386
429.447
429.54
429.643
429.735
429.804
429.846
429.858
429.837
429.785
429.703
429.594
429.464
429.318
429.164
429.009
428.862
428.729
428.617
428.531
428.473
428.443
428.437
428.448
428.466
428.479
428.48
428.466
428.435
428.391
428.334
428.267
428.193
428.114
428.034
427.954
427.876
427.804
427.737
427.675
427.619
427.566
427.514
427.46
427.399
427.326
427.238
427.128
426.993
426.83
426.637
426.416
426.168
425.896
425.602
425.289
424.96
424.618
424.264
423.903
423.536
423.167
422.798
422.432
422.071
421.718
421.375
421.045
420.729
420.43
420.152
419.896
419.666
419.466
419.297
419.163
419.068
419.013
419.001
419.034
419.111
419.233
419.398
419.604
419.85
420.132
420.447
420.79
421.157
421.543
421.946
422.36
422.781
423.205
423.624
424.035
424.43
424.805
425.152
425.467
425.744
425.973
426.146
426.255
426.294
426.255
426.136
425.957
425.724
425.433
425.084
424.676
424.21
423.686
423.106
422.471
421.786
421.049
420.264
419.438
418.603
417.775
416.97
416.2
415.431
414.64
413.836
413.025
412.216
411.415
410.63
409.87
409.143
408.457
407.82
407.242
406.736
406.312
405.964
405.636
405.322
405.002
404.723
404.451
404.248
404.038
403.892
403.764
403.648
403.63
403.549
403.742
403.806
404.255
403.952
402.054
397.582
387.793
247.56
246.996
430.014
430.01
429.963
429.885
429.788
429.691
429.608
429.558
429.558
429.605
429.687
429.792
429.898
429.989
430.053
430.09
430.096
430.071
430.017
429.937
429.834
429.715
429.586
429.456
429.33
429.215
429.118
429.043
428.99
428.958
428.942
428.936
428.928
428.91
428.876
428.824
428.756
428.674
428.582
428.481
428.376
428.272
428.17
428.075
427.99
427.917
427.857
427.811
427.777
427.754
427.739
427.728
427.718
427.703
427.68
427.644
427.595
427.532
427.456
427.367
427.268
427.159
427.04
426.913
426.776
426.632
426.478
426.314
426.141
425.956
425.759
425.548
425.324
425.084
424.829
424.558
424.273
423.974
423.664
423.345
423.021
422.696
422.374
422.06
421.758
421.472
421.206
420.962
420.744
420.555
420.397
420.271
420.178
420.12
420.095
420.105
420.148
420.223
420.329
420.464
420.625
420.812
421.021
421.249
421.495
421.755
422.027
422.311
422.601
422.896
423.191
423.482
423.765
424.036
424.291
424.521
424.718
424.878
424.992
425.055
425.059
424.998
424.888
424.737
424.545
424.31
424.03
423.706
423.337
422.922
422.462
421.959
421.408
420.829
420.241
419.652
419.075
418.521
417.999
417.465
416.91
416.342
415.764
415.184
414.607
414.041
413.493
412.969
412.48
412.034
411.647
411.321
411.017
410.721
410.429
410.129
409.838
409.569
409.321
409.095
408.889
408.704
408.539
408.392
408.262
408.148
408.043
407.951
407.851
407.766
407.649
407.596
407.526
407.528
407.55
407.593
407.732
407.822
408.049
408.239
408.508
408.852
409.188
409.815
410.414
411.534
411.635
410.457
406.27
399.656
429.647
429.553
429.471
429.404
429.356
429.327
429.314
429.314
429.317
429.314
429.298
429.265
429.213
429.144
429.06
428.965
428.862
428.755
428.647
428.543
428.445
428.355
428.276
428.208
428.151
428.104
428.063
428.028
427.993
427.957
427.915
427.867
427.811
427.749
427.683
427.615
427.546
427.479
427.414
427.352
427.293
427.237
427.182
427.128
427.073
427.016
426.954
426.884
426.805
426.713
426.609
426.489
426.353
426.201
426.033
425.851
425.654
425.446
425.228
425
424.765
424.524
424.278
424.029
423.779
423.528
423.278
423.032
422.792
422.558
422.334
422.122
421.924
421.742
421.58
421.439
421.322
421.23
421.165
421.129
421.122
421.143
421.193
421.27
421.372
421.499
421.646
421.812
421.993
422.186
422.388
422.599
422.815
423.032
423.249
423.461
423.665
423.859
424.036
424.19
424.317
424.412
424.469
424.482
424.446
424.356
424.23
424.075
423.889
423.67
423.418
423.132
422.809
422.449
422.051
421.625
421.186
420.742
420.301
419.872
419.467
419.1
418.739
418.363
417.978
417.588
417.197
416.813
416.437
416.08
415.749
415.455
415.209
414.994
414.787
414.586
414.387
414.18
413.96
413.743
413.537
413.342
413.157
412.983
412.82
412.667
412.522
412.384
412.249
412.112
411.968
411.81
411.659
411.519
411.391
411.281
411.194
411.13
411.09
411.073
411.08
411.112
411.167
411.25
411.357
411.495
411.659
411.862
412.091
412.381
412.691
413.092
413.509
414.025
414.585
415.204
415.934
416.678
417.57
418.493
419.537
420.691
421.951
423.475
425.236
427.449
429.147
429.507
425.913
421.77
428.625
428.574
428.529
428.488
428.449
428.408
428.362
428.309
428.248
428.178
428.102
428.022
427.94
427.859
427.78
427.705
427.636