/*--------------------------------*- C++ -*----------------------------------*\
| =========                 |                                                 |
| \\      /  F ield         | OpenFOAM: The Open Source CFD Toolbox           |
|  \\    /   O peration     | Version:  v1706                                 |
|   \\  /    A nd           | Web:      www.OpenFOAM.com                      |
|    \\/     M anipulation  |                                                 |
\*---------------------------------------------------------------------------*/
FoamFile
{
    version     2.0;
    format      ascii;
    class       volScalarField;
    location    "4e-06";
    object      rho;
}
// * * * * * * * * * * * * * * * * * * * * * * * * * * * * * * * * * * * * * //

dimensions      [1 -3 0 0 0 0 0];


internalField   nonuniform List<scalar> 
30104
(
0.000511309
0.000511309
0.000511309
0.000511309
0.000511309
0.000511309
0.000511309
0.000511309
0.000511309
0.000511309
0.000511309
0.000511309
0.000511309
0.000511309
0.000511309
0.000511309
0.000511309
0.000511309
0.000511309
0.000511309
0.000511309
0.000511309
0.000511309
0.000511309
0.000511309
0.000511309
0.000511309
0.000511309
0.000511309
0.000511309
0.000511309
0.000511309
0.000511309
0.000511309
0.000511309
0.000511309
0.000511309
0.000511309
0.000511309
0.000511309
0.000511309
0.000511309
0.000511309
0.000511309
0.000511309
0.000511309
0.000511309
0.000511309
0.000511309
0.000511309
0.000511309
0.000511309
0.000511309
0.000511309
0.000511309
0.000511309
0.000511309
0.000511309
0.000511309
0.000511309
0.000511309
0.000511309
0.000511309
0.000511309
0.000511309
0.000511309
0.000511309
0.000511309
0.000511309
0.000511309
0.000511309
0.000511309
0.000511309
0.000511309
0.000511309
0.000511309
0.000511309
0.000511309
0.000511309
0.000511309
0.000511309
0.000511309
0.000511309
0.000511309
0.000511309
0.000511309
0.000511309
0.000511309
0.000511309
0.000511309
0.000511309
0.000511309
0.000511309
0.000511309
0.000511309
0.000511309
0.000511309
0.000511309
0.000511309
0.000511309
0.000511309
0.000511309
0.000511309
0.000511309
0.000511309
0.000511309
0.000511309
0.000511309
0.000511309
0.000511309
0.000511309
0.000511309
0.000511309
0.000511309
0.000511309
0.000511309
0.000511309
0.000511309
0.000511309
0.000511309
0.000511309
0.000511309
0.000511309
0.000511309
0.000511309
0.000511309
0.000511309
0.000511309
0.000511309
0.000511309
0.000511309
0.000511309
0.000511309
0.000511309
0.000511309
0.000511309
0.000511309
0.000511309
0.000511309
0.000511309
0.000511309
0.000511309
0.000511309
0.000511309
0.000511309
0.000511309
0.000511309
0.000511309
0.000511309
0.000511309
0.000511309
0.000511309
0.000511309
0.000511309
0.000511309
0.000511309
0.000511309
0.000511309
0.000511309
0.000511309
0.000511309
0.000511309
0.000511309
0.000511309
0.000511309
0.000511309
0.000511309
0.000511309
0.000511309
0.000511309
0.000511309
0.000511309
0.000511309
0.000511309
0.000511309
0.000511309
0.000511309
0.000511309
0.000511309
0.000511309
0.000511309
0.000511309
0.000511309
0.000511309
0.000511309
0.000511309
0.000511309
0.000511309
0.000511309
0.000511309
0.000511309
0.000511309
0.000511309
0.000511309
0.00051131
0.00051131
0.00051131
0.00051131
0.00051131
0.00051131
0.00051131
0.00051131
0.00051131
0.00051131
0.00051131
0.00051131
0.00051131
0.00051131
0.00051131
0.00051131
0.000511309
0.000511309
0.000511309
0.000511309
0.000511309
0.000511309
0.000511309
0.000511309
0.000511309
0.000511309
0.000511309
0.000511309
0.000511309
0.000511309
0.000511309
0.000511309
0.000511309
0.000511309
0.000511309
0.000511309
0.000511309
0.000511309
0.000511309
0.000511309
0.000511309
0.000511309
0.000511309
0.000511309
0.000511309
0.000511309
0.000511309
0.000511309
0.000511309
0.000511309
0.000511309
0.000511309
0.000511309
0.000511309
0.000511309
0.000511309
0.000511309
0.000511309
0.000511309
0.000511309
0.000511309
0.000511309
0.000511309
0.000511309
0.000511309
0.000511309
0.000511309
0.000511309
0.000511309
0.000511309
0.000511309
0.000511309
0.000511309
0.000511309
0.000511309
0.000511309
0.000511309
0.000511309
0.000511309
0.000511309
0.000511309
0.000511309
0.000511309
0.000511309
0.000511309
0.000511309
0.000511309
0.000511309
0.000511309
0.000511309
0.000511309
0.000511309
0.000511309
0.000511309
0.000511309
0.000511309
0.000511309
0.000511309
0.000511309
0.000511309
0.000511309
0.000511309
0.000511309
0.000511309
0.000511309
0.000511309
0.000511309
0.000511309
0.000511309
0.000511309
0.000511309
0.000511309
0.000511309
0.000511309
0.000511309
0.000511309
0.000511309
0.000511309
0.000511309
0.000511309
0.000511309
0.000511309
0.000511309
0.000511309
0.000511309
0.000511309
0.000511309
0.000511309
0.000511309
0.000511309
0.000511309
0.000511309
0.000511309
0.000511309
0.00051131
0.00051131
0.00051131
0.00051131
0.00051131
0.00051131
0.00051131
0.00051131
0.00051131
0.00051131
0.00051131
0.00051131
0.00051131
0.00051131
0.00051131
0.00051131
0.00051131
0.00051131
0.00051131
0.00051131
0.00051131
0.00051131
0.00051131
0.00051131
0.00051131
0.00051131
0.00051131
0.00051131
0.00051131
0.00051131
0.00051131
0.00051131
0.00051131
0.00051131
0.00051131
0.00051131
0.00051131
0.00051131
0.00051131
0.00051131
0.00051131
0.00051131
0.00051131
0.00051131
0.00051131
0.00051131
0.00051131
0.00051131
0.00051131
0.00051131
0.00051131
0.00051131
0.00051131
0.00051131
0.000511311
0.000511311
0.000511311
0.000511311
0.000511311
0.000511311
0.000511311
0.000511311
0.000511311
0.000511311
0.000511311
0.000511311
0.000511312
0.000511312
0.000511312
0.000511312
0.000511312
0.000511312
0.000511313
0.000511313
0.000511313
0.000511314
0.000511314
0.000511314
0.000511314
0.000511315
0.000511315
0.000511316
0.000511316
0.000511316
0.000511317
0.000511317
0.000511318
0.000511318
0.000511319
0.000511319
0.000511319
0.00051132
0.000511309
0.000511309
0.000511309
0.000511309
0.000511309
0.000511309
0.000511309
0.000511309
0.000511309
0.000511309
0.000511309
0.000511309
0.000511309
0.000511309
0.000511309
0.000511309
0.000511309
0.000511309
0.000511309
0.000511309
0.000511309
0.000511309
0.000511309
0.000511309
0.000511309
0.000511309
0.000511309
0.000511309
0.000511309
0.000511309
0.000511309
0.000511309
0.000511309
0.000511309
0.000511309
0.000511309
0.000511309
0.000511309
0.000511309
0.000511309
0.000511309
0.000511309
0.000511309
0.000511309
0.000511309
0.000511309
0.000511309
0.000511309
0.000511309
0.000511309
0.000511309
0.000511309
0.000511309
0.000511309
0.000511309
0.000511309
0.000511309
0.000511309
0.000511309
0.000511309
0.000511309
0.000511309
0.000511309
0.000511309
0.000511309
0.000511309
0.000511309
0.000511309
0.000511309
0.000511309
0.000511309
0.00051131
0.00051131
0.00051131
0.00051131
0.00051131
0.00051131
0.00051131
0.00051131
0.00051131
0.00051131
0.00051131
0.00051131
0.00051131
0.00051131
0.00051131
0.00051131
0.00051131
0.00051131
0.00051131
0.00051131
0.00051131
0.00051131
0.00051131
0.00051131
0.00051131
0.00051131
0.00051131
0.00051131
0.00051131
0.00051131
0.00051131
0.00051131
0.00051131
0.00051131
0.00051131
0.00051131
0.00051131
0.00051131
0.000511311
0.000511311
0.000511311
0.000511311
0.000511311
0.000511311
0.000511311
0.000511311
0.000511311
0.000511311
0.000511311
0.000511311
0.000511311
0.000511311
0.000511311
0.000511311
0.000511311
0.000511311
0.000511311
0.000511311
0.000511312
0.000511312
0.000511312
0.000511312
0.000511312
0.000511312
0.000511312
0.000511312
0.000511312
0.000511312
0.000511312
0.000511313
0.000511313
0.000511313
0.000511313
0.000511313
0.000511313
0.000511314
0.000511314
0.000511314
0.000511314
0.000511315
0.000511315
0.000511315
0.000511316
0.000511316
0.000511317
0.000511317
0.000511318
0.000511319
0.000511319
0.00051132
0.000511321
0.000511321
0.000511322
0.000511323
0.000511324
0.000511325
0.000511326
0.000511327
0.000511328
0.000511329
0.00051133
0.000511331
0.000511332
0.000511333
0.000511334
0.000511335
0.000511336
0.000511337
0.000511338
0.000511339
0.00051134
0.00051134
0.000511341
0.000511342
0.000511343
0.000511344
0.000511345
0.000511346
0.000511347
0.000511348
0.00051135
0.000511351
0.000511352
0.000511354
0.000511355
0.000511357
0.000511359
0.00051136
0.000511362
0.000511364
0.000511365
0.000511367
0.000511369
0.00051137
0.000511372
0.000511374
0.000511376
0.000511376
0.000511309
0.000511309
0.000511309
0.000511309
0.000511309
0.000511309
0.000511309
0.000511309
0.000511309
0.000511309
0.000511309
0.000511309
0.000511309
0.000511309
0.000511309
0.000511309
0.000511309
0.000511309
0.000511309
0.000511309
0.000511309
0.000511309
0.000511309
0.000511309
0.00051131
0.00051131
0.00051131
0.00051131
0.00051131
0.00051131
0.00051131
0.00051131
0.00051131
0.00051131
0.00051131
0.00051131
0.00051131
0.00051131
0.00051131
0.00051131
0.00051131
0.00051131
0.00051131
0.00051131
0.00051131
0.00051131
0.00051131
0.00051131
0.00051131
0.00051131
0.00051131
0.00051131
0.00051131
0.00051131
0.00051131
0.00051131
0.00051131
0.00051131
0.00051131
0.00051131
0.00051131
0.00051131
0.00051131
0.00051131
0.00051131
0.00051131
0.00051131
0.00051131
0.000511311
0.000511311
0.000511311
0.000511311
0.000511311
0.000511311
0.000511311
0.000511311
0.000511311
0.000511311
0.000511311
0.000511311
0.000511312
0.000511312
0.000511312
0.000511312
0.000511312
0.000511312
0.000511312
0.000511312
0.000511312
0.000511312
0.000511313
0.000511313
0.000511313
0.000511313
0.000511313
0.000511313
0.000511313
0.000511313
0.000511314
0.000511314
0.000511314
0.000511314
0.000511314
0.000511314
0.000511315
0.000511315
0.000511315
0.000511315
0.000511316
0.000511316
0.000511316
0.000511316
0.000511317
0.000511317
0.000511317
0.000511318
0.000511318
0.000511319
0.000511319
0.00051132
0.000511321
0.000511322
0.000511322
0.000511323
0.000511324
0.000511325
0.000511326
0.000511327
0.000511329
0.00051133
0.000511331
0.000511333
0.000511334
0.000511336
0.000511338
0.000511339
0.000511341
0.000511343
0.000511345
0.000511347
0.000511349
0.000511351
0.000511352
0.000511354
0.000511356
0.000511358
0.00051136
0.000511362
0.000511364
0.000511366
0.000511368
0.00051137
0.000511372
0.000511374
0.000511376
0.000511379
0.000511381
0.000511384
0.000511387
0.00051139
0.000511393
0.000511396
0.0005114
0.000511403
0.000511407
0.00051141
0.000511414
0.000511418
0.000511422
0.000511426
0.00051143
0.000511434
0.000511438
0.000511442
0.000511446
0.000511451
0.000511456
0.00051146
0.000511466
0.000511471
0.000511477
0.000511484
0.000511491
0.000511499
0.000511508
0.000511517
0.000511528
0.000511539
0.000511552
0.000511566
0.000511582
0.000511599
0.000511618
0.000511638
0.00051166
0.000511683
0.000511709
0.000511736
0.000511765
0.000511796
0.00051183
0.000511865
0.000511903
0.000511944
0.000511987
0.000512033
0.00051208
0.000512133
0.000512196
0.000511309
0.000511309
0.000511309
0.000511309
0.000511309
0.000511309
0.000511309
0.000511309
0.000511309
0.000511309
0.000511309
0.000511309
0.000511309
0.000511309
0.000511309
0.00051131
0.00051131
0.00051131
0.00051131
0.00051131
0.00051131
0.00051131
0.00051131
0.00051131
0.00051131
0.00051131
0.00051131
0.00051131
0.00051131
0.00051131
0.000511311
0.000511311
0.000511311
0.000511311
0.000511311
0.000511311
0.000511311
0.000511311
0.000511311
0.000511311
0.000511311
0.000511312
0.000511312
0.000511312
0.000511312
0.000511312
0.000511312
0.000511312
0.000511313
0.000511313
0.000511313
0.000511313
0.000511313
0.000511313
0.000511314
0.000511314
0.000511314
0.000511314
0.000511314
0.000511315
0.000511315
0.000511315
0.000511315
0.000511315
0.000511316
0.000511316
0.000511316
0.000511316
0.000511317
0.000511317
0.000511317
0.000511318
0.000511318
0.000511318
0.000511319
0.000511319
0.00051132
0.00051132
0.000511321
0.000511321
0.000511322
0.000511322
0.000511323
0.000511323
0.000511324
0.000511325
0.000511326
0.000511327
0.000511328
0.000511329
0.00051133
0.000511331
0.000511333
0.000511334
0.000511336
0.000511338
0.00051134
0.000511342
0.000511344
0.000511346
0.000511348
0.000511351
0.000511353
0.000511356
0.000511359
0.000511362
0.000511365
0.000511368
0.000511372
0.000511375
0.000511378
0.000511382
0.000511385
0.000511389
0.000511392
0.000511396
0.000511399
0.000511403
0.000511407
0.00051141
0.000511414
0.000511418
0.000511423
0.000511427
0.000511432
0.000511437
0.000511442
0.000511448
0.000511454
0.00051146
0.000511466
0.000511472
0.000511479
0.000511486
0.000511493
0.000511501
0.000511508
0.000511516
0.000511524
0.000511533
0.000511541
0.000511551
0.00051156
0.00051157
0.000511581
0.000511592
0.000511605
0.000511618
0.000511633
0.000511649
0.000511666
0.000511685
0.000511706
0.000511729
0.000511754
0.000511781
0.000511811
0.000511843
0.000511879
0.000511917
0.000511958
0.000512002
0.00051205
0.0005121
0.000512155
0.000512213
0.000512275
0.00051234
0.00051241
0.000512484
0.000512562
0.000512645
0.000512731
0.000512822
0.000512916
0.000513014
0.000513115
0.000513219
0.000513325
0.000513434
0.000513543
0.000513654
0.000513765
0.000513877
0.000513988
0.000514098
0.000514208
0.000514318
0.000514427
0.000514537
0.000514647
0.000514759
0.000514874
0.000514993
0.000515117
0.000515247
0.000515385
0.00051553
0.000515686
0.000515851
0.000516029
0.000516216
0.000516417
0.000516627
0.000516853
0.000517085
0.000517337
0.00051761
0.00051131
0.00051131
0.00051131
0.00051131
0.00051131
0.00051131
0.00051131
0.00051131
0.00051131
0.00051131
0.00051131
0.00051131
0.00051131
0.00051131
0.00051131
0.00051131
0.000511313
0.000511313
0.000511313
0.000511314
0.000511314
0.000511314
0.000511314
0.000511315
0.000511315
0.000511315
0.000511316
0.000511316
0.000511316
0.000511316
0.000511317
0.000511317
0.000511317
0.000511318
0.000511318
0.000511319
0.000511319
0.000511319
0.00051132
0.00051132
0.000511321
0.000511321
0.000511322
0.000511322
0.000511323
0.000511324
0.000511324
0.000511325
0.000511325
0.000511326
0.000511327
0.000511328
0.000511329
0.00051133
0.000511331
0.000511332
0.000511333
0.000511334
0.000511335
0.000511337
0.000511338
0.00051134
0.000511342
0.000511344
0.000511346
0.000511348
0.00051135
0.000511353
0.000511356
0.000511358
0.000511362
0.000511365
0.000511368
0.000511372
0.000511376
0.00051138
0.000511385
0.000511389
0.000511394
0.000511399
0.000511404
0.000511409
0.000511415
0.00051142
0.000511426
0.000511432
0.000511438
0.000511444
0.00051145
0.000511456
0.000511463
0.00051147
0.000511476
0.000511484
0.000511491
0.000511499
0.000511507
0.000511516
0.000511525
0.000511535
0.000511545
0.000511555
0.000511566
0.000511577
0.000511589
0.000511601
0.000511614
0.000511628
0.000511642
0.000511656
0.000511671
0.000511687
0.000511704
0.000511722
0.00051174
0.00051176
0.000511782
0.000511805
0.00051183
0.000511856
0.000511886
0.000511917
0.000511952
0.00051199
0.000512031
0.000512076
0.000512124
0.000512177
0.000512234
0.000512296
0.000512362
0.000512433
0.00051251
0.000512592
0.00051268
0.000512773
0.000512873
0.000512978
0.00051309
0.000513209
0.000513333
0.000513464
0.000513601
0.000513744
0.000513892
0.000514045
0.000514202
0.000514364
0.000514529
0.000514696
0.000514866
0.000515038
0.000515212
0.000515388
0.000515565
0.000515744
0.000515926
0.000516111
0.000516302
0.000516498
0.000516702
0.000516914
0.000517137
0.000517372
0.000517621
0.000517884
0.000518163
0.000518458
0.000518771
0.000519102
0.000519451
0.000519818
0.000520204
0.000520607
0.000521029
0.000521468
0.000521925
0.000522399
0.000522889
0.000523397
0.000523923
0.000524468
0.000525033
0.00052562
0.000526233
0.000526875
0.000527551
0.000528266
0.000529028
0.000529845
0.000530726
0.000531683
0.000532728
0.000533876
0.000535141
0.000536545
0.000538104
0.000539846
0.00054179
0.000543976
0.000546418
0.000549181
0.000552256
0.000555763
0.00055963
0.000564068
0.00056897
0.00057424
0.000583191
0.00051131
0.00051131
0.00051131
0.00051131
0.00051131
0.00051131
0.00051131
0.00051131
0.00051131
0.00051131
0.00051131
0.00051131
0.00051131
0.000511329
0.00051133
0.000511331
0.000511332
0.000511333
0.000511334
0.000511335
0.000511337
0.000511338
0.000511339
0.000511341
0.000511342
0.000511344
0.000511346
0.000511347
0.000511349
0.000511352
0.000511354
0.000511356
0.000511359
0.000511362
0.000511365
0.000511368
0.000511372
0.000511376
0.00051138
0.000511384
0.000511389
0.000511394
0.000511399
0.000511404
0.00051141
0.000511416
0.000511423
0.00051143
0.000511437
0.000511444
0.000511452
0.00051146
0.000511469
0.000511477
0.000511486
0.000511495
0.000511505
0.000511515
0.000511525
0.000511535
0.000511546
0.000511557
0.000511569
0.000511581
0.000511593
0.000511606
0.00051162
0.000511635
0.00051165
0.000511666
0.000511682
0.0005117
0.000511718
0.000511737
0.000511757
0.000511778
0.0005118
0.000511823
0.000511848
0.000511873
0.0005119
0.000511928
0.000511959
0.000511991
0.000512025
0.000512062
0.000512102
0.000512144
0.00051219
0.00051224
0.000512294
0.000512353
0.000512417
0.000512485
0.00051256
0.000512641
0.000512728
0.000512822
0.000512923
0.000513031
0.000513147
0.000513272
0.000513404
0.000513546
0.000513696
0.000513855
0.000514023
0.0005142
0.000514386
0.000514581
0.000514785
0.000514996
0.000515215
0.000515441
0.000515674
0.000515913
0.000516157
0.000516407
0.000516661
0.000516921
0.000517186
0.000517457
0.000517734
0.00051802
0.000518315
0.00051862
0.000518939
0.000519272
0.000519623
0.000519991
0.000520381
0.000520792
0.000521227
0.000521687
0.000522172
0.000522685
0.000523224
0.00052379
0.000524384
0.000525006
0.000525656
0.000526335
0.000527043
0.000527782
0.000528554
0.000529362
0.000530208
0.000531097
0.000532036
0.000533031
0.000534091
0.000535227
0.00053645
0.000537774
0.000539217
0.000540798
0.000542536
0.000544456
0.000546586
0.000548956
0.000551598
0.000554551
0.000557855
0.000561558
0.000565709
0.000570364
0.000575584
0.000581432
0.000587977
0.000595293
0.000603453
0.000612533
0.000622609
0.000633755
0.00064604
0.000659534
0.000674297
0.000690385
0.000707839
0.000726688
0.000746948
0.000768623
0.000791701
0.000816149
0.000841922
0.000868953
0.000897172
0.00092651
0.000956944
0.000988363
0.00102067
0.00105369
0.00108734
0.00112138
0.00115576
0.00119016
0.00122463
0.00125872
0.00129264
0.00132579
0.00135863
0.00139028
0.00142154
0.00145173
0.0014789
0.00151937
0.000511313
0.000511313
0.000511313
0.000511313
0.000511313
0.000511313
0.000511313
0.000511313
0.000511313
0.000511313
0.000511313
0.000511313
0.000511313
0.000511418
0.000511425
0.000511432
0.000511439
0.000511447
0.000511456
0.000511464
0.000511474
0.000511483
0.000511494
0.000511505
0.000511516
0.000511528
0.00051154
0.000511553
0.000511566
0.00051158
0.000511595
0.000511609
0.000511625
0.000511641
0.000511657
0.000511675
0.000511693
0.000511711
0.000511731
0.000511752
0.000511773
0.000511796
0.000511819
0.000511844
0.00051187
0.000511898
0.000511927
0.000511957
0.000511989
0.000512023
0.000512058
0.000512095
0.000512135
0.000512176
0.00051222
0.000512267
0.000512317
0.000512371
0.000512428
0.000512489
0.000512555
0.000512626
0.000512702
0.000512785
0.000512874
0.00051297
0.000513075
0.000513187
0.000513308
0.000513438
0.000513578
0.000513729
0.00051389
0.000514062
0.000514246
0.000514441
0.000514649
0.00051487
0.000515102
0.000515348
0.000515606
0.000515876
0.000516159
0.000516453
0.000516758
0.000517074
0.000517401
0.000517738
0.000518085
0.000518441
0.000518808
0.000519185
0.000519573
0.000519974
0.000520389
0.00052082
0.000521268
0.000521737
0.000522228
0.000522743
0.000523286
0.000523857
0.00052446
0.000525096
0.000525767
0.000526474
0.000527218
0.000528001
0.000528823
0.000529687
0.000530593
0.000531543
0.00053254
0.000533587
0.000534688
0.000535849
0.000537076
0.000538378
0.000539764
0.000541248
0.000542843
0.000544567
0.00054644
0.000548483
0.000550723
0.000553189
0.000555914
0.000558934
0.000562292
0.000566034
0.00057021
0.000574878
0.000580099
0.000585941
0.000592476
0.00059978
0.000607936
0.000617028
0.000627143
0.000638368
0.000650793
0.000664503
0.000679581
0.000696103
0.000714137
0.00073374
0.000754954
0.000777805
0.000802305
0.000828442
0.000856184
0.000885475
0.000916235
0.000948367
0.000981751
0.00101629
0.00105191
0.00108846
0.00112576
0.00116361
0.00120179
0.0012401
0.00127832
0.00131622
0.00135363
0.00139036
0.00142624
0.00146113
0.00149489
0.0015274
0.00155856
0.0015883
0.00161653
0.00164321
0.00166831
0.00169179
0.00171364
0.00173387
0.00175249
0.00176951
0.00178498
0.00179893
0.00181143
0.00182255
0.0018324
0.00184109
0.00184895
0.00185802
0.00186716
0.00187481
0.00188106
0.00188596
0.0018896
0.00189207
0.00189349
0.00189397
0.00189363
0.00189264
0.0018911
0.00188922
0.00188698
0.0018847
0.00188218
0.00187978
0.00187742
0.00187305
0.000511325
0.000511326
0.000511326
0.000511326
0.000511326
0.000511327
0.000511327
0.000511327
0.000511327
0.000511327
0.000511326
0.000511326
0.000511326
0.000511326
0.000511916
0.000511946
0.000511978
0.000512012
0.000512048
0.000512085
0.000512124
0.000512165
0.000512209
0.000512255
0.000512303
0.000512354
0.000512408
0.000512465
0.000512525
0.000512589
0.000512657
0.00051273
0.000512807
0.00051289
0.000512978
0.000513073
0.000513175
0.000513285
0.000513403
0.00051353
0.000513666
0.000513814
0.000513972
0.000514142
0.000514325
0.000514521
0.000514731
0.000514956
0.000515195
0.000515451
0.000515722
0.00051601
0.000516315
0.000516637
0.000516976
0.000517332
0.000517705
0.000518095
0.000518501
0.000518923
0.000519361
0.000519816
0.000520286
0.000520773
0.000521276
0.000521797
0.000522337
0.000522898
0.000523482
0.00052409
0.000524725
0.00052539
0.000526089
0.000526822
0.000527594
0.000528407
0.000529263
0.000530165
0.000531115
0.000532116
0.000533169
0.000534277
0.000535443
0.000536669
0.000537961
0.000539323
0.000540761
0.000542282
0.000543896
0.000545615
0.000547452
0.000549423
0.000551547
0.000553846
0.000556346
0.000559076
0.000562068
0.00056536
0.000568994
0.000573015
0.000577475
0.000582433
0.00058795
0.000594097
0.000600946
0.000608579
0.000617081
0.000626542
0.000637055
0.000648717
0.000661626
0.000675879
0.00069157
0.000708789
0.000727617
0.000748125
0.000770372
0.000794399
0.000820228
0.000847858
0.000877266
0.000908402
0.000941188
0.000975521
0.00101127
0.00104829
0.00108642
0.00112555
0.00116553
0.00120614
0.00124714
0.0012883
0.00132936
0.00137007
0.0014102
0.00144949
0.00148775
0.00152478
0.00156041
0.00159451
0.00162695
0.00165765
0.00168653
0.00171355
0.00173868
0.0017619
0.00178322
0.00180265
0.00182024
0.00183601
0.00185006
0.00186245
0.0018733
0.00188272
0.00189087
0.00189807
0.00190649
0.00191457
0.00192107
0.00192612
0.00192982
0.00193228
0.00193364
0.00193403
0.00193363
0.00193261
0.00193115
0.00192938
0.00192742
0.00192537
0.00192334
0.00192137
0.00191955
0.0019179
0.00191646
0.00191521
0.00191416
0.00191328
0.00191256
0.00191198
0.00191149
0.00191107
0.00191067
0.00191025
0.00190978
0.00190921
0.00190849
0.00190743
0.00190366
0.00189753
0.00189107
0.00188426
0.0018771
0.0018698
0.00186246
0.00185512
0.00184788
0.00184073
0.00183379
0.00182695
0.00182041
0.00181389
0.00180777
0.00180154
0.00179563
0.0017902
0.00177941
0.000511383
0.000511385
0.000511386
0.000511387
0.000511387
0.000511388
0.000511388
0.000511388
0.000511388
0.000511387
0.000511386
0.000511385
0.000511384
0.000511383
0.000514354
0.00051454
0.00051474
0.000514955
0.000515185
0.000515431
0.000515695
0.000515977
0.000516278
0.000516598
0.00051694
0.000517302
0.000517686
0.000518093
0.000518522
0.000518973
0.000519447
0.000519944
0.000520465
0.000521007
0.000521573
0.000522163
0.000522775
0.000523412
0.000524074
0.000524763
0.000525479
0.000526225
0.000527003
0.000527817
0.000528668
0.00052956
0.000530496
0.00053148
0.000532514
0.000533603
0.000534749
0.000535956
0.000537227
0.000538565
0.000539975
0.000541461
0.000543029
0.000544683
0.000546431
0.000548282
0.000550247
0.000552339
0.000554573
0.000556966
0.000559542
0.000562323
0.000565339
0.000568621
0.000572207
0.000576138
0.00058046
0.000585223
0.000590485
0.000596308
0.000602761
0.000609917
0.000617859
0.000626672
0.000636449
0.000647286
0.000659283
0.000672544
0.000687171
0.000703268
0.000720934
0.000740263
0.000761339
0.000784234
0.000809007
0.000835694
0.000864312
0.00089485
0.000927269
0.000961502
0.000997447
0.00103497
0.00107392
0.0011141
0.00115531
0.00119736
0.00124011
0.00128329
0.00132664
0.00136988
0.00141273
0.00145489
0.00149609
0.00153609
0.00157467
0.00161164
0.00164683
0.00168011
0.00171138
0.00174057
0.00176763
0.00179253
0.00181527
0.00183588
0.00185439
0.00187086
0.00188539
0.00189807
0.00190903
0.00191843
0.00192642
0.0019332
0.00193967
0.00194732
0.00195345
0.00195812
0.00196149
0.00196367
0.00196479
0.00196502
0.00196454
0.00196354
0.00196219
0.00196064
0.00195901
0.0019574
0.00195589
0.00195454
0.00195338
0.00195243
0.00195169
0.00195114
0.00195076
0.00195051
0.00195037
0.00195028
0.0019502
0.00195007
0.00194986
0.00194951
0.00194897
0.00194808
0.00194427
0.00193834
0.00193211
0.00192553
0.00191865
0.0019117
0.00190478
0.00189793
0.00189124
0.00188474
0.00187845
0.00187236
0.00186647
0.00186076
0.00185519
0.00184975
0.00184438
0.00183905
0.00183371
0.00182831
0.00182278
0.00181708
0.00181115
0.00180492
0.00179835
0.00179138
0.00178395
0.001776
0.00176749
0.00175837
0.00174861
0.00173817
0.00172728
0.00171652
0.00170605
0.00169588
0.00168606
0.00167651
0.00166718
0.00165801
0.00164902
0.00164006
0.00163124
0.00162233
0.00161357
0.00160452
0.00159574
0.00158643
0.00157739
0.00156872
0.00154902
0.000511627
0.000511632
0.000511636
0.000511639
0.000511641
0.000511642
0.000511641
0.00051164
0.000511638
0.000511634
0.00051163
0.000511625
0.000511619
0.000511613
0.000528171
0.000529087
0.000530042
0.000531041
0.000532086
0.000533181
0.000534329
0.000535534
0.0005368
0.000538132
0.000539532
0.000541007
0.000542559
0.000544195
0.000545918
0.000547735
0.000549653
0.000551679
0.000553822
0.000556095
0.000558509
0.00056108
0.000563827
0.000566772
0.000569938
0.000573356
0.000577058
0.000581082
0.000585468
0.000590265
0.000595524
0.000601303
0.000607665
0.00061468
0.000622421
0.00063097
0.000640416
0.00065085
0.000662372
0.000675084
0.00068909
0.000704499
0.000721415
0.000739944
0.000760183
0.000782223
0.000806144
0.000832008
0.000859862
0.000889727
0.0009216
0.000955444
0.000991194
0.00102875
0.00106796
0.00110867
0.00115067
0.00119373
0.0012376
0.00128205
0.00132688
0.00137181
0.00141654
0.00146074
0.00150412
0.00154637
0.00158723
0.00162644
0.0016638
0.00169915
0.00173233
0.00176326
0.00179186
0.00181809
0.00184195
0.00186346
0.00188266
0.00189963
0.00191447
0.0019273
0.00193826
0.00194755
0.00195534
0.00196183
0.00196732
0.00197374
0.00197947
0.00198377
0.00198682
0.00198876
0.00198973
0.00198989
0.00198944
0.00198857
0.00198747
0.00198627
0.00198507
0.00198396
0.001983
0.00198223
0.00198166
0.00198128
0.00198109
0.00198105
0.00198111
0.00198124
0.00198138
0.00198148
0.00198148
0.00198133
0.00198099
0.00198039
0.00197875
0.00197364
0.00196798
0.00196207
0.00195586
0.00194951
0.0019432
0.00193698
0.00193089
0.00192499
0.00191928
0.00191375
0.0019084
0.0019032
0.00189812
0.00189311
0.00188812
0.0018831
0.00187799
0.00187273
0.00186725
0.0018615
0.0018554
0.00184891
0.00184195
0.00183447
0.00182642
0.00181775
0.00180842
0.00179841
0.001788
0.00177778
0.00176789
0.00175836
0.0017492
0.00174033
0.00173168
0.00172322
0.0017149
0.00170666
0.00169845
0.00169023
0.00168196
0.00167358
0.00166507
0.0016564
0.00164753
0.00163846
0.00162916
0.00161964
0.00160988
0.00159989
0.00158969
0.0015793
0.00156874
0.00155805
0.00154727
0.00153646
0.00152566
0.00151495
0.00150438
0.00149402
0.00148391
0.00147404
0.00146435
0.0014548
0.00144537
0.001436
0.00142671
0.00141749
0.00140835
0.00139926
0.00139029
0.00138136
0.00137261
0.00136386
0.00135551
0.0013469
0.00133894
0.00133059
0.0013097
0.000512714
0.000512734
0.000512749
0.00051276
0.000512766
0.000512767
0.000512764
0.000512756
0.000512744
0.000512727
0.000512708
0.000512685
0.000512658
0.000584926
0.000589289
0.000594017
0.000599156
0.000604758
0.000610877
0.000617576
0.000624921
0.000632986
0.000641849
0.000651595
0.000662313
0.000674099
0.000687054
0.000701281
0.000716886
0.000733978
0.000752662
0.000773039
0.000795207
0.000819253
0.00084525
0.000873255
0.000903305
0.000935409
0.000969548
0.00100567
0.00104368
0.00108347
0.00112485
0.00116764
0.0012116
0.00125647
0.00130197
0.00134782
0.00139378
0.00143958
0.00148489
0.00152937
0.00157271
0.00161461
0.00165479
0.00169301
0.00172907
0.00176282
0.00179415
0.00182297
0.00184924
0.00187298
0.0018942
0.00191296
0.00192937
0.00194354
0.00195563
0.00196582
0.00197433
0.00198138
0.00198715
0.00199192
0.00199732
0.00200216
0.00200571
0.00200812
0.00200957
0.00201021
0.0020102
0.00200975
0.00200903
0.00200822
0.00200741
0.00200669
0.00200612
0.00200573
0.00200554
0.00200553
0.00200568
0.00200594
0.00200628
0.00200664
0.00200695
0.00200715
0.00200718
0.00200698
0.00200651
0.00200564
0.00200217
0.00199709
0.00199182
0.00198629
0.00198058
0.00197489
0.0019693
0.00196385
0.00195858
0.00195349
0.00194857
0.0019438
0.00193914
0.00193454
0.00192996
0.00192533
0.0019206
0.0019157
0.00191057
0.00190513
0.00189932
0.00189308
0.00188635
0.00187906
0.00187118
0.00186264
0.00185343
0.00184363
0.00183372
0.0018241
0.0018148
0.00180586
0.00179723
0.00178883
0.00178059
0.00177248
0.00176444
0.00175641
0.00174837
0.00174026
0.00173204
0.0017237
0.0017152
0.00170652
0.00169764
0.00168856
0.00167928
0.0016698
0.00166013
0.0016503
0.00164034
0.00163028
0.00162017
0.00161006
0.0016
0.00159006
0.0015803
0.00157074
0.00156136
0.00155207
0.00154283
0.00153358
0.00152428
0.00151493
0.0015055
0.001496
0.0014864
0.00147672
0.00146696
0.00145711
0.00144719
0.00143722
0.00142722
0.00141721
0.00140722
0.00139729
0.00138744
0.0013777
0.00136812
0.0013587
0.0013495
0.00134051
0.00133178
0.00132332
0.00131513
0.00130722
0.0012996
0.00129225
0.00128517
0.00127834
0.00127174
0.00126537
0.00125923
0.00125332
0.00124764
0.0012422
0.00123697
0.00123199
0.0012272
0.00122266
0.00121829
0.00121415
0.00121024
0.00120642
0.00120288
0.00119895
0.00119398
0.00117427
0.000517033
0.000517096
0.000517141
0.000517165
0.00051717
0.000517157
0.000517128
0.000517082
0.000517022
0.000516946
0.000516856
0.000516754
0.000516642
0.00105185