/*--------------------------------*- C++ -*----------------------------------*\
| =========                 |                                                 |
| \\      /  F ield         | OpenFOAM: The Open Source CFD Toolbox           |
|  \\    /   O peration     | Version:  v1706                                 |
|   \\  /    A nd           | Web:      www.OpenFOAM.com                      |
|    \\/     M anipulation  |                                                 |
\*---------------------------------------------------------------------------*/
FoamFile
{
    version     2.0;
    format      ascii;
    class       volScalarField;
    location    "4e-06";
    object      Tov;
}
// * * * * * * * * * * * * * * * * * * * * * * * * * * * * * * * * * * * * * //

dimensions      [0 0 0 1 0 0 0];


internalField   nonuniform List<scalar> 
30104
(
144.4
144.4
144.4
144.4
144.4
144.4
144.4
144.4
144.4
144.4
144.4
144.4
144.4
144.4
144.4
144.4
144.4
144.4
144.4
144.4
144.4
144.4
144.4
144.4
144.4
144.4
144.4
144.4
144.4
144.4
144.4
144.4
144.4
144.4
144.4
144.4
144.4
144.4
144.4
144.4
144.4
144.4
144.4
144.4
144.4
144.4
144.4
144.4
144.4
144.4
144.4
144.4
144.4
144.4
144.4
144.4
144.4
144.4
144.4
144.4
144.4
144.4
144.4
144.4
144.4
144.4
144.4
144.4
144.4
144.4
144.4
144.4
144.4
144.4
144.4
144.4
144.4
144.4
144.4
144.4
144.4
144.4
144.4
144.4
144.4
144.4
144.4
144.4
144.4
144.4
144.4
144.4
144.4
144.4
144.4
144.4
144.4
144.4
144.4
144.4
144.4
144.4
144.4
144.4
144.4
144.4
144.4
144.4
144.4
144.4
144.4
144.4
144.4
144.4
144.4
144.4
144.4
144.4
144.4
144.4
144.4
144.4
144.4
144.4
144.4
144.4
144.4
144.4
144.4
144.4
144.4
144.4
144.4
144.4
144.4
144.4
144.4
144.4
144.4
144.4
144.4
144.4
144.4
144.4
144.4
144.4
144.4
144.4
144.4
144.4
144.4
144.4
144.4
144.4
144.4
144.4
144.4
144.4
144.4
144.4
144.4
144.4
144.4
144.4
144.4
144.4
144.4
144.4
144.4
144.4
144.4
144.4
144.4
144.4
144.4
144.4
144.4
144.4
144.4
144.4
144.4
144.4
144.4
144.4
144.4
144.4
144.4
144.4
144.4
144.4
144.4
144.4
144.4
144.4
144.4
144.4
144.4
144.4
144.4
144.4
144.4
144.4
144.4
144.4
144.4
144.4
144.4
144.4
144.4
144.4
144.4
144.4
144.4
144.4
144.4
144.4
144.4
144.4
144.4
144.4
144.4
144.4
144.4
144.4
144.4
144.4
144.4
144.4
144.4
144.4
144.4
144.4
144.4
144.4
144.4
144.4
144.4
144.4
144.4
144.4
144.4
144.4
144.4
144.4
144.4
144.4
144.4
144.4
144.4
144.4
144.4
144.4
144.4
144.4
144.4
144.4
144.4
144.4
144.4
144.4
144.4
144.4
144.4
144.4
144.4
144.4
144.4
144.4
144.4
144.4
144.4
144.4
144.4
144.4
144.4
144.4
144.4
144.4
144.4
144.4
144.4
144.4
144.4
144.4
144.4
144.4
144.4
144.4
144.4
144.4
144.4
144.4
144.4
144.4
144.4
144.4
144.4
144.4
144.4
144.4
144.4
144.4
144.4
144.4
144.4
144.4
144.4
144.4
144.4
144.4
144.4
144.4
144.4
144.4
144.4
144.4
144.4
144.4
144.4
144.4
144.4
144.4
144.4
144.4
144.4
144.4
144.4
144.4
144.4
144.4
144.4
144.4
144.4
144.4
144.4
144.4
144.4
144.4
144.4
144.4
144.4
144.4
144.4
144.4
144.4
144.4
144.4
144.4
144.4
144.4
144.4
144.4
144.4
144.401
144.401
144.401
144.401
144.401
144.401
144.401
144.401
144.401
144.401
144.401
144.401
144.401
144.401
144.401
144.401
144.401
144.401
144.401
144.401
144.401
144.401
144.401
144.401
144.401
144.401
144.402
144.402
144.402
144.402
144.402
144.402
144.402
144.402
144.402
144.402
144.402
144.402
144.403
144.403
144.403
144.403
144.403
144.403
144.403
144.403
144.404
144.404
144.404
144.404
144.404
144.405
144.405
144.405
144.405
144.405
144.406
144.406
144.406
144.407
144.407
144.407
144.407
144.408
144.408
144.408
144.408
144.4
144.4
144.4
144.4
144.4
144.4
144.4
144.4
144.4
144.4
144.4
144.4
144.4
144.4
144.4
144.4
144.4
144.4
144.4
144.4
144.4
144.4
144.4
144.4
144.4
144.4
144.4
144.4
144.4
144.4
144.4
144.4
144.4
144.4
144.4
144.4
144.4
144.4
144.4
144.4
144.4
144.4
144.4
144.4
144.4
144.4
144.4
144.4
144.4
144.4
144.4
144.4
144.4
144.4
144.4
144.4
144.4
144.4
144.4
144.4
144.4
144.4
144.4
144.4
144.4
144.4
144.4
144.4
144.4
144.4
144.4
144.4
144.4
144.4
144.4
144.4
144.4
144.4
144.4
144.4
144.4
144.4
144.4
144.4
144.4
144.4
144.4
144.4
144.4
144.4
144.4
144.4
144.4
144.401
144.401
144.401
144.401
144.401
144.401
144.401
144.401
144.401
144.401
144.401
144.401
144.401
144.401
144.401
144.401
144.401
144.401
144.401
144.401
144.401
144.401
144.401
144.401
144.402
144.402
144.402
144.402
144.402
144.402
144.402
144.402
144.402
144.402
144.402
144.402
144.403
144.403
144.403
144.403
144.403
144.403
144.403
144.404
144.404
144.404
144.404
144.404
144.404
144.405
144.405
144.405
144.405
144.405
144.406
144.406
144.406
144.407
144.407
144.407
144.408
144.408
144.408
144.409
144.409
144.41
144.41
144.411
144.411
144.412
144.412
144.413
144.414
144.414
144.415
144.416
144.416
144.417
144.418
144.419
144.419
144.42
144.421
144.422
144.423
144.424
144.425
144.426
144.428
144.429
144.43
144.431
144.433
144.434
144.436
144.437
144.439
144.441
144.443
144.445
144.447
144.449
144.451
144.453
144.456
144.459
144.461
144.464
144.467
144.47
144.474
144.477
144.481
144.484
144.489
144.485
144.4
144.4
144.4
144.4
144.4
144.4
144.4
144.4
144.4
144.4
144.4
144.4
144.4
144.4
144.4
144.4
144.4
144.4
144.4
144.4
144.4
144.4
144.4
144.4
144.4
144.4
144.4
144.4
144.4
144.4
144.4
144.4
144.4
144.4
144.4
144.4
144.4
144.4
144.4
144.4
144.4
144.4
144.4
144.4
144.4
144.4
144.4
144.4
144.4
144.4
144.401
144.401
144.401
144.401
144.401
144.401
144.401
144.401
144.401
144.401
144.401
144.401
144.401
144.401
144.401
144.401
144.401
144.401
144.401
144.401
144.401
144.401
144.401
144.402
144.402
144.402
144.402
144.402
144.402
144.402
144.402
144.402
144.402
144.402
144.402
144.403
144.403
144.403
144.403
144.403
144.403
144.403
144.404
144.404
144.404
144.404
144.404
144.405
144.405
144.405
144.405
144.406
144.406
144.406
144.406
144.407
144.407
144.407
144.408
144.408
144.408
144.409
144.409
144.41
144.41
144.411
144.411
144.412
144.412
144.413
144.413
144.414
144.415
144.416
144.416
144.417
144.418
144.419
144.42
144.421
144.422
144.423
144.424
144.426
144.427
144.428
144.43
144.431
144.433
144.434
144.436
144.438
144.439
144.441
144.443
144.445
144.447
144.45
144.452
144.454
144.457
144.46
144.463
144.466
144.469
144.472
144.476
144.479
144.483
144.487
144.492
144.496
144.501
144.506
144.512
144.517
144.523
144.529
144.536
144.542
144.549
144.557
144.564
144.572
144.58
144.589
144.598
144.607
144.617
144.627
144.638
144.649
144.66
144.672
144.684
144.698
144.711
144.726
144.741
144.757
144.773
144.791
144.81
144.83
144.851
144.873
144.897
144.922
144.948
144.976
145.006
145.037
145.071
145.106
145.144
145.183
145.225
145.281
145.259
144.4
144.4
144.4
144.4
144.4
144.4
144.4
144.4
144.4
144.4
144.4
144.4
144.4
144.4
144.4
144.401
144.401
144.401
144.401
144.401
144.401
144.401
144.401
144.401
144.401
144.401
144.401
144.401
144.401
144.401
144.401
144.401
144.401
144.402
144.402
144.402
144.402
144.402
144.402
144.402
144.402
144.402
144.402
144.403
144.403
144.403
144.403
144.403
144.403
144.403
144.404
144.404
144.404
144.404
144.404
144.404
144.405
144.405
144.405
144.405
144.406
144.406
144.406
144.407
144.407
144.407
144.408
144.408
144.408
144.409
144.409
144.41
144.41
144.411
144.411
144.412
144.412
144.413
144.414
144.414
144.415
144.416
144.416
144.417
144.418
144.419
144.42
144.421
144.422
144.423
144.424
144.426
144.427
144.428
144.43
144.431
144.433
144.435
144.437
144.439
144.441
144.443
144.445
144.447
144.45
144.452
144.455
144.458
144.461
144.464
144.467
144.47
144.474
144.477
144.481
144.485
144.49
144.494
144.499
144.504
144.509
144.514
144.52
144.526
144.533
144.54
144.547
144.554
144.562
144.571
144.58
144.589
144.599
144.61
144.621
144.632
144.644
144.657
144.67
144.684
144.698
144.713
144.729
144.746
144.763
144.781
144.8
144.82
144.84
144.862
144.885
144.909
144.934
144.961
144.989
145.018
145.05
145.083
145.119
145.157
145.197
145.239
145.284
145.332
145.383
145.437
145.494
145.555
145.619
145.687
145.759
145.835
145.915
146
146.088
146.181
146.278
146.379
146.485
146.595
146.709
146.827
146.949
147.075
147.206
147.34
147.478
147.621
147.769
147.921
148.08
148.244
148.414
148.593
148.78
148.976
149.182
149.401
149.632
149.878
150.14
150.418
150.716
151.034
151.375
151.733
152.242
152.169
144.4
144.4
144.4
144.4
144.4
144.4
144.4
144.4
144.4
144.4
144.4
144.4
144.4
144.4
144.4
144.4
144.404
144.404
144.404
144.405
144.405
144.405
144.405
144.406
144.406
144.406
144.407
144.407
144.407
144.408
144.408
144.408
144.409
144.409
144.41
144.41
144.411
144.411
144.412
144.412
144.413
144.414
144.414
144.415
144.416
144.417
144.417
144.418
144.419
144.42
144.421
144.422
144.423
144.425
144.426
144.427
144.429
144.43
144.432
144.433
144.435
144.437
144.439
144.441
144.443
144.445
144.448
144.45
144.453
144.456
144.459
144.462
144.465
144.468
144.472
144.476
144.48
144.484
144.489
144.493
144.498
144.503
144.509
144.514
144.52
144.527
144.533
144.54
144.547
144.555
144.563
144.572
144.581
144.59
144.6
144.611
144.622
144.634
144.646
144.659
144.673
144.688
144.704
144.72
144.737
144.756
144.775
144.795
144.816
144.838
144.862
144.886
144.912
144.939
144.967
144.996
145.027
145.06
145.094
145.13
145.167
145.207
145.249
145.293
145.34
145.39
145.443
145.499
145.558
145.622
145.689
145.761
145.837
145.918
146.004
146.096
146.193
146.296
146.406
146.521
146.644
146.773
146.909
147.051
147.201
147.357
147.521
147.692
147.869
148.054
148.246
148.445
148.651
148.865
149.088
149.318
149.558
149.808
150.069
150.343
150.63
150.932
151.251
151.589
151.948
152.329
152.735
153.169
153.633
154.129
154.661
155.23
155.84
156.493
157.191
157.937
158.731
159.576
160.472
161.421
162.422
163.474
164.576
165.727
166.923
168.163
169.441
170.755
172.1
173.473
174.871
176.291
177.73
179.187
180.661
182.155
183.667
185.204
186.767
188.369
190.006
191.703
193.449
195.285
197.182
199.216
201.305
203.942
204.313
144.401
144.401
144.401
144.401
144.401
144.401
144.401
144.401
144.401
144.401
144.401
144.401
144.401
144.423
144.424
144.426
144.427
144.428
144.43
144.431
144.433
144.435
144.437
144.438
144.44
144.443
144.445
144.447
144.45
144.452
144.455
144.458
144.461
144.464
144.468
144.471
144.475
144.479
144.483
144.488
144.493
144.498
144.503
144.509
144.514
144.521
144.527
144.534
144.541
144.549
144.557
144.565
144.574
144.584
144.593
144.604
144.615
144.626
144.638
144.651
144.664
144.679
144.694
144.71
144.726
144.744
144.763
144.783
144.804
144.826
144.849
144.874
144.901
144.928
144.958
144.988
145.021
145.055
145.091
145.129
145.168
145.21
145.254
145.3
145.349
145.4
145.453
145.51
145.57
145.633
145.699
145.769
145.844
145.923
146.007
146.096
146.191
146.292
146.4
146.514
146.636
146.766
146.904
147.05
147.205
147.37
147.544
147.728
147.923
148.128
148.343
148.569
148.806
149.053
149.312
149.582
149.863
150.155
150.46
150.777
151.107
151.452
151.812
152.188
152.583
152.998
153.436
153.899
154.39
154.912
155.467
156.06
156.694
157.372
158.098
158.875
159.707
160.597
161.548
162.562
163.641
164.788
166.003
167.287
168.638
170.056
171.538
173.082
174.683
176.337
178.04
179.787
181.574
183.396
185.25
187.135
189.051
190.998
192.978
194.997
197.061
199.178
201.361
203.622
205.976
208.443
211.042
213.795
216.726
219.861
223.227
226.853
230.772
235.012
239.607
244.586
249.979
255.812
262.105
268.868
276.105
283.809
291.962
300.531
309.477
318.744
328.273
337.999
347.86
357.784
367.713
377.57
387.315
396.861
406.21
415.25
424.046
432.445
440.594
448.272
455.758
462.68
469.542
475.647
482.772
486.056
144.405
144.405
144.405
144.405
144.405
144.405
144.405
144.405
144.405
144.405
144.405
144.405
144.404
144.533
144.541
144.548
144.557
144.565
144.574
144.584
144.594
144.604
144.616
144.627
144.64
144.653
144.667
144.681
144.697
144.713
144.73
144.748
144.767
144.787
144.808
144.83
144.854
144.879
144.906
144.934
144.963
144.995
145.028
145.063
145.1
145.14
145.181
145.225
145.272
145.321
145.372
145.427
145.484
145.545
145.608
145.676
145.746
145.821
145.899
145.982
146.069
146.161
146.259
146.362
146.471
146.587
146.71
146.841
146.98
147.128
147.285
147.453
147.631
147.821
148.022
148.236
148.464
148.704
148.959
149.228
149.513
149.812
150.127
150.458
150.805
151.168
151.549
151.946
152.361
152.794
153.247
153.72
154.215
154.734
155.279
155.852
156.456
157.095
157.772
158.491
159.255
160.07
160.94
161.868
162.86
163.92
165.051
166.258
167.544
168.911
170.361
171.896
173.515
175.218
177.003
178.867
180.806
182.816
184.891
187.027
189.217
191.459
193.748
196.082
198.461
200.888
203.367
205.905
208.51
211.195
213.974
216.865
219.888
223.067
226.426
229.993
233.798
237.872
242.247
246.955
252.032
257.508
263.413
269.773
276.606
283.925
291.731
300.014
308.751
317.907
327.435
337.273
347.351
357.593
367.918
378.249
388.517
398.654
408.596
418.284
427.67
436.718
445.399
453.696
461.602
469.119
476.257
483.029
489.457
495.561
501.37
506.911
512.215
517.31
522.224
526.986
531.62
536.149
540.593
544.965
549.278
553.539
557.756
561.935
566.081
570.202
574.338
578.863
583.593
588.228
592.79
597.273
601.631
605.869
610.003
614.045
618.01
621.915
625.798
629.666
633.536
637.411
641.347
645.16
649.788
652.086
144.422
144.422
144.423
144.423
144.423
144.423
144.423
144.423
144.422
144.422
144.422
144.421
144.421
144.42
145.157
145.199
145.244
145.292
145.342
145.395
145.452
145.512
145.575
145.641
145.712
145.786
145.865
145.948
146.035
146.128
146.225
146.328
146.437
146.551
146.672
146.8
146.935
147.077
147.229
147.389
147.559
147.74
147.931
148.135
148.352
148.583
148.828
149.088
149.365
149.659
149.971
150.302
150.652
151.022
151.413
151.826
152.26
152.717
153.196
153.699
154.227
154.779
155.357
155.963
156.597
157.262
157.959
158.692
159.463
160.277
161.137
162.046
163.011
164.036
165.126
166.286
167.522
168.839
170.241
171.733
173.318
175.001
176.782
178.664
180.647
182.73
184.911
187.187
189.553
192.005
194.538
197.146
199.825
202.57
205.379
208.251
211.188
214.194
217.277
220.448
223.72
227.109
230.637
234.324
238.197
242.285
246.615
251.222
256.136
261.392
267.022
273.055
279.518
286.432
293.813
301.665
309.984
318.753
327.941
337.508
347.398
357.544
367.874
378.305
388.757
399.147
409.401
419.459
429.268
438.779
447.952
456.757
465.176
473.197
480.82
488.051
494.905
501.403
507.57
513.435
519.027
524.377
529.516
534.468
539.261
543.914
548.444
552.863
557.182
561.407
565.542
569.591
573.559
577.453
581.284
585.092
589.256
593.538
597.712
601.809
605.808
609.686
613.462
617.155
620.78
624.369
627.954
631.546
635.156
638.798
642.481
646.212
649.996
653.836
657.731
661.679
665.677
669.724
673.815
677.949
682.12
686.325
690.561
694.826
699.118
703.434
707.768
712.095
716.066
719.666
723.135
726.468
729.712
733.024
736.425
739.915
743.496
747.172
750.949
754.82
758.797
762.851
767.02
771.267
775.484
780.742
782.954
144.503
144.504
144.504
144.505
144.505
144.505
144.504
144.503
144.502
144.5
144.498
144.496
144.494
144.492
148.583
148.822
149.076
149.346
149.632
149.937
150.26
150.603
150.968
151.355
151.766
152.201
152.662
153.149
153.664
154.208
154.781
155.384
156.018
156.685
157.384
158.118
158.888
159.695
160.542
161.431
162.364
163.347
164.381
165.471
166.623
167.842
169.132
170.5
171.951
173.492
175.128
176.864
178.706
180.656
182.719
184.897
187.19
189.6
192.124
194.761
197.507
200.357
203.307
206.352
209.487
212.709
216.014
219.401
222.874
226.435
230.093
233.858
237.746
241.775
245.965
250.34
254.927
259.755
264.853
270.252
275.983
282.076
288.557
295.451
302.773
310.534
318.737
327.371
336.417
345.842
355.601
365.637
375.884
386.269
396.711
407.13
417.445
427.583
437.477
447.076
456.35
465.267
473.802
481.944
489.689
497.039
504.007
510.61
516.872
522.82
528.481
533.884
539.056
544.019
548.796
553.402
557.852
562.156
566.321
570.351
574.252
578.03
581.693
585.252
588.722
592.124
595.597
599.427
603.171
606.84
610.452
613.975
617.418
620.803
624.144
627.475
630.822
634.192
637.594
641.038
644.529
648.07
651.661
655.3
658.986
662.715
666.482
670.284
674.12
677.983
681.87
685.78
689.711
693.662
697.633
701.6
705.192
708.462
711.615
714.645
717.653
720.75
723.94
727.226
730.61
734.095
737.68
741.362
745.137
749.002
752.951
756.977
761.075
765.237
769.457
773.725
778.034
782.377
786.745
791.131
795.525
799.918
804.301
808.662
812.992
817.277
821.504
825.663
829.803
834.058
838.476
843.077
847.841
852.672
857.559
862.507
867.517
872.582
877.71
882.875
888.114
893.354
898.698
903.999
909.297
916.055
915.752
144.865
144.869
144.871
144.871
144.87
144.868
144.864
144.859
144.852
144.844
144.835
144.825
144.815
144.803
166.354
167.556
168.819
170.149
171.55
173.028
174.588
176.236
177.979
179.823
181.774
183.837
186.017
188.319
190.746
193.302
195.986
198.8
201.743
204.811
208.003
211.315
214.741
218.278
221.922
225.669
229.518
233.468
237.524
241.69
245.975
250.393
254.958
259.69
264.61
269.744
275.117
280.757
286.691
292.944
299.544
306.51
313.861
321.606
329.751
338.289
347.205
356.474
366.058
375.909
385.971
396.178
406.458
416.735
426.935
436.983
446.813
456.367
465.594
474.464
482.966
491.086
498.818
506.165
513.135
519.742
526.005
531.947
537.592
542.964
548.087
552.98
557.662
562.148
566.448
570.571
574.524
578.314
581.947
585.434
588.786
592.02
595.157
598.219
601.244
604.554
607.93
611.24
614.516
617.748
620.921
624.053
627.157
630.266
633.401
636.563
639.76
642.998
646.276
649.596
652.955
656.349
659.775
663.231
666.71
670.213
673.735
677.277
680.837
684.412
688.006
691.618
695.135
698.198
701.139
703.988
706.766
709.609
712.55
715.587
718.722
721.954
725.283
728.702
732.207
735.794
739.456
743.187
746.979
750.825
754.72
758.655
762.623
766.616
770.625
774.642
778.658
782.662
786.643
790.59
794.489
798.332
802.174
806.138
810.268
814.586
819.039
823.56
828.15
832.81
837.537
842.329
847.182
852.092
857.053
862.061
867.109
872.193
877.307
882.446
887.605
892.779
897.967
903.163
908.368
913.58
918.8
924.032
929.278
934.548
939.848
945.191
950.592
956.069
961.637
967.295
973.026
978.807
984.616
990.437
996.273
1002.12
1007.98
1013.84
1019.72
1025.59
1031.49
1037.37
1043.33
1049.15
1055.03
1060.86
1057.64
146.469
146.48
146.484
146.482
146.472
146.456
146.434
146.406
146.373
146.335
146.293
146.248
146.199
239.046
243.401
247.873
252.468
257.19
262.048
267.054
272.223
277.573
283.123
288.896
294.915
301.202
307.78
314.668
321.883
329.439
337.342
345.592
354.183
363.098
372.312
381.789
391.486
401.35
411.321
421.335
431.324
441.22
450.958
460.476
469.722
478.65
487.228
495.432
503.264
510.724
517.815
524.545
530.926
536.975
542.71
548.149
553.313
558.219
562.885
567.325
571.55
575.57
579.395
583.033
586.493
589.785
592.925
595.931
598.826
601.636
604.385
607.105
610.056
613.098
616.096
619.076
622.045
624.978
627.885
630.782
633.695
636.636
639.604
642.604
645.636
648.701
651.796
654.92
658.066
661.235
664.425
667.633
670.859
674.103
677.362
680.636
683.929
687.224
690.215
692.984
695.683
698.307
700.935
703.654
706.467
709.372
712.37
715.455
718.623
721.869
725.187
728.571
732.015
735.511
739.054
742.635
746.248
749.884
753.536
757.195
760.852
764.495
768.114
771.698
775.235
778.738
782.295
785.99
789.847
793.869
797.978
802.158
806.411
810.736
815.129
819.587
824.106
828.68
833.306
837.978
842.691
847.442
852.227
857.042
861.885
866.755
871.649
876.569
881.517
886.496
891.511
896.572
901.689
906.876
912.152
917.529
923.005
928.56
934.171
939.812
945.474
951.154
956.85
962.556
968.271
973.991
979.713
985.436
991.155
996.871
1002.58
1008.28
1013.98
1019.67
1025.37
1031.06
1036.75
1042.46
1048.17
1053.91
1059.66
1065.44
1071.24
1077.07
1082.92
1088.8
1094.69
1100.59
1106.48
1112.36
1118.22
1124.07
1129.9
1135.72
1141.52
1147.3
1153.05
1158.79
1164.5
1170.21
1175.91
1181.59
1187.15
1192.45
1195.46
1189.45
153.263
153.286
153.282
153.25
153.189
153.102
152.991
152.858
152.705
152.535
152.349
152.149
151.938
443.32
452.832
462.195
471.355
480.263
488.879
497.171
505.115
512.696
519.915
526.783
533.307
539.495
545.358
550.911
556.168
561.145
565.857
570.316
574.537
578.529
582.305
585.873
589.244
592.431
595.447
598.311
601.044
603.671
606.222
608.723
611.199
613.76
616.532
619.279
622.009
624.744
627.475
630.188
632.891
635.604
638.34
641.1
643.884
646.695
649.529
652.385
655.263
658.162
661.08
664.015
666.969
669.94
672.928
675.928
678.942
681.965
684.758
687.348
689.886
692.371
694.837
697.38
700.014
702.733
705.537
708.42
711.378
714.406
717.497
720.647
723.849
727.096
730.382
733.699
737.041
740.398
743.761
747.121
750.467
753.788
757.074
760.327
763.575
766.919
770.396
774.027
777.777
781.599
785.489
789.447
793.471
797.555
801.697
805.891
810.134
814.42
818.746
823.108
827.502
831.925
836.377
840.857
845.366
849.907
854.484
859.106
863.781
868.523
873.348
878.274
883.308
888.443
893.657
898.929
904.242
909.595
914.985
920.41
925.865
931.349
936.857
942.387
947.937
953.504
959.088
964.688
970.304
975.937
981.588
987.259
992.951
998.666
1004.41
1010.17
1015.96
1021.78
1027.63
1033.49
1039.36
1045.23
1051.09
1056.93
1062.74
1068.52
1074.28
1080
1085.69
1091.36
1096.99
1102.6
1108.18
1113.73
1119.27
1124.78
1130.27
1135.75
1141.21
1146.66
1152.1
1157.52
1162.93
1168.33
1173.71
1179.07
1184.41
1189.72
1194.99
1200.22
1205.41
1210.54
1215.62
1220.63
1225.57
1230.45
1235.26
1240
1244.66
1249.23
1253.72
1258.11
1262.39
1266.56
1270.6
1274.51
1278.31
1281.9
1285.18
1286.86
1285.81
1276.91
179.242
179.158
178.967
178.674
178.29
177.824
177.287
176.684
176.023
175.31
174.55
173.75
597.169
599.948
602.579
605.084
607.49
609.827
612.119
614.394
616.676
619.154
621.685
624.197
626.708
629.234
631.761
634.281
636.8
639.335
641.888
644.459
647.05
649.663
652.295
654.947
657.618
660.308
663.017
665.743
668.487
671.243
674.007
676.778
679.486
681.94
684.341
686.711
689.042
691.395
693.829
696.344
698.937
701.605
704.341
707.143
710.004
712.919
715.883
718.888
721.929
724.997
728.086
731.185
734.285
737.375
740.446
743.495
746.518
749.529
752.616
755.816
759.147
762.604
766.134
769.731
773.392
777.115
780.896
784.731
788.615
792.544
796.514
800.519
804.556
808.624
812.719
816.841
820.992
825.174
829.392
833.655
837.974
842.364
846.84
851.417
856.098
860.869
865.713
870.608
875.548
880.532
885.556
890.619
895.719
900.853
906.019
911.217
916.447
921.707
926.999
932.324
937.684
943.081
948.518
953.998
959.523
965.094
970.714
976.38
982.091
987.841
993.619
999.415
1005.22
1011.02
1016.82
1022.61
1028.4
1034.18
1039.94
1045.69
1051.43
1057.15
1062.85
1068.54
1074.21
1079.86
1085.5
1091.12
1096.72
1102.31
1107.87
1113.42
1118.94
1124.44
1129.91
1135.35
1140.75
1146.11
1151.42
1156.68
1161.89
1167.04
1172.15
1177.2
1182.2
1187.14
1192.04
1196.88
1201.68
1206.42
1211.12
1215.77
1220.37
1224.92
1229.42
1233.86
1238.24
1242.56
1246.82
1251.02
1255.14
1259.17
1263.11
1266.95
1270.67
1274.26
1277.71
1281
1284.11
1287.04
1289.76
1292.26
1294.51
1296.5
1298.21
1299.72
1301.07
1302.23
1303.22
1304.03
1304.66
1305.12
1305.39
1305.53
1305.48
1305.38
1304.91
1303.92
1301.08
1296.05
1286.49
255.819
255.374
254.649
253.656
252.444
251.05
249.489
247.774
245.915
243.923
654.593
657.061
659.55
662.058
664.582
667.121
669.665
672.211
674.766
677.145
679.414
681.665
683.896
686.104
688.347
690.665
693.057
695.518
698.045
700.634
703.279
705.977
708.721
711.504
714.319
717.16
720.017
722.881
725.742
728.591
731.428
734.249
737.046
739.877
742.796
745.819
748.963
752.206
755.516
758.888
762.321
765.81
769.352
772.942
776.576
780.248
783.956
787.694
791.461
795.256
799.078
802.928
806.813
810.737
814.712
818.751
822.868
827.078
831.385
835.782
840.253
844.78
849.352
853.968
858.626
863.323
868.058
872.828
877.634
882.473
887.347
892.256
897.202
902.188
907.217
912.292
917.417
922.595
927.83
933.124
938.475
943.883
949.341
954.84
960.371
965.925
971.498
977.088
982.693
988.311
993.941
999.581
1005.23
1010.89
1016.55
1022.23
1027.91
1033.59
1039.29
1044.99
1050.69
1056.39
1062.1
1067.8
1073.49
1079.17
1084.83
1090.46
1096.07
1101.64
1107.16
1112.64
1118.08
1123.47
1128.81
1134.11
1139.36
1144.57
1149.73
1154.84
1159.91
1164.94
1169.91
1174.84
1179.72
1184.56
1189.34
1194.06
1198.73
1203.35
1207.89
1212.38
1216.79
1221.13
1225.4
1229.6
1233.71
1237.75
1241.71
1245.59
1249.4
1253.14
1256.8
1260.38
1263.87
1267.28
1270.58
1273.79
1276.88
1279.84
1282.66
1285.34
1287.84
1290.15
1292.25
1294.11
1295.73
1297.15
1298.41
1299.52
1300.46
1301.24
1301.85
1302.3
1302.58
1302.69
1302.64
1302.43
1302.06
1301.52
1300.82
1299.99
1299.1
1298.19
1297.27
1296.19
1294.88
1293.35
1291.62
1289.68
1287.56
1285.27
1282.8
1280.24
1277.54
1274.91
1271.86
1268.41
1263.27
1256
1248.64
400.651
398.976
396.845
394.421
391.791
388.925
385.835
382.541
379.047
707.896
710.528
713.174
715.824
718.469
721.109
723.743
726.36
728.972
731.644
734.398
737.246
740.203
743.245
746.348
749.509
752.726
755.994
759.31
762.667
766.063
769.492
772.952
776.44
779.954
783.496
787.068
790.675
794.326
798.03
801.799
805.649
809.589
813.619
817.729
821.906
826.134
830.406
834.72
839.076
843.469
847.9
852.366
856.867
861.404
865.977
870.588
875.241
879.939
884.685
889.483
894.338
899.252
904.227
909.261
914.351
919.49
924.67
929.882
935.122
940.388
945.678
950.993
956.331
961.691
967.075
972.481
977.911
983.365
988.844
994.347
999.875
1005.43
1011
1016.6
1022.22
1027.86
1033.5
1039.15
1044.81
1050.45
1056.09
1061.71
1067.31
1072.9
1078.46
1084
1089.51
1095
1100.47
1105.9
1111.31
1116.68
1122.02
1127.33
1132.6
1137.83
1143.02
1148.17
1153.26
1158.31
1163.3
1168.23
1173.1
1177.91
1182.65
1187.32
1191.92
1196.45
1200.91
1205.29
1209.61
1213.86
1218.03
1222.13
1226.16
1230.11
1233.99
1237.8
1241.53
1245.18
1248.74
1252.24
1255.65
1258.98
1262.23
1265.39
1268.45
1271.42
1274.27
1277.02
1279.64
1282.12
1284.46
1286.64
1288.65
1290.46
1292.05
1293.43
1294.66
1295.75
1296.7
1297.5
1298.16
1298.68
1299.05
1299.26
1299.33
1299.26
1299.02
1298.63
1298.08
1297.44
1296.75
1296.03
1295.31
1294.47
1293.42
1292.17
1290.73
1289.1
1287.28
1285.3
1283.16
1280.87
1278.45
1275.92
1273.3
1270.63
1267.94
1265.21
1262.3
1259.17
1255.8
1252.26
1248.58
1244.79
1240.83
1236.77
1232.57
1228.23
1223.81
1219.24
1214.7
1209.98
1205.16
1199.28
1192
1183.02
1179.21
559.994
557.371
763.795
767.051
770.334
773.649
777
780.398
783.849
787.366
790.963
794.645
798.41
802.248
806.148
810.095
814.086
818.118
822.189
826.298
830.443
834.623
838.84
843.095
847.389
851.725
856.108
860.54
865.026
869.569
874.171
878.834
883.556
888.332
893.157
898.021
902.92
907.848
912.806
917.792
922.807
927.849
932.919
938.018
943.146
948.304
953.494
958.716
963.972
969.26
974.582
979.937
985.321
990.733
996.168
1001.62
1007.09
1012.57
1018.05
1023.54
1029.02
1034.51
1040
1045.48
1050.97
1056.45
1061.92
1067.39
1072.86
1078.32
1083.76
1089.19
1094.61
1100.01
1105.39
1110.73
1116.05
1121.34
1126.58
1131.78
1136.94
1142.04
1147.1
1152.1
1157.05
1161.94
1166.78
1171.56
1176.28
1180.94
1185.55
1190.09
1194.57
1198.98
1203.32
1207.6
1211.8
1215.92
1219.97
1223.94
1227.82
1231.61
1235.32
1238.93
1242.45
1245.88
1249.22
1252.47
1255.63
1258.71
1261.7
1264.6
1267.42
1270.14
1272.76
1275.28
1277.7
1280
1282.17
1284.19
1286.07
1287.77
1289.28
1290.58
1291.72
1292.73
1293.62
1294.37
1294.98
1295.46
1295.81
1296
1296.06
1295.97
1295.72
1295.34
1294.87
1294.34
1293.76
1293.17
1292.58
1291.84
1290.92
1289.83
1288.56
1287.13
1285.54
1283.8
1281.92
1279.91
1277.8
1275.61
1273.37
1271.09
1268.68
1266.07
1263.26
1260.23
1257.01
1253.64
1250.14
1246.49
1242.7
1238.78
1234.71
1230.5
1226.15
1221.66
1217.01
1212.2
1207.22
1202.05
1196.67
1191.2
1185.6
1179.93
1174.18
1168.34
1162.45
1156.44
1150.41
1144.27
1138.07
1131.83
1125.51
1119.29
1112.99
1106.69
1099.37
1090.94
1082.06
1081.83
831.779
835.86
839.991
844.177
848.42
852.722
857.084
861.505
865.981
870.504
875.068
879.668
884.3
888.963
893.658
898.383
903.138
907.926
912.746
917.599
922.488
927.413
932.375
937.375
942.413
947.487
952.597
957.739
962.91
968.106
973.323
978.556
983.804
989.064
994.335
999.618
1004.91
1010.22
1015.54
1020.86
1026.2
1031.55
1036.91
1042.27
1047.64
1053.01
1058.39
1063.76
1069.12
1074.48
1079.82
1085.14
1090.45
1095.73
1100.99
1106.22
1111.42
1116.59
1121.73
1126.84
1131.92
1136.95
1141.95
1146.91
1151.82
1156.69
1161.51
1166.28
1170.99
1175.65
1180.25
1184.78
1189.25
1193.65
1197.99
1202.25
1206.44
1210.55
1214.59
1218.55
1222.43
1226.23
1229.95
1233.58
1237.13
1240.59
1243.96
1247.24
1250.42
1253.51
1256.51
1259.42
1262.24
1264.97
1267.6
1270.13
1272.56
1274.88
1277.09
1279.19
1281.16
1282.99
1284.66
1286.18
1287.51
1288.65
1289.64
1290.52
1291.28
1291.91
1292.41
1292.79
1293.03
1293.13
1293.08
1292.9
1292.61
1292.24
1291.8
1291.31
1290.8
1290.3
1289.71
1288.96
1288.05
1286.99
1285.79
1284.45
1282.98
1281.39
1279.71
1277.97
1276.19
1274.33
1272.31
1270.14
1267.8
1265.26
1262.51
1259.59
1256.54
1253.34
1249.99
1246.51
1242.87
1239.09
1235.17
1231.09
1226.84
1222.43
1217.82
1213
1208.03
1202.92
1197.68
1192.32
1186.85
1181.28
1175.6
1169.83
1163.95
1157.97
1151.89
1145.71
1139.44
1133.08
1126.63
1120.1
1113.49
1106.83
1100.12
1093.39
1086.62
1079.84
1073.03
1066.2
1059.37
1052.51
1045.67
1038.82
1031.99
1025.18
1018.42
1011.8
1005.29
998.856
991.721
983.82
976.641
978.262
909.956
914.703
919.491
924.317
929.179
934.075
939
943.951
948.924
953.917
958.928
963.957
969.004
974.069
979.152
984.254
989.373
994.511
999.667
1004.84
1010.03
1015.23
1020.45
1025.67
1030.91
1036.14
1041.38
1046.62
1051.85
1057.08
1062.3
1067.51
1072.7
1077.89
1083.06
1088.23
1093.37
1098.5
1103.61
1108.7
1113.77
1118.82
1123.83
1128.82
1133.77
1138.68
1143.56
1148.39
1153.17
1157.91
1162.6
1167.24
1171.82
1176.34
1180.81
1185.22
1189.57
1193.86
1198.08
1202.24
1206.33
1210.36
1214.32
1218.2
1222
1225.73
1229.38
1232.94
1236.41
1239.8
1243.09
1246.29
1249.4
1252.41
1255.32
1258.13
1260.86
1263.49
1266.03
1268.48
1270.83
1273.08
1275.23
1277.26
1279.18
1280.98
1282.64
1284.14
1285.48
1286.64
1287.62
1288.47
1289.2
1289.81
1290.3
1290.66
1290.87
1290.94
1290.87
1290.69
1290.41
1290.05
1289.63
1289.16
1288.67
1288.2
1287.63
1286.92
1286.07
1285.1
1284
1282.79
1281.49
1280.11
1278.71
1277.23
1275.63
1273.89
1272.02
1270
1267.81
1265.43
1262.88
1260.2
1257.38
1254.43
1251.34
1248.12
1244.75
1241.23
1237.55
1233.7
1229.64
1225.41
1221.03
1216.49
1211.8