/*--------------------------------*- C++ -*----------------------------------*\
| =========                 |                                                 |
| \\      /  F ield         | OpenFOAM: The Open Source CFD Toolbox           |
|  \\    /   O peration     | Version:  v1706                                 |
|   \\  /    A nd           | Web:      www.OpenFOAM.com                      |
|    \\/     M anipulation  |                                                 |
\*---------------------------------------------------------------------------*/
FoamFile
{
    version     2.0;
    format      ascii;
    class       volScalarField;
    location    "4e-06";
    object      Tv;
}
// * * * * * * * * * * * * * * * * * * * * * * * * * * * * * * * * * * * * * //

dimensions      [0 0 0 1 0 0 0];


internalField   nonuniform List<scalar> 
30104
(
144.4
144.4
144.4
144.4
144.4
144.4
144.4
144.4
144.4
144.4
144.4
144.4
144.4
144.4
144.4
144.4
144.4
144.4
144.4
144.4
144.4
144.4
144.4
144.4
144.4
144.4
144.4
144.4
144.4
144.4
144.4
144.4
144.4
144.4
144.4
144.4
144.4
144.4
144.4
144.4
144.4
144.4
144.4
144.4
144.4
144.4
144.4
144.4
144.4
144.4
144.4
144.4
144.4
144.4
144.4
144.4
144.4
144.4
144.4
144.4
144.4
144.4
144.4
144.4
144.4
144.4
144.4
144.4
144.4
144.4
144.4
144.4
144.4
144.4
144.4
144.4
144.4
144.4
144.4
144.4
144.4
144.4
144.4
144.4
144.4
144.4
144.4
144.4
144.4
144.4
144.4
144.4
144.4
144.4
144.4
144.4
144.4
144.4
144.4
144.4
144.4
144.4
144.4
144.4
144.4
144.4
144.4
144.4
144.4
144.4
144.4
144.4
144.4
144.4
144.4
144.4
144.4
144.4
144.4
144.4
144.4
144.4
144.4
144.4
144.4
144.4
144.4
144.4
144.4
144.4
144.4
144.4
144.4
144.4
144.4
144.4
144.4
144.4
144.4
144.4
144.4
144.4
144.4
144.4
144.4
144.4
144.4
144.4
144.4
144.4
144.4
144.4
144.4
144.4
144.4
144.4
144.4
144.4
144.4
144.4
144.4
144.4
144.4
144.4
144.4
144.4
144.4
144.4
144.4
144.4
144.4
144.4
144.4
144.4
144.4
144.4
144.4
144.4
144.4
144.4
144.4
144.4
144.4
144.4
144.4
144.4
144.4
144.4
144.4
144.4
144.4
144.4
144.4
144.4
144.4
144.4
144.4
144.4
144.4
144.4
144.4
144.4
144.4
144.4
144.4
144.4
144.4
144.4
144.4
144.4
144.4
144.4
144.4
144.4
144.4
144.4
144.4
144.4
144.4
144.4
144.4
144.4
144.4
144.4
144.4
144.4
144.4
144.4
144.4
144.4
144.4
144.4
144.4
144.4
144.4
144.4
144.4
144.4
144.4
144.4
144.4
144.4
144.4
144.4
144.4
144.4
144.4
144.4
144.4
144.4
144.4
144.4
144.4
144.4
144.4
144.4
144.4
144.4
144.4
144.4
144.4
144.4
144.4
144.4
144.4
144.4
144.4
144.4
144.4
144.4
144.4
144.4
144.4
144.4
144.4
144.4
144.4
144.4
144.4
144.4
144.4
144.4
144.4
144.4
144.4
144.4
144.4
144.4
144.4
144.4
144.4
144.4
144.4
144.4
144.4
144.4
144.4
144.4
144.4
144.4
144.4
144.4
144.4
144.4
144.4
144.4
144.4
144.4
144.4
144.4
144.4
144.4
144.4
144.4
144.4
144.4
144.4
144.4
144.4
144.4
144.4
144.4
144.4
144.4
144.4
144.4
144.4
144.4
144.4
144.4
144.4
144.4
144.4
144.4
144.4
144.4
144.4
144.4
144.4
144.4
144.4
144.4
144.4
144.4
144.4
144.4
144.4
144.4
144.4
144.4
144.4
144.4
144.4
144.4
144.4
144.4
144.4
144.4
144.4
144.4
144.4
144.4
144.4
144.4
144.4
144.4
144.4
144.4
144.4
144.4
144.4
144.4
144.4
144.4
144.4
144.4
144.4
144.4
144.4
144.4
144.4
144.4
144.4
144.4
144.4
144.4
144.4
144.4
144.4
144.4
144.4
144.4
144.4
144.4
144.4
144.4
144.4
144.4
144.4
144.4
144.4
144.4
144.4
144.4
144.4
144.4
144.4
144.4
144.4
144.4
144.4
144.4
144.4
144.4
144.4
144.4
144.4
144.4
144.4
144.4
144.4
144.4
144.4
144.4
144.4
144.4
144.4
144.4
144.4
144.4
144.4
144.4
144.4
144.4
144.4
144.4
144.4
144.4
144.4
144.4
144.4
144.4
144.4
144.4
144.4
144.4
144.4
144.4
144.4
144.4
144.4
144.4
144.4
144.4
144.4
144.4
144.4
144.4
144.4
144.4
144.4
144.4
144.4
144.4
144.4
144.4
144.4
144.4
144.4
144.4
144.4
144.4
144.4
144.4
144.4
144.4
144.4
144.4
144.4
144.4
144.4
144.4
144.4
144.4
144.4
144.4
144.4
144.4
144.4
144.4
144.4
144.4
144.4
144.4
144.4
144.4
144.4
144.4
144.4
144.4
144.4
144.4
144.4
144.4
144.4
144.4
144.4
144.4
144.4
144.4
144.4
144.4
144.4
144.4
144.4
144.4
144.4
144.4
144.4
144.4
144.4
144.4
144.4
144.4
144.4
144.4
144.4
144.4
144.4
144.4
144.4
144.4
144.4
144.4
144.4
144.4
144.4
144.4
144.4
144.4
144.4
144.4
144.4
144.4
144.4
144.4
144.4
144.4
144.4
144.4
144.4
144.4
144.4
144.4
144.4
144.4
144.4
144.4
144.4
144.4
144.4
144.4
144.4
144.4
144.4
144.4
144.4
144.4
144.4
144.4
144.4
144.4
144.4
144.4
144.4
144.4
144.4
144.4
144.4
144.4
144.4
144.4
144.4
144.4
144.4
144.4
144.4
144.4
144.4
144.4
144.4
144.4
144.4
144.4
144.4
144.4
144.4
144.4
144.401
144.401
144.401
144.401
144.401
144.401
144.401
144.401
144.401
144.401
144.401
144.401
144.401
144.401
144.401
144.401
144.401
144.402
144.402
144.402
144.402
144.402
144.402
144.402
144.402
144.403
144.403
144.403
144.403
144.404
144.403
144.4
144.4
144.4
144.4
144.4
144.4
144.4
144.4
144.4
144.4
144.4
144.4
144.4
144.4
144.4
144.4
144.4
144.4
144.4
144.4
144.4
144.4
144.4
144.4
144.4
144.4
144.4
144.4
144.4
144.4
144.4
144.4
144.4
144.4
144.4
144.4
144.4
144.4
144.4
144.4
144.4
144.4
144.4
144.4
144.4
144.4
144.4
144.4
144.4
144.4
144.4
144.4
144.4
144.4
144.4
144.4
144.4
144.4
144.4
144.4
144.4
144.4
144.4
144.4
144.4
144.4
144.4
144.4
144.4
144.4
144.4
144.4
144.4
144.4
144.4
144.4
144.4
144.4
144.4
144.4
144.4
144.4
144.4
144.4
144.4
144.4
144.4
144.4
144.4
144.4
144.4
144.4
144.4
144.4
144.4
144.4
144.4
144.4
144.4
144.4
144.4
144.4
144.4
144.4
144.4
144.4
144.4
144.4
144.4
144.4
144.4
144.4
144.4
144.4
144.4
144.4
144.4
144.4
144.4
144.4
144.4
144.4
144.4
144.4
144.4
144.4
144.4
144.4
144.4
144.4
144.4
144.4
144.4
144.4
144.4
144.4
144.4
144.4
144.4
144.4
144.401
144.401
144.401
144.401
144.401
144.401
144.401
144.401
144.401
144.401
144.401
144.401
144.401
144.401
144.401
144.401
144.402
144.402
144.402
144.402
144.402
144.402
144.402
144.403
144.403
144.403
144.403
144.403
144.404
144.404
144.404
144.404
144.405
144.405
144.405
144.406
144.406
144.407
144.407
144.408
144.408
144.409
144.409
144.41
144.41
144.411
144.412
144.413
144.414
144.414
144.415
144.416
144.418
144.419
144.42
144.421
144.423
144.424
144.426
144.428
144.43
144.432
144.434
144.436
144.439
144.442
144.445
144.449
144.448
144.4
144.4
144.4
144.4
144.4
144.4
144.4
144.4
144.4
144.4
144.4
144.4
144.4
144.4
144.4
144.4
144.4
144.4
144.4
144.4
144.4
144.4
144.4
144.4
144.4
144.4
144.4
144.4
144.4
144.4
144.4
144.4
144.4
144.4
144.4
144.4
144.4
144.4
144.4
144.4
144.4
144.4
144.4
144.4
144.4
144.4
144.4
144.4
144.4
144.4
144.4
144.4
144.4
144.4
144.4
144.4
144.4
144.4
144.4
144.4
144.4
144.4
144.4
144.4
144.4
144.4
144.4
144.4
144.4
144.4
144.4
144.4
144.4
144.4
144.4
144.4
144.4
144.4
144.4
144.4
144.4
144.4
144.4
144.4
144.4
144.4
144.4
144.4
144.4
144.4
144.4
144.4
144.4
144.4
144.4
144.4
144.4
144.4
144.4
144.4
144.4
144.4
144.4
144.4
144.401
144.401
144.401
144.401
144.401
144.401
144.401
144.401
144.401
144.401
144.401
144.401
144.401
144.401
144.401
144.402
144.402
144.402
144.402
144.402
144.402
144.402
144.402
144.403
144.403
144.403
144.403
144.404
144.404
144.404
144.404
144.405
144.405
144.405
144.406
144.406
144.407
144.407
144.408
144.408
144.409
144.409
144.41
144.411
144.412
144.413
144.413
144.414
144.415
144.416
144.418
144.419
144.42
144.422
144.423
144.425
144.427
144.429
144.431
144.433
144.436
144.438
144.441
144.444
144.447
144.451
144.455
144.459
144.463
144.468
144.473
144.478
144.484
144.49
144.496
144.503
144.511
144.519
144.527
144.536
144.545
144.555
144.566
144.577
144.589
144.602
144.615
144.629
144.644
144.66
144.677
144.695
144.715
144.735
144.757
144.781
144.806
144.833
144.862
144.892
144.926
144.961
145.004
145.018
144.4
144.4
144.4
144.4
144.4
144.4
144.4
144.4
144.4
144.4
144.4
144.4
144.4
144.4
144.4
144.4
144.4
144.4
144.4
144.4
144.4
144.4
144.4
144.4
144.4
144.4
144.4
144.4
144.4
144.4
144.4
144.4
144.4
144.4
144.4
144.4
144.4
144.4
144.4
144.4
144.4
144.4
144.4
144.4
144.4
144.4
144.4
144.4
144.4
144.4
144.4
144.4
144.4
144.4
144.4
144.4
144.4
144.4
144.4
144.4
144.4
144.4
144.4
144.4
144.4
144.4
144.4
144.4
144.4
144.4
144.4
144.4
144.401
144.401
144.401
144.401
144.401
144.401
144.401
144.401
144.401
144.401
144.401
144.401
144.401
144.401
144.401
144.401
144.402
144.402
144.402
144.402
144.402
144.402
144.402
144.403
144.403
144.403
144.403
144.404
144.404
144.404
144.404
144.405
144.405
144.406
144.406
144.406
144.407
144.407
144.408
144.409
144.409
144.41
144.411
144.412
144.412
144.413
144.414
144.415
144.417
144.418
144.419
144.42
144.422
144.424
144.425
144.427
144.429
144.431
144.434
144.436
144.439
144.442
144.445
144.449
144.453
144.457
144.461
144.466
144.471
144.476
144.482
144.488
144.495
144.503
144.51
144.519
144.528
144.537
144.547
144.558
144.57
144.582
144.595
144.609
144.623
144.639
144.656
144.674
144.693
144.713
144.735
144.758
144.783
144.809
144.838
144.868
144.901
144.937
144.975
145.016
145.06
145.107
145.158
145.213
145.272
145.335
145.403
145.475
145.552
145.633
145.72
145.811
145.907
146.009
146.115
146.226
146.341
146.461
146.586
146.714
146.847
146.984
147.125
147.27
147.418
147.571
147.727
147.887
148.052
148.221
148.395
148.574
148.758
148.95
149.146
149.364
149.483
144.4
144.4
144.4
144.4
144.4
144.4
144.4
144.4
144.4
144.4
144.4
144.4
144.4
144.4
144.4
144.4
144.4
144.4
144.4
144.4
144.4
144.4
144.4
144.4
144.4
144.4
144.4
144.4
144.4
144.4
144.4
144.4
144.4
144.4
144.4
144.4
144.4
144.4
144.401
144.401
144.401
144.401
144.401
144.401
144.401
144.401
144.401
144.401
144.401
144.401
144.401
144.401
144.401
144.402
144.402
144.402
144.402
144.402
144.402
144.402
144.403
144.403
144.403
144.403
144.403
144.404
144.404
144.404
144.405
144.405
144.405
144.406
144.406
144.407
144.407
144.408
144.408
144.409
144.41
144.41
144.411
144.412
144.413
144.414
144.415
144.416
144.418
144.419
144.42
144.422
144.424
144.425
144.427
144.429
144.432
144.434
144.437
144.439
144.442
144.446
144.449
144.453
144.457
144.462
144.467
144.472
144.478
144.484
144.491
144.498
144.505
144.514
144.523
144.532
144.542
144.553
144.565
144.577
144.591
144.605
144.62
144.636
144.653
144.672
144.691
144.712
144.734
144.758
144.784
144.811
144.841
144.873
144.907
144.944
144.983
145.026
145.072
145.121
145.175
145.232
145.294
145.36
145.432
145.507
145.588
145.675
145.766
145.863
145.965
146.072
146.185
146.303
146.425
146.553
146.685
146.822
146.964
147.109
147.259
147.414
147.572
147.735
147.902
148.075
148.252
148.435
148.624
148.82
149.024
149.235
149.455
149.684
149.923
150.172
150.432
150.704
150.986
151.281
151.586
151.903
152.23
152.568
152.914
153.269
153.631
153.999
154.372
154.749
155.128
155.51
155.892
156.275
156.656
157.036
157.414
157.789
158.16
158.527
158.892
159.251
159.607
159.957
160.306
160.648
160.99
161.334
144.4
144.4
144.4
144.4
144.4
144.4
144.4
144.4
144.4
144.4
144.4
144.4
144.4
144.401
144.401
144.401
144.401
144.401
144.401
144.401
144.401
144.401
144.401
144.401
144.402
144.402
144.402
144.402
144.402
144.402
144.402
144.403
144.403
144.403
144.403
144.404
144.404
144.404
144.405
144.405
144.405
144.406
144.406
144.407
144.407
144.408
144.408
144.409
144.41
144.41
144.411
144.412
144.413
144.414
144.415
144.416
144.418
144.419
144.421
144.422
144.424
144.426
144.428
144.43
144.432
144.435
144.437
144.44
144.443
144.447
144.451
144.455
144.459
144.464
144.469
144.474
144.48
144.486
144.493
144.501
144.509
144.518
144.527
144.537
144.548
144.56
144.572
144.586
144.6
144.615
144.632
144.649
144.668
144.688
144.709
144.732
144.756
144.782
144.81
144.84
144.873
144.907
144.944
144.985
145.028
145.074
145.124
145.178
145.236
145.299
145.366
145.438
145.514
145.596
145.684
145.776
145.875
145.978
146.087
146.201
146.321
146.446
146.575
146.71
146.85
146.994
147.143
147.296
147.454
147.617
147.785
147.959
148.138
148.323
148.514
148.713
148.919
149.134
149.357
149.59
149.833
150.087
150.352
150.627
150.915
151.213
151.523
151.843
152.173
152.513
152.861
153.217
153.579
153.946
154.317
154.691
155.067
155.443
155.819
156.194
156.567
156.938
157.305
157.669
158.029
158.384
158.737
159.085
159.43
159.772
160.11
160.447
160.781
161.114
161.445
161.775
162.105
162.436
162.766
163.097
163.43
163.763
164.098
164.434
164.772
165.112
165.453
165.802
166.154
166.506
166.858
167.209
167.559
167.908
168.256
168.603
168.949
169.293
169.636
169.976
170.316
170.652
170.989
171.321
171.654
172
144.4
144.4
144.4
144.4
144.4
144.4
144.4
144.4
144.4
144.4
144.4
144.4
144.4
144.4
144.406
144.406
144.407
144.407
144.408
144.409
144.409
144.41
144.411
144.412
144.413
144.414
144.415
144.416
144.417
144.419
144.42
144.422
144.423
144.425
144.427
144.429
144.432
144.434
144.437
144.44
144.443
144.446
144.45
144.454
144.458
144.463
144.468
144.473
144.479
144.486
144.492
144.5
144.508
144.517
144.526
144.536
144.547
144.559
144.572
144.585
144.6
144.616
144.632
144.65
144.67
144.69
144.712
144.736
144.761
144.788
144.817
144.848
144.881
144.917
144.955
144.996
145.04
145.088
145.139
145.194
145.253
145.316
145.384
145.457
145.535
145.618
145.707
145.8
145.9
146.005
146.116
146.232
146.354
146.48
146.613
146.75
146.892
147.039
147.191
147.348
147.511
147.678
147.851
148.029
148.213
148.404
148.602
148.807
149.021
149.242
149.473
149.714
149.965
150.226
150.498
150.78
151.073
151.377
151.69
152.012
152.344
152.682
153.028
153.379
153.734
154.093
154.454
154.816
155.179
155.542
155.904
156.264
156.621
156.976
157.328
157.678
158.023
158.366
158.706
159.044
159.379
159.712
160.044
160.375
160.705
161.035
161.366
161.697
162.03
162.364
162.699
163.036
163.375
163.715
164.058
164.403
164.754
165.108
165.462
165.815
166.167
166.518
166.868
167.217
167.564
167.909
168.252
168.594
168.934
169.272
169.609
169.944
170.278
170.611
170.942
171.273
171.602
171.931
172.26
172.588
172.916
173.244
173.572
173.9
174.229
174.558
174.887
175.218
175.554
175.894
176.231
176.567
176.901
177.233
177.563
177.892
178.219
178.544
178.868
179.191
179.511
179.831
180.149
180.466
180.782
181.099
181.411
144.4
144.4
144.4
144.4
144.4
144.4
144.4
144.4
144.4
144.4
144.4
144.4
144.4
144.4
144.449
144.453
144.457
144.461
144.466
144.471
144.477
144.483
144.49
144.497
144.505
144.513
144.523
144.532
144.543
144.555
144.567
144.58
144.595
144.61
144.627
144.645
144.664
144.685
144.707
144.73
144.755
144.782
144.811
144.842
144.875
144.911
144.949
144.989
145.033
145.08
145.13
145.184
145.241
145.303
145.37
145.441
145.517
145.598
145.684
145.776
145.873
145.976
146.084
146.199
146.318
146.444
146.575
146.711
146.852
146.999
147.15
147.307
147.469
147.637
147.81
147.988
148.173
148.363
148.561
148.766
148.978
149.199
149.429
149.667
149.915
150.173
150.44
150.718
151.005
151.302
151.608
151.922
152.245
152.574
152.909
153.249
153.593
153.94
154.289
154.639
154.989
155.339
155.687
156.034
156.379
156.722
157.062
157.4
157.735
158.068
158.398
158.727
159.054
159.38
159.706
160.031
160.356
160.683
161.01
161.338
161.668
161.999
162.332
162.667
163.004
163.343
163.684
164.032
164.38
164.728
165.075
165.421
165.767
166.111
166.455
166.797
167.137
167.477
167.814
168.151
168.486
168.82
169.153
169.485
169.817
170.148
170.479
170.809
171.14
171.471
171.803
172.135
172.467
172.801
173.135
173.47
173.81
174.152
174.493
174.832
175.168
175.503
175.836
176.167
176.496
176.823
177.149
177.474
177.797
178.119
178.441
178.761
179.08
179.399
179.718
180.036
180.353
180.67
180.987
181.304
181.621
181.938
182.255
182.571
182.888
183.205
183.522
183.839
184.156
184.471
184.784
185.096
185.405
185.713
186.02
186.325
186.628
186.93
187.231
187.531
187.83
188.128
188.426
188.722
189.017
189.323
189.568
144.402
144.402
144.402
144.402
144.402
144.402
144.402
144.402
144.402
144.402
144.402
144.402
144.402
144.402
144.773
144.801
144.832
144.864
144.899
144.936
144.976
145.018
145.063
145.112
145.164
145.22
145.279
145.343
145.411
145.484
145.561
145.644
145.731
145.825
145.923
146.028
146.137
146.253
146.374
146.501
146.634
146.772
146.915
147.064
147.218
147.377
147.541
147.711
147.887
148.068
148.255
148.449
148.649
148.856
149.071
149.293
149.524
149.763
150.011
150.269
150.535
150.81
151.095
151.388
151.689
151.997
152.312
152.634
152.96
153.29
153.624
153.959
154.296
154.634
154.972
155.309
155.644
155.979
156.311
156.641
156.97
157.296
157.62
157.943
158.264
158.585
158.904
159.224
159.544
159.864
160.185
160.507
160.831
161.157
161.484
161.813
162.144
162.476
162.811
163.15
163.492
163.833
164.173
164.513
164.852
165.191
165.528
165.864
166.198
166.532
166.864
167.195
167.525
167.854
168.182
168.51
168.838
169.165
169.492
169.82
170.147
170.475
170.804
171.133
171.463
171.794
172.127
172.465
172.803
173.138
173.472
173.805
174.136
174.465
174.794
175.121
175.447
175.772
176.095
176.419
176.741
177.063
177.384
177.705
178.026
178.347
178.668
178.988
179.31
179.631
179.952
180.274
180.596
180.918
181.24
181.563
181.885
182.205
182.524
182.841
183.156
183.469
183.781
184.091
184.4
184.708
185.014
185.32
185.625
185.93
186.233
186.537
186.839
187.141
187.443
187.744
188.044
188.344
188.643
188.941
189.238
189.535
189.83
190.125
190.418
190.71
191
191.288
191.575
191.86
192.144
192.426
192.706
192.986
193.264
193.54
193.816
194.09
194.364
194.635
194.907
195.176
195.445
195.712
195.976
196.269
196.403
144.414
144.414
144.413
144.413
144.413
144.413
144.413
144.412
144.412
144.412
144.411
144.411
144.41
146.555
146.688
146.826
146.97
147.119
147.274
147.434
147.599
147.77
147.946
148.128
148.316
148.51
148.71
148.917
149.13
149.352
149.58
149.817
150.062
150.315
150.576
150.846
151.123
151.409
151.701
152.001
152.306
152.617
152.933
153.252
153.573
153.897
154.222
154.547
154.873
155.197
155.521
155.844
156.165
156.485
156.803
157.119
157.434
157.748
158.061
158.374
158.687
159
159.314
159.628
159.944
160.262
160.581
160.902
161.224
161.549
161.875
162.203
162.535
162.869
163.202
163.535
163.868
164.199
164.53
164.86
165.189
165.516
165.843
166.169
166.494
166.818
167.141
167.464
167.787
168.11
168.433
168.756
169.08
169.404
169.729
170.055
170.381
170.709
171.04
171.373
171.704
172.034
172.362
172.689
173.015
173.34
173.663
173.986
174.308
174.628
174.948
175.268
175.587
175.906
176.224
176.543
176.861
177.179
177.498
177.817
178.135
178.454
178.774
179.093
179.413
179.732
180.051
180.369
180.685
180.999
181.313
181.625
181.936
182.247
182.557
182.866
183.174
183.483
183.79
184.098
184.405
184.712
185.018
185.325
185.631
185.937
186.242
186.547
186.851
187.155
187.458
187.76
188.061
188.36
188.658
188.954
189.248
189.541
189.833
190.123
190.412
190.699
190.985
191.27
191.554
191.837
192.118
192.399
192.678
192.956
193.233
193.509
193.783
194.056
194.328
194.598
194.866
195.133
195.398
195.662
195.923
196.183
196.441
196.697
196.951
197.203
197.453
197.701
197.947
198.192
198.434
198.674
198.912
199.148
199.382
199.613
199.842
200.069
200.292
200.513
200.731
200.947
201.158
201.364
201.596
201.591
144.486
144.486
144.485
144.484
144.483
144.481
144.479
144.477
144.475
144.472
144.469
144.467
144.464
152.004
152.298
152.598
152.901
153.208
153.518
153.83
154.143
154.456
154.769
155.082
155.395
155.707
156.017
156.326
156.635
156.942
157.248
157.553
157.859
158.164
158.469
158.775
159.083
159.391
159.701
160.012
160.325
160.64
160.957
161.275
161.595
161.918
162.243
162.568
162.893
163.218
163.541
163.864
164.187
164.508
164.828
165.148
165.467
165.785
166.103
166.421
166.738
167.055
167.373
167.691
168.009
168.328
168.648
168.968
169.29
169.612
169.937
170.264
170.589
170.913
171.236
171.558
171.879
172.198
172.517
172.835
173.152
173.468
173.784
174.1
174.415
174.731
175.046
175.361
175.676
175.992
176.307
176.623
176.939
177.255
177.571
177.888
178.204
178.519
178.832
179.145
179.456
179.766
180.076
180.384
180.692
181
181.307
181.613
181.919
182.225
182.531
182.837
183.142
183.447
183.751
184.055
184.359
184.662
184.965
185.267
185.568
185.869
186.168
186.466
186.762
187.058
187.352
187.646
187.939
188.231
188.522
188.813
189.102
189.392
189.68
189.968
190.255
190.541
190.826
191.11
191.393
191.675
191.956
192.236
192.514
192.791
193.067
193.341
193.613
193.884
194.152
194.419
194.685
194.948
195.21
195.47
195.728
195.984
196.239
196.492
196.742
196.991
197.239
197.484
197.727
197.968
198.207
198.444
198.679
198.912
199.142
199.37
199.595
199.818
200.038
200.255
200.469
200.681
200.889
201.094
201.297
201.495
201.691
201.883
202.071
202.255
202.436
202.612
202.784
202.952
203.115
203.273
203.426
203.574
203.715
203.851
203.98
204.102
204.218
204.328
204.428
204.513
204.566
204.484
144.89
144.885
144.878
144.87
144.86
144.848
144.836
144.823
144.808
144.794
144.779
144.763
158.903
159.204
159.507
159.811
160.117
160.425
160.735
161.046
161.358
161.674
161.99
162.307
162.623
162.938
163.253
163.567
163.881
164.193
164.506
164.817
165.129
165.44
165.75
166.061
166.373
166.684
166.996
167.309
167.622
167.936
168.251
168.567
168.884
169.204
169.522
169.84
170.157
170.473
170.788
171.102
171.415
171.728
172.04
172.351
172.663
172.974
173.285
173.595
173.906
174.217
174.528
174.84
175.151
175.463
175.775
176.087
176.399
176.71
177.021
177.331
177.64
177.947
178.254
178.56
178.866
179.171
179.475
179.78
180.084
180.387
180.691
180.994
181.297
181.599
181.902
182.204
182.506
182.807
183.108
183.408
183.707
184.006
184.303
184.599
184.894
185.189
185.482
185.775
186.067
186.359
186.65
186.94
187.23
187.519
187.808
188.096
188.383
188.669
188.955
189.239
189.523
189.806
190.087
190.367
190.647
190.925
191.201
191.476
191.75
192.023
192.295
192.565
192.834
193.102
193.368
193.633
193.897
194.16
194.421
194.681
194.939
195.196
195.451
195.705
195.957
196.207
196.455
196.702
196.947
197.19
197.431
197.67
197.906
198.141
198.373
198.603
198.831
199.056
199.279
199.499
199.717
199.932
200.144
200.354
200.56
200.764
200.964
201.161
201.355
201.546
201.733
201.917
202.097
202.274
202.446
202.615
202.78
202.94
203.097
203.248
203.395
203.537
203.673
203.804
203.928
204.046
204.158
204.263
204.36
204.45
204.532
204.606
204.672
204.729
204.778
204.82
204.857
204.888
204.914
204.935
204.951
204.962
204.969
204.971
204.97
204.967
204.96
204.949
204.923
204.872
204.768
146.518
146.495
146.466
146.432
146.393
146.349
146.302
146.252
146.2
146.145
165.481
165.785
166.089
166.394
166.7
167.006
167.314
167.622
167.931
168.242
168.554
168.865
169.175
169.485
169.793
170.101
170.408
170.715
171.021
171.327
171.632
171.938
172.243
172.548
172.854
173.16
173.466
173.772
174.078
174.385
174.691
174.998
175.305
175.611
175.916
176.22
176.523
176.826
177.128
177.43
177.731
178.032
178.332
178.632
178.933
179.233
179.532
179.832
180.131
180.43
180.729
181.027
181.325
181.623
181.919
182.215
182.51
182.805
183.098
183.39
183.682
183.973
184.264
184.554
184.843
185.132
185.421
185.709
185.996
186.283
186.569
186.855
187.14
187.424
187.707
187.989
188.27
188.55
188.829
189.107
189.384
189.66
189.935
190.209
190.482
190.754
191.024
191.294
191.563
191.831
192.098
192.363
192.628
192.891
193.152
193.413
193.671
193.929
194.185
194.439
194.692
194.943
195.192
195.44
195.686
195.93
196.173
196.413
196.652
196.889
197.124
197.358
197.589
197.819
198.046
198.271
198.494
198.715
198.934
199.151
199.365
199.577
199.786
199.993
200.197
200.399
200.598
200.794
200.988
201.178
201.365
201.549
201.729
201.906
202.08
202.249
202.415
202.577
202.735
202.889
203.039
203.184
203.324
203.46
203.591
203.717
203.837
203.951
204.059
204.16
204.255
204.343
204.423
204.495
204.56
204.616
204.665
204.706
204.743
204.774
204.8
204.821
204.837
204.848
204.855
204.858
204.857
204.852
204.845
204.835
204.824
204.811
204.797
204.783
204.769
204.753
204.731
204.704
204.673
204.637
204.597
204.553
204.506
204.455
204.401
204.344
204.284
204.217
204.135
204.026
203.953
150.248
150.184
150.11
150.027
149.937
149.839
149.736
149.627
149.513
171.929
172.228
172.528
172.828
173.128
173.428
173.729
174.029
174.329
174.629
174.928
175.226
175.524
175.821
176.118
176.414
176.71
177.006
177.301
177.597
177.892
178.188
178.483
178.778
179.073
179.367
179.661
179.955
180.248
180.541
180.832
181.123
181.414
181.703
181.992
182.281
182.568
182.856
183.143
183.43
183.716
184.002
184.287
184.572
184.856
185.139
185.422
185.704
185.986
186.266
186.546
186.825
187.103
187.38
187.656
187.931
188.205
188.479
188.751
189.023
189.294
189.565
189.834
190.103
190.37
190.636
190.902
191.166
191.429
191.691
191.952
192.211
192.47
192.727
192.982
193.236
193.489
193.74
193.99
194.239
194.486
194.732
194.976
195.219
195.46
195.699
195.937
196.173
196.407
196.639
196.87
197.098
197.324
197.549
197.771
197.991
198.21
198.425
198.639
198.851
199.06
199.267
199.471
199.673
199.872
200.069
200.264
200.455
200.644
200.83
201.013
201.193
201.37
201.544
201.715
201.882
202.046
202.207
202.364
202.518
202.668
202.814
202.956
203.094
203.229
203.359
203.484
203.605
203.721
203.831
203.936
204.035
204.127
204.212
204.29
204.361
204.425
204.48
204.527
204.568
204.603
204.634
204.659
204.68
204.696
204.707
204.714
204.717
204.717
204.713
204.707
204.699
204.689
204.678
204.667
204.656
204.642
204.622
204.598
204.569
204.535
204.497
204.455
204.409
204.358
204.304
204.246
204.184
204.118
204.048
203.972
203.892
203.806
203.714
203.617
203.516
203.412
203.304
203.192
203.077
202.957
202.834
202.707
202.577
202.443
202.305
202.159
201.999
201.809
201.814
155.574
155.486
177.574
177.863
178.152
178.441
178.729
179.017
179.305
179.592
179.878
180.163
180.448
180.733
181.017
181.301
181.585
181.868
182.15
182.433
182.715
182.996
183.277
183.558
183.838
184.117
184.396
184.674
184.951
185.227
185.503
185.778
186.052
186.325
186.598
186.869
187.141
187.411
187.681
187.95
188.218
188.486
188.753
189.018
189.283
189.547
189.81
190.072
190.333
190.593
190.851
191.109
191.365
191.62
191.875
192.128
192.38
192.63
192.88
193.128
193.375
193.621
193.865
194.108
194.35
194.59
194.828
195.065
195.3
195.534
195.766
195.996
196.225
196.452
196.676
196.899
197.121
197.34
197.557
197.772
197.985
198.197
198.406
198.612
198.817
199.019
199.219
199.416
199.611
199.804
199.994
200.181
200.366
200.548
200.727
200.903
201.077
201.247
201.414
201.578
201.739
201.897
202.051
202.202
202.349
202.492
202.632
202.768
202.901
203.029
203.154
203.274
203.39
203.502
203.609
203.712
203.808
203.9
203.986
204.065
204.138
204.205
204.264
204.316
204.361
204.4
204.435
204.465
204.49
204.511
204.527
204.539
204.547
204.551
204.551
204.55
204.545
204.539
204.531
204.523
204.515
204.504
204.487
204.465
204.438
204.407
204.372
204.332
204.288
204.24
204.187
204.131
204.07
204.005
203.935
203.859
203.778
203.69
203.597
203.5
203.398
203.293
203.183
203.069
202.95
202.827
202.7
202.567
202.43
202.289
202.142
201.991
201.835
201.674
201.509
201.34
201.168
200.991
200.811
200.627
200.44
200.248
200.052
199.852
199.648
199.441
199.229
199.014
198.789
198.553
198.3
198.372
182.692
182.967
183.241
183.514
183.787
184.059
184.331
184.601
184.872
185.141
185.41
185.679
185.947
186.214
186.481
186.747
187.012
187.277
187.541
187.804
188.066
188.327
188.587
188.847
189.105
189.363
189.62
189.875
190.13
190.384
190.637
190.888
191.139
191.389
191.638
191.886
192.132
192.378
192.622
192.865
193.107
193.347
193.586
193.824
194.06
194.295
194.529
194.761
194.992
195.221
195.448
195.674
195.898
196.121
196.342
196.561
196.779
196.994
197.208
197.42
197.629
197.837
198.043
198.246
198.448
198.647
198.844
199.039
199.231
199.421
199.609
199.794
199.977
200.157
200.335
200.509
200.682
200.851
201.017
201.181
201.341
201.499
201.653
201.804
201.951
202.095
202.236
202.373
202.507
202.637
202.763
202.885
203.004
203.119
203.23
203.336
203.439
203.536
203.629
203.717
203.8
203.876
203.947
204.012
204.07
204.121
204.164
204.203
204.236
204.265
204.29
204.311
204.327
204.339
204.348
204.353
204.356
204.356
204.354
204.35
204.346
204.341
204.336
204.327
204.313
204.294
204.271
204.243
204.211
204.175
204.134
204.089
204.04
203.986
203.927
203.864
203.794
203.719
203.637
203.549
203.457
203.361
203.26
203.154
203.044
202.929
202.809
202.684
202.554
202.419
202.279
202.133
201.982
201.826
201.666
201.5
201.331
201.157
200.98
200.797
200.611
200.42
200.225
200.025
199.821
199.613
199.4
199.183
198.962
198.736
198.507
198.273
198.035
197.793
197.546
197.295
197.04
196.78
196.515
196.245
195.97
195.69
195.404
195.113
194.817
194.513
194.197
193.862
193.542
193.655
187.264
187.52
187.776
188.031
188.285
188.539
188.792
189.044
189.295
189.545
189.795
190.043
190.291
190.538
190.783
191.028
191.272
191.514
191.756
191.996
192.235
192.474
192.711
192.946
193.181
193.414
193.646
193.877
194.106
194.335
194.561
194.787
195.011
195.233
195.454
195.673
195.891
196.107
196.321
196.534
196.745
196.954
197.162
197.367
197.571
197.772
197.972
198.17
198.365
198.559
198.75
198.939
199.126
199.311
199.493
199.673
199.85
200.025
200.197
200.367
200.534
200.699
200.86
201.019
201.175
201.328
201.478
201.625
201.769
201.909
202.046
202.18
202.31
202.437
202.56
202.679
202.795
202.907
203.015
203.12
203.22
203.317
203.409
203.496
203.579
203.657
203.729
203.796
203.857
203.911
203.959
204
204.035
204.067
204.093
204.116
204.134
204.149
204.16
204.167
204.171
204.172
204.171
204.168
204.164
204.16
204.156
204.149
204.137
204.121
204.1
204.075
204.047
204.014
203.978
203.937
203.893
203.844
203.791
203.733
203.67
203.6
203.525
203.445
203.36
203.27
203.176
203.077
202.973
202.864
202.75
202.63
202.504
202.373
202.237
202.094
201.946
201.793
201.634
201.471
201.304
201.131
200.954
200.772
200.586
200.395
200.198
199.998
199.792
199.582
199.367
199.148
198.925
198.697
198.465
198.228
197.988
197.742
197.493
197.238
196.98
196.716
196.448
196.175
195.897
195.615
195.327
195.035
194.737
194.433
194.124
193.81
193.489
193.161
192.827
192.487
192.139
191.784
191.422
191.052
190.673
190.287
189.892
189.489
189.077
188.654
188.21
187.736
187.327
187.479
191.745
191.978
192.211
192.443
192.673
192.903
193.131
193.358
193.584
193.808
194.032
194.254
194.474
194.694
194.912
195.128
195.343
195.557
195.769
195.979
196.188
196.395
196.601
196.805
197.007
197.207
197.406
197.603
197.798
197.991
198.182
198.371
198.557
198.742
198.925
199.105
199.284
199.459
199.633
199.804
199.973
200.139
200.303
200.465
200.623
200.779
200.933
201.083
201.231
201.376
201.518
201.656
201.792
201.924
202.053
202.179