/*--------------------------------*- C++ -*----------------------------------*\
| =========                 |                                                 |
| \\      /  F ield         | OpenFOAM: The Open Source CFD Toolbox           |
|  \\    /   O peration     | Version:  v1706                                 |
|   \\  /    A nd           | Web:      www.OpenFOAM.com                      |
|    \\/     M anipulation  |                                                 |
\*---------------------------------------------------------------------------*/
FoamFile
{
    version     2.0;
    format      ascii;
    class       volVectorField;
    location    "4e-06";
    object      U;
}
// * * * * * * * * * * * * * * * * * * * * * * * * * * * * * * * * * * * * * //

dimensions      [0 1 -1 0 0 0 0];


internalField   nonuniform List<vector> 
30104
(
(2764.5 3.71334e-08 4.51721e-15)
(2764.5 3.84925e-08 7.72858e-15)
(2764.5 3.97286e-08 7.62635e-15)
(2764.5 4.08808e-08 5.59948e-15)
(2764.5 4.19685e-08 6.69263e-15)
(2764.5 4.28444e-08 6.62565e-15)
(2764.5 4.35329e-08 2.88606e-15)
(2764.5 4.41373e-08 3.34359e-15)
(2764.5 4.45929e-08 6.34057e-15)
(2764.5 4.49314e-08 8.24372e-15)
(2764.5 4.50887e-08 4.75745e-15)
(2764.5 4.50496e-08 7.79346e-15)
(2764.5 4.48277e-08 3.43763e-15)
(2764.5 4.44312e-08 5.82318e-15)
(2764.5 4.3886e-08 7.51363e-15)
(2764.5 4.32054e-08 9.3424e-15)
(2764.5 4.23787e-08 6.19738e-15)
(2764.5 2.78119e-07 3.22992e-15)
(2764.5 2.69852e-07 4.74214e-15)
(2764.5 2.60771e-07 4.66486e-15)
(2764.5 2.51245e-07 4.576e-15)
(2764.5 2.4172e-07 4.38334e-15)
(2764.5 2.32708e-07 4.52996e-15)
(2764.5 2.24781e-07 3.8141e-15)
(2764.5 2.18561e-07 5.53647e-15)
(2764.5 2.14701e-07 5.19929e-15)
(2764.5 2.13876e-07 3.65628e-15)
(2764.5 2.16784e-07 4.1811e-15)
(2764.5 2.24114e-07 3.29908e-15)
(2764.5 2.36535e-07 5.65027e-15)
(2764.5 2.54678e-07 5.49539e-15)
(2764.5 2.79139e-07 1.77329e-15)
(2764.5 3.10439e-07 2.68286e-15)
(2764.5 3.48986e-07 3.43687e-15)
(2764.5 3.95167e-07 3.05462e-15)
(2764.5 4.49292e-07 5.51794e-15)
(2764.5 5.1152e-07 2.92357e-15)
(2764.5 5.81876e-07 5.04559e-15)
(2764.5 6.60198e-07 6.03463e-15)
(2764.5 7.4607e-07 3.81299e-15)
(2764.5 8.38875e-07 3.81824e-15)
(2764.5 9.37847e-07 3.82265e-15)
(2764.5 1.04208e-06 3.90831e-15)
(2764.5 1.15056e-06 3.79219e-15)
(2764.5 1.26221e-06 4.15378e-15)
(2764.5 1.37584e-06 3.8112e-15)
(2764.5 1.49034e-06 4.67094e-15)
(2764.5 1.60475e-06 2.55753e-15)
(2764.5 1.71829e-06 4.64669e-15)
(2764.5 1.83033e-06 5.79661e-15)
(2764.5 1.94034e-06 4.29906e-15)
(2764.5 2.04802e-06 2.88636e-15)
(2764.5 2.15318e-06 2.9479e-15)
(2764.5 2.25573e-06 5.48607e-15)
(2764.5 2.35558e-06 3.19014e-15)
(2764.5 2.45264e-06 3.99718e-15)
(2764.5 2.54675e-06 4.70613e-15)
(2764.5 2.63766e-06 3.69196e-15)
(2764.5 2.72504e-06 4.38651e-15)
(2764.5 2.80837e-06 4.34801e-15)
(2764.5 2.88692e-06 5.15628e-15)
(2764.5 2.95978e-06 5.396e-15)
(2764.5 3.02576e-06 4.44706e-15)
(2764.5 3.08323e-06 4.3352e-15)
(2764.5 3.13252e-06 3.99238e-15)
(2764.5 3.17212e-06 3.97235e-15)
(2764.5 3.19924e-06 3.19662e-15)
(2764.5 3.21173e-06 4.75386e-15)
(2764.5 3.20739e-06 3.81373e-15)
(2764.5 3.1839e-06 2.74423e-15)
(2764.5 3.13896e-06 3.56233e-15)
(2764.5 3.06923e-06 3.92287e-15)
(2764.5 2.97098e-06 1.91911e-15)
(2764.5 2.84616e-06 3.9122e-15)
(2764.5 2.69529e-06 4.08398e-15)
(2764.5 2.51885e-06 3.33734e-15)
(2764.5 2.31854e-06 3.4078e-15)
(2764.5 2.09768e-06 2.36582e-15)
(2764.5 1.86067e-06 4.01456e-15)
(2764.5 1.61293e-06 4.68678e-15)
(2764.5 1.36075e-06 2.98276e-15)
(2764.5 1.11127e-06 5.3863e-15)
(2764.5 8.72386e-07 4.76314e-15)
(2764.5 6.52718e-07 3.88622e-15)
(2764.5 4.61547e-07 4.41251e-15)
(2764.5 3.08804e-07 3.7319e-15)
(2764.5 2.04893e-07 4.16783e-15)
(2764.5 1.60574e-07 3.66713e-15)
(2764.5 1.86729e-07 3.04284e-15)
(2764.5 2.94086e-07 3.57852e-15)
(2764.5 4.92912e-07 1.44105e-15)
(2764.5 7.92706e-07 3.98795e-15)
(2764.5 1.20184e-06 4.50198e-15)
(2764.5 1.72731e-06 4.29562e-15)
(2764.5 2.37489e-06 2.13116e-15)
(2764.5 3.1497e-06 2.21953e-16)
(2764.5 4.05625e-06 3.43059e-15)
(2764.5 5.09669e-06 1.34968e-15)
(2764.5 6.26922e-06 2.97917e-15)
(2764.5 7.56817e-06 2.04976e-15)
(2764.5 8.98466e-06 9.0661e-16)
(2764.5 1.05067e-05 4.70572e-15)
(2764.5 1.21188e-05 4.9269e-15)
(2764.5 1.38018e-05 3.87537e-15)
(2764.5 1.55344e-05 2.54313e-15)
(2764.5 1.72948e-05 2.80339e-15)
(2764.5 1.90615e-05 4.08875e-15)
(2764.5 2.08148e-05 3.69577e-15)
(2764.5 2.2538e-05 4.2779e-15)
(2764.5 2.4219e-05 5.23084e-15)
(2764.5 2.58501e-05 4.00435e-15)
(2764.5 2.7428e-05 1.59631e-15)
(2764.5 2.8953e-05 3.90479e-15)
(2764.5 3.04283e-05 1.84891e-15)
(2764.5 3.18578e-05 9.08938e-16)
(2764.5 3.32459e-05 3.4161e-15)
(2764.5 3.4598e-05 3.34384e-15)
(2764.5 3.59183e-05 3.29187e-15)
(2764.5 3.72099e-05 3.31557e-15)
(2764.5 3.84742e-05 2.78152e-15)
(2764.5 3.97111e-05 2.98402e-15)
(2764.5 4.09185e-05 3.08999e-15)
(2764.5 4.20922e-05 3.2869e-15)
(2764.5 4.32263e-05 2.07737e-15)
(2764.5 4.43133e-05 2.14934e-15)
(2764.5 4.53412e-05 3.69943e-15)
(2764.5 4.63003e-05 3.91807e-15)
(2764.5 4.71723e-05 3.60386e-15)
(2764.5 4.79335e-05 3.89419e-15)
(2764.5 4.856e-05 3.67483e-15)
(2764.5 4.90279e-05 3.50935e-15)
(2764.5 4.93418e-05 1.88546e-15)
(2764.5 4.93606e-05 2.57877e-15)
(2764.5 4.91042e-05 3.28668e-15)
(2764.5 4.85495e-05 3.6191e-15)
(2764.5 4.76528e-05 3.39386e-15)
(2764.5 4.63651e-05 3.14075e-15)
(2764.5 4.46342e-05 3.44604e-15)
(2764.5 4.24107e-05 2.06351e-15)
(2764.5 3.96568e-05 3.93131e-15)
(2764.5 3.63518e-05 4.19773e-15)
(2764.5 3.24915e-05 1.56122e-15)
(2764.5 2.8088e-05 1.07332e-15)
(2764.5 2.31698e-05 1.74556e-15)
(2764.5 1.77794e-05 2.0096e-15)
(2764.5 1.19748e-05 2.5941e-15)
(2764.5 5.8231e-06 2.14477e-15)
(2764.5 -5.93172e-07 2.64316e-15)
(2764.5 -7.16112e-06 2.88259e-15)
(2764.5 -1.37498e-05 2.18969e-15)
(2764.5 -2.02098e-05 2.85446e-15)
(2764.5 -2.63726e-05 1.88712e-15)
(2764.5 -3.2052e-05 3.06981e-15)
(2764.5 -3.70469e-05 1.66015e-15)
(2764.5 -4.11443e-05 2.64385e-15)
(2764.5 -4.41241e-05 2.56442e-15)
(2764.5 -4.57632e-05 1.78654e-15)
(2764.5 -4.58388e-05 3.19658e-15)
(2764.5 -4.41357e-05 3.84449e-15)
(2764.5 -4.04513e-05 3.2133e-15)
(2764.5 -3.45984e-05 3.34487e-15)
(2764.5 -2.64096e-05 2.15017e-15)
(2764.5 -1.57438e-05 2.41185e-15)
(2764.5 -2.48657e-06 4.03005e-15)
(2764.5 1.34601e-05 3.39659e-15)
(2764.5 3.21909e-05 2.00036e-15)
(2764.5 5.3773e-05 1.56737e-15)
(2764.5 7.81944e-05 3.51775e-15)
(2764.5 0.000105369 1.71784e-15)
(2764.5 0.00013516 2.5869e-15)
(2764.5 0.000167375 2.43902e-15)
(2764.5 0.000201763 2.4739e-15)
(2764.5 0.000238002 3.38875e-15)
(2764.5 0.000275693 2.66032e-15)
(2764.5 0.000314357 3.27951e-15)
(2764.5 0.000353486 2.93148e-15)
(2764.5 0.000392575 2.14255e-15)
(2764.5 0.000431142 1.98866e-15)
(2764.5 0.00046878 3.09442e-15)
(2764.5 0.000505201 1.49624e-15)
(2764.5 0.00054024 2.71217e-15)
(2764.5 0.000573835 2.43006e-15)
(2764.5 0.000606023 2.26172e-15)
(2764.5 0.000636912 3.46285e-15)
(2764.5 0.000666654 2.66913e-15)
(2764.5 0.000695423 2.35224e-15)
(2764.5 0.000723402 1.54928e-15)
(2764.5 0.000750752 3.11648e-15)
(2764.5 0.000777626 2.74045e-15)
(2764.5 0.000804165 2.38316e-15)
(2764.5 0.000830482 2.37372e-15)
(2764.5 0.000856666 2.05316e-15)
(2764.5 0.00088279 2.01001e-15)
(2764.5 0.000908887 2.74626e-15)
(2764.5 0.00093499 2.52837e-15)
(2764.5 0.000961036 1.99806e-15)
(2764.5 0.000987102 2.27944e-15)
(2764.5 0.0010129 1.92409e-15)
(2764.5 0.00103872 2.04585e-15)
(2764.5 0.00106398 3.18611e-15)
(2764.5 0.00108879 2.34542e-15)
(2764.5 0.00111427 2.81005e-15)
(2764.5 0.00113608 3.11952e-15)
(2764.5 0.00116202 1.28499e-15)
(2764.5 0.00118254 2.34516e-15)
(2764.5 0.00119851 3.21809e-15)
(2764.5 0.00122261 2.93939e-15)
(2764.5 0.00122408 2.82821e-15)
(2764.5 0.00125117 2.79653e-15)
(2764.5 0.00116506 2.60019e-15)
(2764.5 3.60433e-07 1.46777e-14)
(2764.5 3.68711e-07 1.60534e-14)
(2764.5 3.75678e-07 1.36585e-14)
(2764.5 3.81352e-07 1.35175e-14)
(2764.5 3.85655e-07 1.38291e-14)
(2764.5 3.88512e-07 1.34558e-14)
(2764.5 3.89911e-07 1.24045e-14)
(2764.5 3.89848e-07 1.40053e-14)
(2764.5 3.88725e-07 1.59208e-14)
(2764.5 3.86847e-07 1.47548e-14)
(2764.5 3.8323e-07 1.29612e-14)
(2764.5 3.78368e-07 1.60533e-14)
(2764.5 3.72589e-07 1.73608e-14)
(2764.5 3.65902e-07 1.67429e-14)
(2764.5 3.58351e-07 1.47766e-14)
(2764.5 3.50012e-07 1.66887e-14)
(2764.5 3.40985e-07 1.27578e-14)
(2764.5 4.00889e-06 6.07451e-15)
(2764.5 4.32248e-06 8.74089e-15)
(2764.5 4.65213e-06 1.09586e-14)
(2764.5 4.9958e-06 1.07443e-14)
(2764.5 5.35115e-06 1.01775e-14)
(2764.5 5.71571e-06 1.08254e-14)
(2764.5 6.08689e-06 8.75984e-15)
(2764.5 6.46215e-06 1.05048e-14)
(2764.5 6.83906e-06 1.22424e-14)
(2764.5 7.21534e-06 9.28988e-15)
(2764.5 7.58886e-06 7.21311e-15)
(2764.5 7.95764e-06 9.13998e-15)
(2764.5 8.3198e-06 9.68339e-15)
(2764.5 8.67352e-06 9.40577e-15)
(2764.5 9.01702e-06 6.73387e-15)
(2764.5 9.34844e-06 7.96407e-15)
(2764.5 9.66582e-06 8.54476e-15)
(2764.5 9.96712e-06 8.03261e-15)
(2764.5 1.02501e-05 1.13831e-14)
(2764.5 1.05125e-05 1.01118e-14)
(2764.5 1.07518e-05 1.05598e-14)
(2764.5 1.09656e-05 1.12117e-14)
(2764.5 1.11513e-05 1.05274e-14)
(2764.5 1.13067e-05 1.00096e-14)
(2764.5 1.14297e-05 9.61667e-15)
(2764.5 1.15188e-05 9.49508e-15)
(2764.5 1.15733e-05 9.24983e-15)
(2764.5 1.15934e-05 9.18911e-15)
(2764.5 1.15809e-05 8.76417e-15)
(2764.5 1.15387e-05 9.62845e-15)
(2764.5 1.14715e-05 7.79178e-15)
(2764.5 1.13852e-05 1.03017e-14)
(2764.5 1.12877e-05 9.84297e-15)
(2764.5 1.11879e-05 9.3697e-15)
(2764.5 1.10962e-05 6.55024e-15)
(2764.5 1.10238e-05 8.54083e-15)
(2764.5 1.09827e-05 1.05019e-14)
(2764.5 1.09852e-05 7.62948e-15)
(2764.5 1.10443e-05 8.12953e-15)
(2764.5 1.11734e-05 1.00207e-14)
(2764.5 1.13866e-05 9.63534e-15)
(2764.5 1.16986e-05 1.09213e-14)
(2764.5 1.21248e-05 8.86488e-15)
(2764.5 1.26816e-05 8.40724e-15)
(2764.5 1.33861e-05 1.12022e-14)
(2764.5 1.42565e-05 9.4917e-15)
(2764.5 1.53116e-05 7.05575e-15)
(2764.5 1.65708e-05 6.90271e-15)
(2764.5 1.80528e-05 9.97195e-15)
(2764.5 1.97763e-05 7.10095e-15)
(2764.5 2.17597e-05 8.28169e-15)
(2764.5 2.40197e-05 8.81581e-15)
(2764.5 2.65714e-05 8.26658e-15)
(2764.5 2.94266e-05 8.4409e-15)
(2764.5 3.25936e-05 6.16737e-15)
(2764.5 3.60749e-05 5.9204e-15)
(2764.5 3.98662e-05 8.40118e-15)
(2764.5 4.39557e-05 7.83622e-15)
(2764.5 4.83239e-05 9.93363e-15)
(2764.5 5.29428e-05 8.5634e-15)
(2764.5 5.77768e-05 6.65201e-15)
(2764.5 6.27852e-05 7.4552e-15)
(2764.5 6.79239e-05 8.13566e-15)
(2764.5 7.31484e-05 7.67213e-15)
(2764.5 7.84162e-05 9.77261e-15)
(2764.5 8.36891e-05 1.00376e-14)
(2764.5 8.89344e-05 7.76085e-15)
(2764.5 9.4125e-05 7.06328e-15)
(2764.5 9.92396e-05 9.13548e-15)
(2764.5 0.000104261 8.39543e-15)
(2764.5 0.000109174 8.22048e-15)
(2764.5 0.000113967 7.56126e-15)
(2764.5 0.000118627 7.50837e-15)
(2764.5 0.000123137 7.54118e-15)
(2764.5 0.000127483 1.03887e-14)
(2764.5 0.000131642 8.60803e-15)
(2764.5 0.000135589 7.33363e-15)
(2764.5 0.000139295 6.77492e-15)
(2764.5 0.000142726 6.52239e-15)
(2764.5 0.000145842 6.33307e-15)
(2764.5 0.0001486 4.66487e-15)
(2764.5 0.000150956 5.76525e-15)
(2764.5 0.00015286 6.88375e-15)
(2764.5 0.000154258 8.20993e-15)
(2764.5 0.000155091 8.51229e-15)
(2764.5 0.000155306 8.26389e-15)
(2764.5 0.000154862 7.05261e-15)
(2764.5 0.000153731 6.43551e-15)
(2764.5 0.000151905 7.95878e-15)
(2764.5 0.000149393 7.91869e-15)
(2764.5 0.000146231 8.63419e-15)
(2764.5 0.000142479 8.6213e-15)
(2764.5 0.000138222 8.1512e-15)
(2764.5 0.000133573 7.01441e-15)
(2764.5 0.000128666 4.09955e-15)
(2764.5 0.000123651 6.86346e-15)
(2764.5 0.000118691 4.32829e-15)
(2764.5 0.000113953 5.34754e-15)
(2764.5 0.00010961 8.37191e-15)
(2764.5 0.000105836 5.80816e-15)
(2764.5 0.000102808 6.68827e-15)
(2764.5 0.000100711 5.4189e-15)
(2764.5 9.97437e-05 5.57869e-15)
(2764.5 0.000100117 6.7773e-15)
(2764.5 0.000102063 7.58148e-15)
(2764.5 0.00010583 6.51438e-15)
(2764.5 0.00011169 5.05398e-15)
(2764.5 0.000119931 6.96327e-15)
(2764.5 0.000130864 6.53674e-15)
(2764.5 0.000144818 5.90271e-15)
(2764.5 0.000162119 8.60947e-15)
(2764.5 0.000183093 9.58404e-15)
(2764.5 0.000208104 6.14737e-15)
(2764.5 0.000237502 6.46685e-15)
(2764.5 0.000271624 6.59427e-15)
(2764.5 0.000310794 4.96783e-15)
(2764.5 0.000355323 7.36317e-15)
(2764.5 0.000405475 8.63705e-15)
(2764.5 0.000461462 6.58939e-15)
(2764.5 0.000523434 7.07821e-15)
(2764.5 0.000591441 5.36167e-15)
(2764.5 0.000665412 3.8811e-15)
(2764.5 0.000745128 8.35608e-15)
(2764.5 0.000830199 8.03952e-15)
(2764.5 0.000920063 5.36196e-15)
(2764.5 0.00101399 4.80834e-15)
(2764.5 0.00111114 4.7498e-15)
(2764.5 0.00121057 5.04217e-15)
(2764.5 0.00131138 4.81095e-15)
(2764.5 0.00141271 5.09247e-15)
(2764.5 0.00151382 7.00634e-15)
(2764.5 0.0016141 4.36917e-15)
(2764.5 0.00171309 4.91825e-15)
(2764.5 0.00181052 5.65844e-15)
(2764.5 0.0019062 6.10981e-15)
(2764.5 0.00200005 7.4782e-15)
(2764.5 0.00209205 5.73861e-15)
(2764.5 0.0021822 5.25552e-15)
(2764.5 0.00227049 5.9028e-15)
(2764.5 0.00235687 7.15057e-15)
(2764.5 0.00244126 7.16847e-15)
(2764.5 0.0025235 7.25318e-15)
(2764.5 0.00260337 7.02293e-15)
(2764.5 0.00268054 6.94222e-15)
(2764.5 0.00275456 7.13907e-15)
(2764.5 0.00282487 6.45644e-15)
(2764.5 0.00289075 6.19262e-15)
(2764.5 0.00295135 6.74969e-15)
(2764.5 0.0030056 5.92814e-15)
(2764.5 0.00305317 5.57088e-15)
(2764.5 0.00309391 6.26321e-15)
(2764.5 0.00312566 6.22258e-15)
(2764.5 0.00314713 7.05316e-15)
(2764.5 0.00315711 6.94813e-15)
(2764.5 0.00315437 6.49151e-15)
(2764.5 0.00313771 6.66018e-15)
(2764.5 0.00310543 6.3631e-15)
(2764.5 0.00305681 7.2261e-15)
(2764.5 0.00299176 6.85292e-15)
(2764.5 0.00291007 5.41049e-15)
(2764.5 0.00281193 6.35282e-15)
(2764.5 0.00269802 5.5384e-15)
(2764.5 0.00256947 4.7023e-15)
(2764.5 0.00242784 5.46063e-15)
(2764.5 0.00227515 4.26324e-15)
(2764.5 0.00211373 4.84123e-15)
(2764.5 0.00194617 6.37372e-15)
(2764.5 0.00177517 6.24114e-15)
(2764.5 0.00160351 5.61323e-15)
(2764.5 0.00143391 6.0226e-15)
(2764.5 0.00126908 5.60942e-15)
(2764.5 0.00111182 3.48071e-15)
(2764.5 0.00096505 5.42318e-15)
(2764.5 0.00083197 6.00166e-15)
(2764.5 0.000716091 5.00592e-15)
(2764.5 0.000621371 5.29882e-15)
(2764.5 0.000552098 4.92667e-15)
(2764.5 0.000513123 5.14074e-15)
(2764.5 0.000509428 4.64997e-15)
(2764.5 0.000546809 4.84367e-15)
(2764.5 0.000631091 4.77203e-15)
(2764.5 0.000768202 4.36523e-15)
(2764.5 0.000966275 5.13138e-15)
(2764.5 0.00122689 4.93977e-15)
(2764.5 0.00157007 3.90709e-15)
(2764.5 0.00197475 3.93264e-15)
(2764.5 0.00250335 5.35465e-15)
(2764.5 0.00306793 5.60965e-15)
(2764.5 0.00382015 6.12505e-15)
(2764.5 0.00458235 6.50588e-15)
(2764.5 0.00557151 5.9167e-15)
(2764.5 0.00659849 5.20019e-15)
(2764.5 0.00755411 4.51068e-15)
(2764.5 1.97333e-06 2.051e-14)
(2764.5 2.03099e-06 2.38881e-14)
(2764.5 2.08341e-06 2.27468e-14)
(2764.5 2.13001e-06 2.12398e-14)
(2764.5 2.17036e-06 2.38719e-14)
(2764.5 2.20379e-06 2.25079e-14)
(2764.5 2.22987e-06 2.14877e-14)
(2764.5 2.24823e-06 2.1663e-14)
(2764.5 2.25902e-06 2.18676e-14)
(2764.5 2.26234e-06 2.1888e-14)
(2764.5 2.25679e-06 2.15755e-14)
(2764.5 2.24268e-06 2.37362e-14)
(2764.5 2.22041e-06 2.06221e-14)
(2764.5 2.19044e-06 2.01948e-14)
(2764.5 2.15334e-06 2.28806e-14)
(2764.5 2.1096e-06 2.28787e-14)
(2764.5 2.74864e-05 1.48065e-14)
(2764.5 2.79387e-05 1.51518e-14)
(2764.5 2.83365e-05 1.54468e-14)
(2764.5 2.8682e-05 1.57921e-14)
(2764.5 2.89794e-05 1.5788e-14)
(2764.5 2.92358e-05 1.55517e-14)
(2764.5 2.94608e-05 1.4196e-14)
(2764.5 2.96671e-05 1.71132e-14)
(2764.5 2.98702e-05 1.49904e-14)
(2764.5 3.00881e-05 1.46818e-14)
(2764.5 3.03416e-05 1.58297e-14)
(2764.5 3.06537e-05 1.47885e-14)
(2764.5 3.10499e-05 1.56583e-14)
(2764.5 3.15577e-05 1.55717e-14)
(2764.5 3.2207e-05 1.19374e-14)
(2764.5 3.30298e-05 1.30638e-14)
(2764.5 3.40605e-05 1.25013e-14)
(2764.5 3.5336e-05 1.38836e-14)
(2764.5 3.68952e-05 1.52204e-14)
(2764.5 3.87791e-05 1.19189e-14)
(2764.5 4.10305e-05 1.44077e-14)
(2764.5 4.36929e-05 1.51013e-14)
(2764.5 4.68101e-05 1.40391e-14)
(2764.5 5.04247e-05 1.41368e-14)
(2764.5 5.45772e-05 1.44479e-14)
(2764.5 5.9304e-05 1.37104e-14)
(2764.5 6.4636e-05 1.37918e-14)
(2764.5 7.0597e-05 1.35164e-14)
(2764.5 7.72014e-05 1.25801e-14)
(2764.5 8.44526e-05 1.45661e-14)
(2764.5 9.23422e-05 1.27167e-14)
(2764.5 0.000100848 1.36098e-14)
(2764.5 0.000109935 1.34309e-14)
(2764.5 0.000119555 1.3634e-14)
(2764.5 0.000129649 1.24733e-14)
(2764.5 0.000140151 1.58121e-14)
(2764.5 0.000150989 1.18964e-14)
(2764.5 0.00016209 1.26236e-14)
(2764.5 0.000173383 1.4474e-14)
(2764.5 0.000184804 1.38386e-14)
(2764.5 0.000196294 1.38213e-14)
(2764.5 0.0002078 1.63873e-14)
(2764.5 0.000219276 1.27011e-14)
(2764.5 0.000230682 1.40392e-14)
(2764.5 0.00024198 1.31422e-14)
(2764.5 0.00025313 1.33212e-14)
(2764.5 0.000264094 1.50932e-14)
(2764.5 0.000274827 1.52433e-14)
(2764.5 0.000285278 1.42893e-14)
(2764.5 0.000295391 1.25022e-14)
(2764.5 0.000305098 1.20375e-14)
(2764.5 0.000314323 1.27714e-14)
(2764.5 0.000322984 1.21376e-14)
(2764.5 0.000330986 1.13235e-14)
(2764.5 0.000338232 1.27196e-14)
(2764.5 0.00034462 1.46789e-14)
(2764.5 0.000350048 1.20949e-14)
(2764.5 0.00035442 1.22277e-14)
(2764.5 0.000357653 1.39136e-14)
(2764.5 0.000359684 1.33545e-14)
(2764.5 0.000360481 1.31042e-14)
(2764.5 0.000360044 1.2775e-14)
(2764.5 0.000358421 1.35892e-14)
(2764.5 0.000355701 1.34655e-14)
(2764.5 0.000352023 1.14778e-14)
(2764.5 0.000347571 1.05948e-14)
(2764.5 0.000342576 1.40203e-14)
(2764.5 0.000337304 1.24766e-14)
(2764.5 0.000332054 1.18624e-14)
(2764.5 0.000327153 1.41705e-14)
(2764.5 0.000322956 1.20997e-14)
(2764.5 0.000319839 1.1079e-14)
(2764.5 0.000318209 1.28894e-14)
(2764.5 0.000318507 1.32312e-14)
(2764.5 0.000321214 1.13641e-14)
(2764.5 0.000326858 9.99372e-15)
(2764.5 0.000336017 1.25085e-14)
(2764.5 0.000349326 1.14341e-14)
(2764.5 0.000367474 1.06794e-14)
(2764.5 0.000391201 9.43983e-15)
(2764.5 0.000421294 9.98584e-15)
(2764.5 0.000458572 1.15258e-14)
(2764.5 0.000503881 1.24958e-14)
(2764.5 0.000558066 1.15935e-14)
(2764.5 0.000621957 1.11078e-14)
(2764.5 0.000696343 1.15598e-14)
(2764.5 0.000781936 1.05422e-14)
(2764.5 0.00087935 1.00762e-14)
(2764.5 0.000989056 9.50087e-15)
(2764.5 0.00111134 1.02029e-14)
(2764.5 0.00124629 1.2764e-14)
(2764.5 0.00139372 1.16309e-14)
(2764.5 0.00155315 1.04141e-14)
(2764.5 0.00172382 1.11693e-14)
(2764.5 0.00190466 8.81633e-15)
(2764.5 0.00209435 9.77733e-15)
(2764.5 0.00229139 8.49681e-15)
(2764.5 0.00249417 1.09288e-14)
(2764.5 0.00270108 1.05253e-14)
(2764.5 0.00291062 9.27028e-15)
(2764.5 0.00312143 9.99646e-15)
(2764.5 0.00333239 1.03966e-14)
(2764.5 0.00354262 9.30653e-15)
(2764.5 0.00375145 1.13854e-14)
(2764.5 0.00395843 1.22194e-14)
(2764.5 0.00416323 9.05296e-15)
(2764.5 0.00436562 8.8807e-15)
(2764.5 0.00456538 1.17361e-14)
(2764.5 0.00476228 1.07252e-14)
(2764.5 0.00495599 1.1672e-14)
(2764.5 0.00514609 1.24449e-14)
(2764.5 0.00533199 1.19787e-14)
(2764.5 0.00551293 1.00005e-14)
(2764.5 0.00568794 1.05237e-14)
(2764.5 0.00585582 1.0634e-14)
(2764.5 0.00601514 1.02966e-14)
(2764.5 0.00616423 1.04749e-14)
(2764.5 0.00630125 1.1015e-14)
(2764.5 0.00642413 1.02053e-14)
(2764.5 0.00653067 1.08844e-14)
(2764.5 0.00661846 1.08909e-14)
(2764.5 0.00668498 9.75449e-15)
(2764.5 0.00672765 1.05455e-14)
(2764.5 0.00674406 1.07955e-14)
(2764.5 0.00673216 1.02954e-14)
(2764.5 0.00669047 9.89882e-15)
(2764.5 0.0066182 8.86953e-15)
(2764.5 0.00651536 9.94726e-15)
(2764.5 0.00638281 8.09761e-15)
(2764.5 0.00622231 8.08556e-15)
(2764.5 0.00603644 8.96965e-15)
(2764.5 0.00582864 8.14338e-15)
(2764.5 0.00560299 1.05395e-14)
(2764.5 0.00536418 9.92792e-15)
(2764.5 0.00511729 9.10097e-15)
(2764.5 0.00486772 9.56382e-15)
(2764.5 0.00462107 9.15325e-15)
(2764.5 0.00438326 9.22939e-15)
(2764.5 0.00416063 1.10175e-14)
(2764.5 0.00396006 9.89787e-15)
(2764.5 0.00378924 9.18361e-15)
(2764.5 0.00365683 9.01922e-15)
(2764.5 0.00357261 9.43161e-15)
(2764.5 0.00354754 9.52818e-15)
(2764.5 0.00359388 8.82004e-15)
(2764.5 0.00372519 8.03788e-15)
(2764.5 0.00395637 9.22985e-15)
(2764.5 0.00430353 9.9836e-15)
(2764.5 0.00478392 9.43539e-15)
(2764.5 0.00541579 8.22081e-15)
(2764.5 0.00621791 9.657e-15)
(2764.5 0.00720954 9.09441e-15)
(2764.5 0.0084103 9.58292e-15)
(2764.5 0.00983993 8.32598e-15)
(2764.5 0.011518 7.65789e-15)
(2764.5 0.0134632 9.09918e-15)
(2764.49 0.0156932 9.21286e-15)
(2764.49 0.0182233 9.68554e-15)
(2764.49 0.0210662 8.62164e-15)
(2764.49 0.0242313 8.46131e-15)
(2764.49 0.0277234 8.86092e-15)
(2764.49 0.0315421 7.00532e-15)
(2764.49 0.0356807 6.6044e-15)
(2764.48 0.0401256 7.47083e-15)
(2764.48 0.0448556 8.31454e-15)
(2764.48 0.0498422 8.60963e-15)
(2764.48 0.05505 7.8704e-15)
(2764.48 0.0604386 7.61745e-15)
(2764.48 0.0659652 1.01231e-14)
(2764.47 0.0715868 7.88023e-15)
(2764.47 0.0772627 6.70593e-15)
(2764.47 0.0829565 8.44103e-15)
(2764.47 0.088639 8.61222e-15)
(2764.47 0.0942868 7.84389e-15)
(2764.47 0.0998862 7.52072e-15)
(2764.47 0.105427 7.26417e-15)
(2764.47 0.110909 8.1421e-15)
(2764.47 0.116329 8.59107e-15)
(2764.47 0.121696 7.09324e-15)
(2764.47 0.127007 6.65022e-15)
(2764.46 0.132278 7.41995e-15)
(2764.46 0.137496 7.28367e-15)
(2764.46 0.142685 7.68583e-15)
(2764.46 0.147813 7.9592e-15)
(2764.46 0.152919 8.11175e-15)
(2764.45 0.157934 8.91603e-15)
(2764.45 0.162932 7.37071e-15)
(2764.45 0.167785 7.09234e-15)
(2764.45 0.1726 8.50956e-15)
(2764.44 0.177245 7.59566e-15)
(2764.44 0.181741 7.56637e-15)
(2764.44 0.186325 8.10997e-15)
(2764.44 0.186702 7.74133e-15)
(2764.5 1.11609e-05 3.0349e-14)
(2764.5 1.1438e-05 2.91324e-14)
(2764.5 1.16772e-05 2.78497e-14)
(2764.5 1.18771e-05 3.17793e-14)
(2764.5 1.20356e-05 3.22649e-14)
(2764.5 1.21516e-05 2.71859e-14)
(2764.5 1.22258e-05 2.93412e-14)
(2764.5 1.22596e-05 2.96685e-14)
(2764.5 1.22583e-05 2.79096e-14)
(2764.5 1.22139e-05 2.91239e-14)
(2764.5 1.2134e-05 3.34162e-14)
(2764.5 1.20202e-05 3.19245e-14)
(2764.5 1.1873e-05 3.01625e-14)
(2764.5 1.16951e-05 2.86266e-14)
(2764.5 1.14897e-05 2.94339e-14)
(2764.5 1.12595e-05 2.76327e-14)
(2764.5 0.000129896 2.10083e-14)
(2764.5 0.000139579 1.94002e-14)
(2764.5 0.00015033 2.02086e-14)
(2764.5 0.000162188 1.93424e-14)
(2764.5 0.000175178 2.14594e-14)
(2764.5 0.000189308 2.22161e-14)
(2764.5 0.000204568 1.89076e-14)
(2764.5 0.00022093 1.95092e-14)
(2764.5 0.000238348 2.12072e-14)
(2764.5 0.000256757 2.19615e-14)
(2764.5 0.000276081 1.94655e-14)
(2764.5 0.000296229 2.02881e-14)
(2764.5 0.000317103 1.86669e-14)
(2764.5 0.000338602 1.9108e-14)
(2764.5 0.000360622 2.06885e-14)
(2764.5 0.000383062 1.8948e-14)
(2764.5 0.000405821 1.95394e-14)
(2764.5 0.000428804 1.81028e-14)
(2764.5 0.000451914 1.70535e-14)
(2764.5 0.000475057 1.89773e-14)
(2764.5 0.000498136 2.04071e-14)
(2764.5 0.000521048 2.15728e-14)
(2764.5 0.000543685 2.09833e-14)
(2764.5 0.00056593 1.94059e-14)
(2764.5 0.000587655 1.79969e-14)
(2764.5 0.000608724 1.84415e-14)
(2764.5 0.000628988 1.8793e-14)
(2764.5 0.000648295 1.80394e-14)
(2764.5 0.000666488 2.11147e-14)
(2764.5 0.000683412 1.99164e-14)
(2764.5 0.00069892 1.69677e-14)
(2764.5 0.000712885 1.96281e-14)
(2764.5 0.000725203 1.78722e-14)
(2764.5 0.000735814 1.80718e-14)
(2764.5 0.000744703 1.88413e-14)
(2764.5 0.000751919 1.90623e-14)
(2764.5 0.000757579 1.9076e-14)
(2764.5 0.000761875 2.02257e-14)
(2764.5 0.000765078 1.92661e-14)
(2764.5 0.00076754 1.67e-14)
(2764.5 0.000769687 1.91859e-14)
(2764.5 0.000772017 1.81224e-14)
(2764.5 0.000775091 1.77783e-14)
(2764.5 0.000779533 1.91779e-14)
(2764.5 0.000786025 1.8786e-14)
(2764.5 0.00079531 1.81288e-14)
(2764.5 0.000808193 1.80545e-14)
(2764.5 0.000825549 1.69848e-14)
(2764.5 0.00084833 1.83885e-14)
(2764.5 0.000877571 1.53495e-14)
(2764.5 0.000914394 1.46682e-14)
(2764.5 0.000960007 1.79904e-14)
(2764.5 0.00101571 1.74779e-14)
(2764.5 0.00108285 1.68166e-14)
(2764.5 0.00116287 1.75202e-14)
(2764.5 0.00125722 1.82936e-14)
(2764.5 0.00136734 1.60404e-14)
(2764.5 0.00149466 1.65492e-14)
(2764.5 0.0016405 1.74144e-14)
(2764.5 0.00180606 1.73831e-14)
(2764.5 0.00199233 1.7863e-14)
(2764.5 0.00220006 1.69294e-14)
(2764.5 0.00242969 1.57982e-14)
(2764.5 0.00268128 1.67311e-14)
(2764.5 0.00295449 1.4427e-14)
(2764.5 0.00324856 1.40968e-14)
(2764.5 0.0035623 1.79257e-14)
(2764.5 0.00389414 1.69458e-14)
(2764.5 0.00424218 1.65777e-14)
(2764.5 0.00460435 1.71642e-14)
(2764.5 0.00497845 1.66405e-14)
(2764.5 0.00536231 1.58063e-14)
(2764.5 0.00575386 1.60498e-14)
(2764.5 0.00615123 1.59927e-14)
(2764.5 0.00655277 1.6717e-14)
(2764.5 0.00695703 1.56101e-14)
(2764.5 0.00736278 1.64382e-14)
(2764.5 0.00776887 1.55291e-14)
(2764.5 0.00817425 1.61231e-14)
(2764.5 0.00857785 1.56803e-14)
(2764.5 0.00897847 1.73525e-14)
(2764.5 0.00937477 1.57799e-14)
(2764.5 0.00976515 1.55915e-14)
(2764.5 0.0101478 1.51324e-14)
(2764.5 0.0105205 1.63008e-14)
(2764.5 0.0108807 1.5868e-14)
(2764.49 0.0112256 1.50461e-14)
(2764.49 0.0115521 1.4673e-14)
(2764.49 0.0118566 1.34347e-14)
(2764.49 0.0121354 1.53361e-14)
(2764.49 0.0123848 1.66852e-14)
(2764.49 0.012601 1.52987e-14)
(2764.49 0.0127801 1.53531e-14)
(2764.49 0.0129189 1.59263e-14)
(2764.49 0.0130145 1.43411e-14)
(2764.49 0.0130653 1.39454e-14)
(2764.49 0.0130704 1.35302e-14)
(2764.49 0.0130305 1.41778e-14)
(2764.49 0.0129474 1.48207e-14)
(2764.49 0.012825 1.33876e-14)
(2764.49 0.0126682 1.43583e-14)
(2764.49 0.0124836 1.41589e-14)
(2764.49 0.0122791 1.4038e-14)
(2764.49 0.0120639 1.51369e-14)
(2764.49 0.0118477 1.44193e-14)
(2764.49 0.0116415 1.29578e-14)
(2764.49 0.0114568 1.46078e-14)
(2764.49 0.0113058 1.50099e-14)
(2764.49 0.0112019 1.38841e-14)
(2764.49 0.0111598 1.27654e-14)
(2764.49 0.0111953 1.39976e-14)
(2764.49 0.0113265 1.61474e-14)
(2764.49 0.0115732 1.33239e-14)
(2764.49 0.0119573 1.34193e-14)
(2764.49 0.0125033 1.37199e-14)
(2764.49 0.0132377 1.22078e-14)
(2764.49 0.0141896 1.2933e-14)
(2764.49 0.0153899 1.31594e-14)
(2764.49 0.0168715 1.38831e-14)
(2764.49 0.0186687 1.65994e-14)
(2764.49 0.0208166 1.45856e-14)
(2764.49 0.0233507 1.23351e-14)
(2764.49 0.0263059 1.38066e-14)
(2764.49 0.0297157 1.41857e-14)
(2764.48 0.0336107 1.36204e-14)
(2764.48 0.0380181 1.42184e-14)
(2764.48 0.0429595 1.18616e-14)
(2764.48 0.0484509 1.22744e-14)
(2764.47 0.0544996 1.41167e-14)
(2764.47 0.0611042 1.31481e-14)
(2764.47 0.0682527 1.28252e-14)
(2764.46 0.0759224 1.24303e-14)
(2764.46 0.0840796 1.18884e-14)
(2764.46 0.0926809 1.20135e-14)
(2764.46 0.101675 1.19556e-14)
(2764.45 0.111005 1.2092e-14)
(2764.45 0.120614 1.33823e-14)
(2764.45 0.130445 1.3601e-14)
(2764.44 0.140447 1.25309e-14)
(2764.44 0.150574 1.22553e-14)
(2764.44 0.160791 1.11707e-14)
(2764.44 0.171068 1.17153e-14)
(2764.43 0.181387 1.22641e-14)
(2764.43 0.191732 1.21613e-14)
(2764.43 0.202093 1.10928e-14)
(2764.43 0.21246 1.32843e-14)
(2764.42 0.222825 1.27044e-14)
(2764.42 0.233175 1.27779e-14)
(2764.42 0.243494 1.25138e-14)
(2764.41 0.253764 1.19452e-14)
(2764.41 0.263957 1.31855e-14)
(2764.4 0.274044 1.11352e-14)
(2764.4 0.283987 1.16012e-14)
(2764.39 0.293738 1.1114e-14)
(2764.38 0.303242 1.17265e-14)
(2764.38 0.312431 1.14714e-14)
(2764.37 0.321226 1.20894e-14)
(2764.37 0.32954 1.29855e-14)
(2764.36 0.337273 1.25023e-14)
(2764.35 0.344319 1.1798e-14)
(2764.35 0.350564 1.24679e-14)
(2764.34 0.355891 1.19031e-14)
(2764.34 0.360181 1.21086e-14)
(2764.33 0.363316 1.05798e-14)
(2764.33 0.365183 1.15872e-14)
(2764.33 0.365686 1.21894e-14)
(2764.32 0.364747 1.12137e-14)
(2764.32 0.362317 1.07212e-14)
(2764.32 0.358377 1.1129e-14)
(2764.32 0.352942 9.6276e-15)
(2764.33 0.346061 1.20915e-14)
(2764.33 0.337826 1.04328e-14)
(2764.34 0.328356 1.10399e-14)
(2764.35 0.317828 1.18085e-14)
(2764.36 0.306421 1.12626e-14)
(2764.37 0.294397 1.04139e-14)
(2764.38 0.281957 1.18668e-14)
(2764.4 0.269449 1.10923e-14)
(2764.41 0.257033 1.03961e-14)
(2764.43 0.245186 9.98963e-15)
(2764.44 0.233918 1.10642e-14)
(2764.46 0.223997 1.06468e-14)
(2764.47 0.215049 9.87249e-15)
(2764.48 0.208449 1.05222e-14)
(2764.49 0.203085 1.04597e-14)
(2764.5 0.201487 1.03034e-14)
(2764.51 0.201034 8.90811e-15)
(2764.51 0.206977 8.71632e-15)
(2764.52 0.21235 1.03203e-14)
(2764.51 0.230589 1.041e-14)
(2764.51 0.237434 1.0664e-14)
(2764.5 0.292108 1.07268e-14)
(2764.52 0.247752 1.00044e-14)
(2764.5 5.08973e-05 3.61203e-14)
(2764.5 5.19396e-05 3.75827e-14)
(2764.5 5.28251e-05 4.02273e-14)
(2764.5 5.35433e-05 4.22577e-14)
(2764.5 5.40888e-05 3.86011e-14)
(2764.5 5.44549e-05 3.73154e-14)
(2764.5 5.46368e-05 3.936e-14)
(2764.5 5.46339e-05 3.94318e-14)
(2764.5 5.44092e-05 3.73314e-14)
(2764.5 5.40269e-05 3.98823e-14)
(2764.5 5.34777e-05 4.16541e-14)
(2764.5 5.27602e-05 3.71901e-14)
(2764.5 5.18815e-05 3.84882e-14)
(2764.5 5.08451e-05 3.50259e-14)
(2764.5 4.9662e-05 3.4772e-14)
(2764.5 0.00109864 2.78041e-14)
(2764.5 0.0011409 2.57682e-14)
(2764.5 0.00118225 2.55322e-14)
(2764.5 0.00122248 2.39315e-14)
(2764.5 0.00126137 2.65713e-14)
(2764.5 0.00129875 2.50845e-14)
(2764.5 0.00133444 2.38715e-14)
(2764.5 0.00136834 2.59883e-14)
(2764.5 0.00140038 2.58674e-14)
(2764.5 0.0014306 2.68839e-14)
(2764.5 0.00145909 2.54929e-14)
(2764.5 0.00148608 2.52797e-14)
(2764.5 0.00151187 2.60154e-14)
(2764.5 0.00153692 2.67856e-14)
(2764.5 0.0015618 2.41105e-14)
(2764.5 0.00158721 2.47795e-14)
(2764.5 0.00161395 2.7494e-14)
(2764.5 0.00164298 2.43839e-14)
(2764.5 0.00167535 2.60041e-14)
(2764.5 0.00171223 2.38924e-14)
(2764.5 0.00175492 2.24786e-14)
(2764.5 0.00180484 2.368e-14)
(2764.5 0.00186352 2.30544e-14)
(2764.5 0.00193264 2.36094e-14)
(2764.5 0.00201401 2.31866e-14)
(2764.5 0.00210957 2.33322e-14)
(2764.5 0.00222138 2.40261e-14)
(2764.5 0.00235163 2.36224e-14)
(2764.5 0.00250258 2.4629e-14)
(2764.5 0.00267654 2.41401e-14)
(2764.5 0.00287583 2.39302e-14)
(2764.5 0.00310271 2.35152e-14)
(2764.5 0.00335931 2.31569e-14)
(2764.5 0.00364757 2.42235e-14)
(2764.5 0.00396914 2.34497e-14)
(2764.5 0.0043253 2.43129e-14)
(2764.5 0.00471689 2.44773e-14)
(2764.5 0.00514425 2.42089e-14)
(2764.5 0.00560714 2.35285e-14)
(2764.5 0.00610478 2.13143e-14)
(2764.5 0.00663579 2.13243e-14)
(2764.5 0.00719829 2.22679e-14)
(2764.5 0.00779001 2.27747e-14)
(2764.5 0.00840834 2.20113e-14)
(2764.5 0.00905046 2.0699e-14)
(2764.49 0.00971353 2.09458e-14)
(2764.49 0.0103947 2.17536e-14)
(2764.49 0.0110912 2.17274e-14)