/*--------------------------------*- C++ -*----------------------------------*\
| =========                 |                                                 |
| \\      /  F ield         | OpenFOAM: The Open Source CFD Toolbox           |
|  \\    /   O peration     | Version:  v1706                                 |
|   \\  /    A nd           | Web:      www.OpenFOAM.com                      |
|    \\/     M anipulation  |                                                 |
\*---------------------------------------------------------------------------*/
FoamFile
{
    version     2.0;
    format      ascii;
    class       volScalarField;
    location    "4e-06";
    object      wallHeatFlux;
}
// * * * * * * * * * * * * * * * * * * * * * * * * * * * * * * * * * * * * * //

dimensions      [1 0 -3 0 0 0 0];


internalField   uniform 0;

boundaryField
{
    cone
    {
        type            calculated;
        value           nonuniform List<scalar> 
119
(
-3613.61
-3613.21
-3612.84
-3612.52
-3612.24
-3611.99
-3611.76
-3611.55
-3611.33
-3611.12
-3610.91
-3610.7
-3610.5
-3610.29
-3610.08
-3609.88
-3609.67
-3609.47
-3609.27
-3609.06
-3608.86
-3608.66
-3608.46
-3608.25
-3608.05
-3607.85
-3607.65
-3607.45
-3607.25
-3607.05
-3606.85
-3606.65
-3606.45
-3606.25
-3606.05
-3605.85
-3605.65
-3605.45
-3605.25
-3605.05
-3604.86
-3604.66
-3604.46
-3604.26
-3604.07
-3603.87
-3603.67
-3603.48
-3603.28
-3603.08
-3602.89
-3602.69
-3602.5
-3602.3
-3602.11
-3601.91
-3601.72
-3601.52
-3601.33
-3601.14
-3600.94
-3600.75
-3600.56
-3600.36
-3600.17
-3599.98
-3599.79
-3599.59
-3599.4
-3599.21
-3599.02
-3598.83
-3598.64
-3598.45
-3598.26
-3598.07
-3597.88
-3597.69
-3597.5
-3597.31
-3597.12
-3596.93
-3596.74
-3596.55
-3596.36
-3596.17
-3595.99
-3595.8
-3595.61
-3595.42
-3595.24
-3595.05
-3594.86
-3594.67
-3594.49
-3594.3
-3594.12
-3593.93
-3593.74
-3593.56
-3593.37
-3593.19
-3593
-3592.82
-3592.63
-3592.45
-3592.27
-3592.11
-3591.99
-3591.98
-3592.16
-3592.7
-3593.79
-3595.92
-3600.74
-3613
-3643.72
-3715.31
-3847.95
)
;
    }
    inlet
    {
        type            calculated;
        value           uniform 0;
    }
    rWedge
    {
        type            wedge;
    }
    lWedge
    {
        type            wedge;
    }
    outlet
    {
        type            calculated;
        value           uniform 0;
    }
    procBoundary0to1
    {
        type            processor;
        value           uniform 0;
    }
    procBoundary0to2
    {
        type            processor;
        value           uniform 0;
    }
}


// ************************************************************************* //
