# Cf ()      
# Time       	patch        	min          	max          	average      
1.2e-05      	cone	3.639651e-05	1.126416e-01	3.627298e-02
