/*--------------------------------*- C++ -*----------------------------------*\
| =========                 |                                                 |
| \\      /  F ield         | OpenFOAM: The Open Source CFD Toolbox           |
|  \\    /   O peration     | Version:  v1706                                 |
|   \\  /    A nd           | Web:      www.OpenFOAM.com                      |
|    \\/     M anipulation  |                                                 |
\*---------------------------------------------------------------------------*/
FoamFile
{
    version     2.0;
    format      ascii;
    class       volVectorField;
    location    "8e-06";
    object      U;
}
// * * * * * * * * * * * * * * * * * * * * * * * * * * * * * * * * * * * * * //

dimensions      [0 1 -1 0 0 0 0];


internalField   nonuniform List<vector> 
30104
(
(2764.5 -4.78989e-11 2.28331e-15)
(2764.5 -4.59764e-11 6.38203e-15)
(2764.5 -4.49767e-11 6.43659e-15)
(2764.5 -4.41552e-11 1.87828e-15)
(2764.5 -4.3705e-11 3.70018e-15)
(2764.5 -4.34997e-11 2.85231e-15)
(2764.5 -4.36125e-11 7.99481e-16)
(2764.5 -4.44238e-11 1.6645e-15)
(2764.5 -4.29658e-11 3.95419e-15)
(2764.5 -4.2317e-11 4.93316e-15)
(2764.5 -4.15914e-11 3.11705e-15)
(2764.5 -4.0369e-11 4.06125e-15)
(2764.5 -3.85725e-11 2.13936e-15)
(2764.5 -3.74799e-11 2.48778e-15)
(2764.5 -3.73558e-11 4.76297e-15)
(2764.5 -3.7767e-11 5.04289e-15)
(2764.5 -3.82318e-11 4.86948e-15)
(2764.5 -3.93451e-11 1.90499e-15)
(2764.5 -4.27624e-11 3.7722e-15)
(2764.5 -4.56755e-11 2.89757e-15)
(2764.5 -4.40237e-11 2.74238e-15)
(2764.5 -4.0077e-11 2.62689e-15)
(2764.5 -3.54118e-11 2.69288e-15)
(2764.5 -3.28644e-11 2.05526e-15)
(2764.5 -3.12427e-11 4.00928e-15)
(2764.5 -2.90636e-11 2.60307e-15)
(2764.5 -3.03661e-11 1.65713e-15)
(2764.5 -3.43436e-11 2.5215e-15)
(2764.5 -3.46143e-11 2.53932e-15)
(2764.5 -3.26775e-11 4.15223e-15)
(2764.5 -3.08431e-11 3.42418e-15)
(2764.5 -3.22783e-11 7.19041e-16)
(2764.5 -3.17181e-11 2.14498e-15)
(2764.5 -3.18498e-11 2.44365e-15)
(2764.5 -3.29346e-11 2.65724e-15)
(2764.5 -3.62347e-11 3.44008e-15)
(2764.5 -3.97105e-11 2.05785e-15)
(2764.5 -4.3167e-11 3.61816e-15)
(2764.5 -4.46162e-11 3.8249e-15)
(2764.5 -4.67205e-11 1.91772e-15)
(2764.5 -4.94354e-11 1.86489e-15)
(2764.5 -5.00468e-11 1.92151e-15)
(2764.5 -4.89847e-11 1.70477e-15)
(2764.5 -5.03278e-11 1.69383e-15)
(2764.5 -5.14715e-11 1.93031e-15)
(2764.5 -5.16663e-11 1.9709e-15)
(2764.5 -5.23234e-11 2.47324e-15)
(2764.5 -5.60491e-11 1.20402e-15)
(2764.5 -5.73816e-11 2.77485e-15)
(2764.5 -5.63634e-11 3.59497e-15)
(2764.5 -5.33308e-11 2.62573e-15)
(2764.5 -4.56277e-11 1.46014e-15)
(2764.5 -4.24072e-11 1.58301e-15)
(2764.5 -3.90725e-11 3.85041e-15)
(2764.5 -3.64488e-11 1.3779e-15)
(2764.5 -3.39405e-11 2.40813e-15)
(2764.5 -3.08613e-11 2.84468e-15)
(2764.5 -2.61761e-11 1.70948e-15)
(2764.5 -1.78565e-11 1.84354e-15)
(2764.5 -9.58884e-12 2.38969e-15)
(2764.5 -9.73461e-12 3.11048e-15)
(2764.5 -1.00707e-11 3.40051e-15)
(2764.5 -9.33246e-12 1.95541e-15)
(2764.5 -8.54403e-12 1.94218e-15)
(2764.5 -1.06518e-11 2.04416e-15)
(2764.5 -1.6189e-11 2.21608e-15)
(2764.5 -2.28115e-11 1.17444e-15)
(2764.5 -2.49838e-11 3.23425e-15)
(2764.5 -3.19841e-11 2.19332e-15)
(2764.5 -4.01808e-11 2.50108e-16)
(2764.5 -4.57935e-11 1.56532e-15)
(2764.5 -5.14613e-11 2.10845e-15)
(2764.5 -5.57279e-11 4.5177e-16)
(2764.5 -6.56516e-11 2.06384e-15)
(2764.5 -6.98787e-11 3.26152e-15)
(2764.5 -6.78755e-11 2.05404e-15)
(2764.5 -6.65565e-11 1.21372e-15)
(2764.5 -7.06091e-11 2.64465e-16)
(2764.5 -7.78556e-11 2.96567e-15)
(2764.5 -8.07335e-11 2.9933e-15)
(2764.5 -7.84577e-11 2.06129e-15)
(2764.5 -7.90661e-11 4.26324e-15)
(2764.5 -7.6658e-11 3.35514e-15)
(2764.5 -7.07861e-11 2.86702e-15)
(2764.5 -6.83169e-11 3.62041e-15)
(2764.5 -6.49352e-11 3.00601e-15)
(2764.5 -5.64952e-11 3.17979e-15)
(2764.5 -5.01677e-11 2.71231e-15)
(2764.5 -3.83268e-11 2.34403e-15)
(2764.5 -2.52482e-11 2.4261e-15)
(2764.5 -1.61456e-11 5.00865e-16)
(2764.5 -9.43711e-12 2.82209e-15)
(2764.5 -6.41518e-12 3.46455e-15)
(2764.5 -4.49228e-13 3.0841e-15)
(2764.5 5.05281e-12 1.86406e-16)
(2764.5 5.28096e-12 -1.23717e-15)
(2764.5 8.45113e-12 1.95733e-15)
(2764.5 5.63482e-12 1.04139e-16)
(2764.5 5.58012e-12 1.75916e-15)
(2764.5 6.16429e-12 1.58525e-15)
(2764.5 7.64672e-12 -1.71104e-16)
(2764.5 3.87746e-12 3.00603e-15)
(2764.5 -2.65026e-12 2.34474e-15)
(2764.5 -9.22964e-12 1.6853e-15)
(2764.5 -1.58978e-11 7.6075e-16)
(2764.5 -2.52702e-11 1.03551e-15)
(2764.5 -2.96748e-11 1.74748e-15)
(2764.5 -4.08309e-11 1.64561e-15)
(2764.5 -5.30042e-11 1.15507e-15)
(2764.5 -6.80958e-11 1.78832e-15)
(2764.5 -8.60472e-11 2.15845e-15)
(2764.5 -9.34497e-11 -4.13364e-16)
(2764.5 -1.01251e-10 2.48045e-15)
(2764.5 -1.04143e-10 1.12755e-15)
(2764.5 -1.06037e-10 -1.19923e-15)
(2764.5 -1.0869e-10 1.46691e-15)
(2764.5 -1.17546e-10 2.71868e-15)
(2764.5 -1.24396e-10 2.72973e-15)
(2764.5 -1.18741e-10 2.57851e-15)
(2764.5 -1.16881e-10 1.95092e-15)
(2764.5 -1.19422e-10 1.92713e-15)
(2764.5 -1.17293e-10 1.58102e-15)
(2764.5 -1.15003e-10 2.50744e-15)
(2764.5 -1.11396e-10 8.07077e-16)
(2764.5 -1.02755e-10 2.92301e-16)
(2764.5 -9.29739e-11 2.69012e-15)
(2764.5 -7.76496e-11 3.68579e-15)
(2764.5 -5.81112e-11 2.96489e-15)
(2764.5 -4.0469e-11 3.24039e-15)
(2764.5 -1.85471e-11 2.64646e-15)
(2764.5 -6.4808e-12 2.82366e-15)
(2764.5 1.02546e-11 1.03526e-15)
(2764.5 2.8453e-11 1.30713e-15)
(2764.5 4.60351e-11 2.21952e-15)
(2764.5 6.16968e-11 2.32882e-15)
(2764.5 7.49895e-11 2.30961e-15)
(2764.5 9.31749e-11 1.50664e-15)
(2764.5 1.05752e-10 2.31384e-15)
(2764.5 1.13936e-10 7.69079e-16)
(2764.5 1.22403e-10 2.60307e-15)
(2764.5 1.22963e-10 3.78194e-15)
(2764.5 1.3685e-10 5.96005e-16)
(2764.5 1.36815e-10 -4.52056e-16)
(2764.5 1.23225e-10 2.9555e-16)
(2764.5 1.28793e-10 5.73554e-16)
(2764.5 1.21803e-10 9.45518e-16)
(2764.5 1.09128e-10 8.62732e-16)
(2764.5 8.73364e-11 6.29278e-16)
(2764.5 6.19894e-11 1.44793e-15)
(2764.5 3.37849e-11 6.52914e-16)
(2764.5 2.79715e-12 1.55856e-15)
(2764.5 -2.85948e-11 2.87417e-16)
(2764.5 -5.9584e-11 1.14382e-15)
(2764.5 -9.34104e-11 -5.56929e-16)
(2764.5 -1.15416e-10 5.15223e-16)
(2764.5 -1.36029e-10 8.9621e-16)
(2764.5 -1.5076e-10 1.04538e-16)
(2764.5 -1.58453e-10 1.38483e-15)
(2764.5 -1.60127e-10 2.13949e-15)
(2764.5 -1.79775e-10 1.47578e-15)
(2764.5 -2.04253e-10 1.85743e-15)
(2764.5 -2.29406e-10 3.84074e-16)
(2764.5 -2.49035e-10 -3.25511e-16)
(2764.5 -2.56177e-10 2.73637e-15)
(2764.5 -2.56989e-10 2.06051e-15)
(2764.5 -2.64789e-10 5.84494e-16)
(2764.5 -2.69387e-10 4.97574e-16)
(2764.5 -2.60349e-10 2.04631e-15)
(2764.5 -2.5533e-10 5.66482e-16)
(2764.5 -2.48804e-10 1.61485e-15)
(2764.5 -2.2998e-10 9.09405e-16)
(2764.5 -2.03508e-10 1.26891e-15)
(2764.5 -1.71527e-10 2.16192e-15)
(2764.5 -1.412e-10 1.29813e-15)
(2764.5 -1.11718e-10 2.32177e-15)
(2764.5 -9.51339e-11 1.86089e-15)
(2764.5 -6.76097e-11 1.30015e-15)
(2764.5 -3.33004e-11 7.55608e-16)
(2764.5 -1.62999e-11 2.03534e-15)
(2764.5 1.08917e-11 6.43184e-16)
(2764.5 3.5638e-11 1.63715e-15)
(2764.5 6.83021e-11 1.85083e-15)
(2764.5 1.03547e-10 1.3854e-15)
(2764.5 1.4409e-10 3.73165e-15)
(2764.5 1.79825e-10 2.24728e-15)
(2764.5 2.21043e-10 2.6298e-15)
(2764.5 2.66132e-10 2.00994e-16)
(2764.5 3.03269e-10 2.02518e-15)
(2764.5 3.25455e-10 2.16256e-15)
(2764.5 3.47955e-10 2.08503e-15)
(2764.5 3.66669e-10 1.62722e-15)
(2764.5 3.92732e-10 1.37587e-15)
(2764.5 4.13107e-10 5.99532e-16)
(2764.5 4.30144e-10 2.356e-15)
(2764.5 4.29623e-10 1.96482e-15)
(2764.5 4.28844e-10 9.41101e-16)
(2764.5 4.30245e-10 1.50021e-15)
(2764.5 4.29574e-10 7.1891e-16)
(2764.5 4.35957e-10 1.62986e-15)
(2764.5 4.2887e-10 2.24745e-15)
(2764.5 4.16395e-10 1.62612e-15)
(2764.5 4.00215e-10 2.04787e-15)
(2764.5 3.7506e-10 2.34381e-15)
(2764.5 3.33972e-10 1.39244e-15)
(2764.5 2.90925e-10 1.53129e-15)
(2764.5 2.68704e-10 1.71589e-15)
(2764.5 2.41884e-10 1.41603e-15)
(2764.5 2.08987e-10 8.58021e-16)
(2764.5 1.64871e-10 1.06427e-15)
(2764.5 9.72836e-11 9.97094e-16)
(2764.5 -1.23968e-10 1.39334e-14)
(2764.5 -1.26498e-10 1.39951e-14)
(2764.5 -1.26431e-10 1.07561e-14)
(2764.5 -1.25328e-10 1.05046e-14)
(2764.5 -1.25366e-10 1.29211e-14)
(2764.5 -1.25644e-10 1.24221e-14)
(2764.5 -1.25313e-10 1.19612e-14)
(2764.5 -1.26012e-10 1.08626e-14)
(2764.5 -1.27878e-10 1.28043e-14)
(2764.5 -1.28032e-10 9.41732e-15)
(2764.5 -1.28236e-10 1.11606e-14)
(2764.5 -1.28702e-10 1.40906e-14)
(2764.5 -1.29215e-10 1.50953e-14)
(2764.5 -1.29611e-10 1.33143e-14)
(2764.5 -1.27796e-10 1.55004e-14)
(2764.5 -1.26362e-10 1.61245e-14)
(2764.5 -1.24866e-10 1.04305e-14)
(2764.5 -1.16992e-10 3.1593e-15)
(2764.5 -1.12954e-10 5.7346e-15)
(2764.5 -1.12595e-10 9.72751e-15)
(2764.5 -1.16129e-10 9.39278e-15)
(2764.5 -1.2521e-10 8.82661e-15)
(2764.5 -1.29573e-10 8.5471e-15)
(2764.5 -1.28701e-10 7.84413e-15)
(2764.5 -1.26914e-10 9.02853e-15)
(2764.5 -1.23673e-10 1.05831e-14)
(2764.5 -1.15374e-10 7.95319e-15)
(2764.5 -1.14173e-10 4.78785e-15)
(2764.5 -1.14489e-10 6.95028e-15)
(2764.5 -1.18698e-10 7.9113e-15)
(2764.5 -1.19354e-10 7.25053e-15)
(2764.5 -1.16274e-10 4.46839e-15)
(2764.5 -1.19912e-10 5.36512e-15)
(2764.5 -1.21102e-10 6.38354e-15)
(2764.5 -1.19855e-10 4.44255e-15)
(2764.5 -1.17301e-10 9.92357e-15)
(2764.5 -1.11628e-10 9.25015e-15)
(2764.5 -1.11559e-10 9.71355e-15)
(2764.5 -1.14255e-10 9.69616e-15)
(2764.5 -1.12374e-10 9.41624e-15)
(2764.5 -1.09625e-10 9.26576e-15)
(2764.5 -1.11635e-10 8.71747e-15)
(2764.5 -1.06269e-10 8.58246e-15)
(2764.5 -9.39688e-11 8.25666e-15)
(2764.5 -8.84563e-11 7.76923e-15)
(2764.5 -8.63545e-11 7.60706e-15)
(2764.5 -8.17855e-11 7.47122e-15)
(2764.5 -7.9104e-11 7.01373e-15)
(2764.5 -7.99053e-11 8.58759e-15)
(2764.5 -8.27382e-11 7.86199e-15)
(2764.5 -9.10745e-11 7.15397e-15)
(2764.5 -9.49157e-11 5.20238e-15)
(2764.5 -1.00314e-10 6.36028e-15)
(2764.5 -1.03382e-10 7.74376e-15)
(2764.5 -1.10839e-10 5.25819e-15)
(2764.5 -1.20054e-10 6.21217e-15)
(2764.5 -1.29437e-10 7.61284e-15)
(2764.5 -1.4195e-10 8.17239e-15)
(2764.5 -1.58551e-10 1.00484e-14)
(2764.5 -1.6774e-10 7.44607e-15)
(2764.5 -1.65472e-10 7.28948e-15)
(2764.5 -1.66213e-10 9.9258e-15)
(2764.5 -1.67961e-10 9.40863e-15)
(2764.5 -1.67126e-10 5.55627e-15)
(2764.5 -1.64839e-10 4.23831e-15)
(2764.5 -1.55374e-10 8.69584e-15)
(2764.5 -1.53948e-10 5.28302e-15)
(2764.5 -1.54126e-10 6.92115e-15)
(2764.5 -1.42538e-10 7.66975e-15)
(2764.5 -1.31716e-10 7.67852e-15)
(2764.5 -1.24949e-10 8.14369e-15)
(2764.5 -1.16129e-10 5.5492e-15)
(2764.5 -1.07125e-10 5.50326e-15)
(2764.5 -9.53713e-11 7.91309e-15)
(2764.5 -8.73413e-11 6.79262e-15)
(2764.5 -8.19959e-11 8.97375e-15)
(2764.5 -7.43792e-11 8.54426e-15)
(2764.5 -5.33369e-11 6.40203e-15)
(2764.5 -3.52361e-11 6.93e-15)
(2764.5 -3.17501e-11 6.6386e-15)
(2764.5 -3.66546e-11 4.93945e-15)
(2764.5 -2.82919e-11 7.83535e-15)
(2764.5 -2.98316e-11 8.66747e-15)
(2764.5 -2.53932e-11 7.47627e-15)
(2764.5 -3.16056e-11 4.08318e-15)
(2764.5 -3.91876e-11 7.71499e-15)
(2764.5 -4.46138e-11 5.86454e-15)
(2764.5 -5.19049e-11 5.80193e-15)
(2764.5 -6.78414e-11 5.31968e-15)
(2764.5 -7.98931e-11 4.75086e-15)
(2764.5 -8.79049e-11 3.99641e-15)
(2764.5 -9.95804e-11 7.65081e-15)
(2764.5 -1.1029e-10 7.68211e-15)
(2764.5 -1.3228e-10 4.80715e-15)
(2764.5 -1.56426e-10 3.49837e-15)
(2764.5 -1.67868e-10 4.45118e-15)
(2764.5 -1.87217e-10 4.50848e-15)
(2764.5 -2.01559e-10 2.15269e-15)
(2764.5 -2.23138e-10 2.88035e-15)
(2764.5 -2.41814e-10 3.46165e-15)
(2764.5 -2.63547e-10 5.53943e-15)
(2764.5 -2.65813e-10 6.47522e-15)
(2764.5 -2.75483e-10 7.44771e-15)
(2764.5 -2.77568e-10 5.87023e-15)
(2764.5 -2.81951e-10 5.21754e-15)
(2764.5 -2.68129e-10 8.27469e-15)
(2764.5 -2.61342e-10 8.30649e-15)
(2764.5 -2.53424e-10 9.40878e-15)
(2764.5 -2.27624e-10 9.4087e-15)
(2764.5 -2.01123e-10 8.53062e-15)
(2764.5 -1.69259e-10 7.55885e-15)
(2764.5 -1.45228e-10 4.12372e-15)
(2764.5 -1.18064e-10 7.4185e-15)
(2764.5 -9.52931e-11 4.70739e-15)
(2764.5 -6.10475e-11 4.9509e-15)
(2764.5 -2.68319e-11 9.51148e-15)
(2764.5 8.2561e-12 5.69222e-15)
(2764.5 4.58242e-11 6.2661e-15)
(2764.5 6.8272e-11 4.93825e-15)
(2764.5 9.32383e-11 5.37614e-15)
(2764.5 1.22852e-10 6.19532e-15)
(2764.5 1.35053e-10 7.66803e-15)
(2764.5 1.50714e-10 5.60846e-15)
(2764.5 1.66585e-10 4.34564e-15)
(2764.5 1.68151e-10 6.1896e-15)
(2764.5 1.7416e-10 6.18704e-15)
(2764.5 1.59682e-10 3.65111e-15)
(2764.5 1.46882e-10 6.69647e-15)
(2764.5 1.24665e-10 8.10364e-15)
(2764.5 1.01193e-10 3.90479e-15)
(2764.5 7.70403e-11 4.03481e-15)
(2764.5 5.00007e-11 4.43735e-15)
(2764.5 1.53677e-11 2.30364e-15)
(2764.5 -3.01738e-11 4.71433e-15)
(2764.5 -5.94537e-11 6.4724e-15)
(2764.5 -9.96605e-11 4.06966e-15)
(2764.5 -1.49977e-10 4.97974e-15)
(2764.5 -1.95437e-10 2.91244e-15)
(2764.5 -2.44164e-10 3.49581e-16)
(2764.5 -3.00127e-10 4.52547e-15)
(2764.5 -3.30856e-10 5.15185e-15)
(2764.5 -3.85076e-10 3.34158e-15)
(2764.5 -4.05828e-10 2.45256e-15)
(2764.5 -4.207e-10 2.56692e-15)
(2764.5 -4.67666e-10 2.55289e-15)
(2764.5 -4.87284e-10 2.83013e-15)
(2764.5 -4.71018e-10 2.24986e-15)
(2764.5 -4.6812e-10 5.47473e-15)
(2764.5 -4.6886e-10 3.46713e-15)
(2764.5 -4.5782e-10 3.67413e-15)
(2764.5 -4.58642e-10 4.3768e-15)
(2764.5 -4.49802e-10 4.60351e-15)
(2764.5 -4.24623e-10 7.80574e-15)
(2764.5 -3.9556e-10 4.85584e-15)
(2764.5 -3.80604e-10 4.39126e-15)
(2764.5 -3.58573e-10 4.32343e-15)
(2764.5 -3.16857e-10 6.35733e-15)
(2764.5 -2.68483e-10 6.67923e-15)
(2764.5 -2.12026e-10 6.97139e-15)
(2764.5 -1.48869e-10 6.96558e-15)
(2764.5 -7.46217e-11 6.79715e-15)
(2764.5 2.77334e-13 7.44945e-15)
(2764.5 8.61374e-11 7.50464e-15)
(2764.5 1.6952e-10 6.03369e-15)
(2764.5 2.25461e-10 6.92389e-15)
(2764.5 2.95688e-10 6.60376e-15)
(2764.5 3.61399e-10 4.93427e-15)
(2764.5 3.95864e-10 6.01094e-15)
(2764.5 4.3677e-10 5.46125e-15)
(2764.5 4.76466e-10 6.71961e-15)
(2764.5 4.86121e-10 6.99442e-15)
(2764.5 4.94997e-10 6.10612e-15)
(2764.5 5.00527e-10 7.15525e-15)
(2764.5 5.15657e-10 5.7786e-15)
(2764.5 5.28337e-10 6.62428e-15)
(2764.5 5.23293e-10 6.96837e-15)
(2764.5 5.02139e-10 4.35543e-15)
(2764.5 4.71462e-10 5.25645e-15)
(2764.5 4.38901e-10 4.73103e-15)
(2764.5 3.94415e-10 4.58712e-15)
(2764.5 3.3973e-10 5.89248e-15)
(2764.5 2.70372e-10 3.60227e-15)
(2764.5 1.91604e-10 3.41056e-15)
(2764.5 1.19936e-10 3.96054e-15)
(2764.5 3.02408e-11 5.65908e-15)
(2764.5 -5.81473e-11 4.27766e-15)
(2764.5 -1.45889e-10 4.01886e-15)
(2764.5 -2.415e-10 5.31184e-15)
(2764.5 -3.07658e-10 2.00252e-15)
(2764.5 -3.72565e-10 3.29369e-15)
(2764.5 -4.40218e-10 4.60283e-15)
(2764.5 -5.1126e-10 2.47839e-15)
(2764.5 -5.88505e-10 3.28779e-15)
(2764.5 -6.57621e-10 3.14139e-15)
(2764.5 -7.14985e-10 2.53267e-15)
(2764.5 -7.49728e-10 1.90422e-15)
(2764.5 -8.05936e-10 2.35412e-15)
(2764.5 -8.71881e-10 2.70919e-15)
(2764.5 -9.3962e-10 2.84808e-15)
(2764.5 -9.76356e-10 2.4458e-15)
(2764.5 -1.01537e-09 2.94668e-15)
(2764.5 -1.04677e-09 1.59286e-15)
(2764.5 -1.07387e-09 6.61231e-16)
(2764.5 -1.08726e-09 2.84112e-15)
(2764.5 -1.10334e-09 3.56419e-15)
(2764.5 -1.11601e-09 4.98001e-15)
(2764.5 -1.13281e-09 5.49203e-15)
(2764.5 -1.13587e-09 5.83166e-15)
(2764.5 -1.12083e-09 4.5583e-15)
(2764.5 -1.10997e-09 3.21845e-15)
(2764.5 -2.02515e-10 1.7557e-14)
(2764.5 -2.04093e-10 2.03817e-14)
(2764.5 -2.07578e-10 1.97533e-14)
(2764.5 -2.08922e-10 2.00217e-14)
(2764.5 -2.07556e-10 2.33436e-14)
(2764.5 -2.09153e-10 2.12213e-14)
(2764.5 -2.09488e-10 2.15e-14)
(2764.5 -2.09194e-10 2.04009e-14)
(2764.5 -2.07661e-10 1.96901e-14)
(2764.5 -2.07351e-10 1.93563e-14)
(2764.5 -2.08375e-10 1.9354e-14)
(2764.5 -2.08616e-10 2.05208e-14)
(2764.5 -2.08812e-10 1.94961e-14)
(2764.5 -2.10128e-10 1.82661e-14)
(2764.5 -2.11801e-10 2.11896e-14)
(2764.5 -2.13356e-10 2.16318e-14)
(2764.5 -1.78556e-10 1.25279e-14)
(2764.5 -1.74945e-10 1.34752e-14)
(2764.5 -1.71706e-10 1.40882e-14)
(2764.5 -1.71551e-10 1.42382e-14)
(2764.5 -1.71822e-10 1.48731e-14)
(2764.5 -1.78764e-10 1.40052e-14)
(2764.5 -1.8145e-10 1.15997e-14)
(2764.5 -1.8733e-10 1.61354e-14)
(2764.5 -1.90259e-10 1.29521e-14)
(2764.5 -1.89017e-10 1.29142e-14)
(2764.5 -1.82636e-10 1.40452e-14)
(2764.5 -1.77549e-10 1.34465e-14)
(2764.5 -1.75733e-10 1.37234e-14)
(2764.5 -1.74159e-10 1.60948e-14)
(2764.5 -1.7256e-10 1.0988e-14)
(2764.5 -1.6646e-10 1.14666e-14)
(2764.5 -1.64686e-10 9.86197e-15)
(2764.5 -1.6573e-10 1.26418e-14)
(2764.5 -1.64388e-10 1.31759e-14)
(2764.5 -1.61899e-10 1.10005e-14)
(2764.5 -1.55187e-10 1.37275e-14)
(2764.5 -1.51348e-10 1.39867e-14)
(2764.5 -1.48865e-10 1.27312e-14)
(2764.5 -1.47674e-10 1.27455e-14)
(2764.5 -1.50051e-10 1.29359e-14)
(2764.5 -1.58937e-10 1.2411e-14)
(2764.5 -1.63135e-10 1.24296e-14)
(2764.5 -1.63057e-10 1.16855e-14)
(2764.5 -1.64824e-10 1.11228e-14)
(2764.5 -1.67602e-10 1.16736e-14)
(2764.5 -1.70854e-10 1.12761e-14)
(2764.5 -1.76551e-10 1.21504e-14)
(2764.5 -1.85565e-10 1.072e-14)
(2764.5 -1.96484e-10 1.2834e-14)
(2764.5 -2.10219e-10 9.61405e-15)
(2764.5 -2.27901e-10 1.78167e-14)
(2764.5 -2.3119e-10 1.04723e-14)
(2764.5 -2.31861e-10 1.06848e-14)
(2764.5 -2.29154e-10 1.36668e-14)
(2764.5 -2.29911e-10 1.38123e-14)
(2764.5 -2.17187e-10 1.26172e-14)
(2764.5 -2.16109e-10 1.62818e-14)
(2764.5 -2.08961e-10 1.11513e-14)
(2764.5 -2.00262e-10 1.44467e-14)
(2764.5 -1.90921e-10 1.23213e-14)
(2764.5 -1.77266e-10 1.17603e-14)
(2764.5 -1.65714e-10 1.38754e-14)
(2764.5 -1.52536e-10 1.4783e-14)
(2764.5 -1.35428e-10 1.42515e-14)
(2764.5 -1.2054e-10 1.15327e-14)
(2764.5 -1.05213e-10 1.09765e-14)
(2764.5 -9.76118e-11 1.12689e-14)
(2764.5 -8.41545e-11 1.11524e-14)
(2764.5 -7.17309e-11 8.37236e-15)
(2764.5 -6.70573e-11 9.45282e-15)
(2764.5 -6.68173e-11 1.33879e-14)
(2764.5 -6.33925e-11 8.78826e-15)
(2764.5 -7.12104e-11 8.26672e-15)
(2764.5 -8.80356e-11 1.10099e-14)
(2764.5 -1.05346e-10 1.05265e-14)
(2764.5 -1.24653e-10 1.10514e-14)
(2764.5 -1.47573e-10 1.02672e-14)
(2764.5 -1.60112e-10 1.12543e-14)
(2764.5 -1.71067e-10 1.14078e-14)
(2764.5 -1.93002e-10 9.1135e-15)
(2764.5 -2.25593e-10 7.03304e-15)
(2764.5 -2.53264e-10 1.03579e-14)
(2764.5 -2.70087e-10 1.03564e-14)
(2764.5 -2.95561e-10 7.96763e-15)
(2764.5 -3.16464e-10 1.29341e-14)
(2764.5 -3.44691e-10 1.01545e-14)
(2764.5 -3.63767e-10 9.31291e-15)
(2764.5 -3.70674e-10 1.10855e-14)
(2764.5 -3.80173e-10 1.27871e-14)
(2764.5 -3.78092e-10 1.06648e-14)
(2764.5 -3.56512e-10 7.92775e-15)
(2764.5 -3.43926e-10 1.11371e-14)
(2764.5 -3.32259e-10 1.11224e-14)
(2764.5 -3.08949e-10 1.08173e-14)
(2764.5 -3.01254e-10 8.97608e-15)
(2764.5 -2.69609e-10 9.69396e-15)
(2764.5 -2.26216e-10 1.12779e-14)
(2764.5 -1.90688e-10 1.24755e-14)
(2764.5 -1.63218e-10 1.15138e-14)
(2764.5 -1.23844e-10 1.09367e-14)
(2764.5 -7.59924e-11 1.15554e-14)
(2764.5 -3.91701e-11 1.05212e-14)
(2764.5 -1.48473e-11 1.0007e-14)
(2764.5 5.47228e-12 9.48163e-15)
(2764.5 2.84477e-11 9.1935e-15)
(2764.5 5.81212e-11 1.20109e-14)
(2764.5 8.6837e-11 1.14392e-14)
(2764.5 1.10536e-10 9.53551e-15)
(2764.5 1.23306e-10 1.02406e-14)
(2764.5 1.16733e-10 8.72541e-15)
(2764.5 1.16355e-10 9.00205e-15)
(2764.5 1.12695e-10 6.5441e-15)
(2764.5 8.57033e-11 8.20454e-15)
(2764.5 5.91033e-11 7.54983e-15)
(2764.5 3.00177e-11 5.97537e-15)
(2764.5 -4.00922e-12 7.10135e-15)
(2764.5 -2.27027e-11 7.04505e-15)
(2764.5 -5.37418e-11 6.08352e-15)
(2764.5 -1.04778e-10 7.33311e-15)
(2764.5 -1.66017e-10 8.57823e-15)
(2764.5 -2.24581e-10 6.11784e-15)
(2764.5 -2.80149e-10 4.16322e-15)
(2764.5 -3.35373e-10 7.97251e-15)
(2764.5 -3.97873e-10 5.89921e-15)
(2764.5 -4.63582e-10 8.04863e-15)
(2764.5 -5.10859e-10 9.79133e-15)
(2764.5 -5.52205e-10 9.69557e-15)
(2764.5 -5.98935e-10 6.61244e-15)
(2764.5 -6.23697e-10 8.1855e-15)
(2764.5 -6.27445e-10 7.39418e-15)
(2764.5 -6.36502e-10 8.98026e-15)
(2764.5 -6.45651e-10 8.35798e-15)
(2764.5 -6.33182e-10 9.78862e-15)
(2764.5 -6.23273e-10 9.61665e-15)
(2764.5 -5.98066e-10 9.21208e-15)
(2764.5 -5.71057e-10 1.03005e-14)
(2764.5 -5.27671e-10 1.00748e-14)
(2764.5 -4.84316e-10 9.90167e-15)
(2764.5 -4.38862e-10 9.51102e-15)
(2764.5 -3.96706e-10 9.76553e-15)
(2764.5 -3.39846e-10 9.8119e-15)
(2764.5 -2.65288e-10 8.52919e-15)
(2764.5 -2.10513e-10 9.99865e-15)
(2764.5 -1.38529e-10 8.15567e-15)
(2764.5 -6.81719e-11 7.02732e-15)
(2764.5 1.91178e-11 8.50685e-15)
(2764.5 1.15346e-10 7.74993e-15)
(2764.5 1.97181e-10 1.03943e-14)
(2764.5 3.00845e-10 1.0896e-14)
(2764.5 3.87533e-10 9.8562e-15)
(2764.5 4.39096e-10 1.07205e-14)
(2764.5 4.86523e-10 1.08397e-14)
(2764.5 5.17423e-10 1.0749e-14)
(2764.5 5.15284e-10 1.25143e-14)
(2764.5 5.1452e-10 1.04195e-14)
(2764.5 5.19411e-10 1.0284e-14)
(2764.5 5.16131e-10 9.38975e-15)
(2764.5 5.39211e-10 1.02939e-14)
(2764.5 5.35323e-10 9.59379e-15)
(2764.5 4.86895e-10 8.90386e-15)
(2764.5 4.21427e-10 7.92755e-15)
(2764.5 3.60347e-10 8.39377e-15)
(2764.5 3.00007e-10 9.24355e-15)
(2764.5 2.24303e-10 8.78724e-15)
(2764.5 1.43877e-10 6.96439e-15)
(2764.5 4.19888e-11 7.82732e-15)
(2764.5 -6.37877e-11 7.33473e-15)
(2764.5 -1.89491e-10 7.73756e-15)
(2764.5 -3.14377e-10 6.78402e-15)
(2764.5 -4.37633e-10 4.74028e-15)
(2764.5 -5.5613e-10 6.66534e-15)
(2764.5 -6.56535e-10 6.14345e-15)
(2764.5 -7.37622e-10 7.83365e-15)
(2764.5 -8.13671e-10 5.80545e-15)
(2764.5 -8.80546e-10 6.40111e-15)
(2764.5 -9.48276e-10 5.55986e-15)
(2764.5 -9.90912e-10 4.63841e-15)
(2764.5 -1.02335e-09 2.52035e-15)
(2764.5 -1.06242e-09 3.30739e-15)
(2764.5 -1.08018e-09 5.24938e-15)
(2764.5 -1.09385e-09 5.80267e-15)
(2764.5 -1.11102e-09 4.95294e-15)
(2764.5 -1.11629e-09 4.67988e-15)
(2764.5 -1.09732e-09 7.53329e-15)
(2764.5 -1.08334e-09 7.13123e-15)
(2764.5 -1.04321e-09 4.12078e-15)
(2764.5 -9.85519e-10 7.48341e-15)
(2764.5 -9.21379e-10 8.18276e-15)
(2764.5 -8.59065e-10 6.95666e-15)
(2764.5 -7.72708e-10 6.1445e-15)
(2764.5 -6.8447e-10 6.19525e-15)
(2764.5 -6.05614e-10 7.93446e-15)
(2764.5 -5.07593e-10 8.63315e-15)
(2764.5 -3.86338e-10 7.34372e-15)
(2764.5 -2.87276e-10 6.63889e-15)
(2764.5 -1.82547e-10 7.85239e-15)
(2764.5 -1.01204e-10 7.9615e-15)
(2764.5 -4.85529e-11 8.15309e-15)
(2764.5 -7.67254e-12 8.55915e-15)
(2764.5 5.94303e-11 8.60445e-15)
(2764.5 1.62336e-10 9.84103e-15)
(2764.5 2.53135e-10 8.41672e-15)
(2764.5 3.31562e-10 6.99508e-15)
(2764.5 3.85803e-10 9.42211e-15)
(2764.5 4.73556e-10 8.43998e-15)
(2764.5 5.82336e-10 8.38447e-15)
(2764.5 7.03302e-10 9.40576e-15)
(2764.5 8.1998e-10 9.21074e-15)
(2764.5 -2.83703e-10 2.76938e-14)
(2764.5 -2.83219e-10 2.60573e-14)
(2764.5 -2.8576e-10 2.45712e-14)
(2764.5 -2.86564e-10 2.90343e-14)
(2764.5 -2.8685e-10 2.95852e-14)
(2764.5 -2.8532e-10 2.4128e-14)
(2764.5 -2.84706e-10 2.63839e-14)
(2764.5 -2.88103e-10 2.59972e-14)
(2764.5 -2.87847e-10 2.46053e-14)
(2764.5 -2.89408e-10 2.62405e-14)
(2764.5 -2.90779e-10 3.05645e-14)
(2764.5 -2.9055e-10 2.94421e-14)
(2764.5 -2.9094e-10 2.82663e-14)
(2764.5 -2.92319e-10 2.78817e-14)
(2764.5 -2.91693e-10 3.06373e-14)
(2764.5 -2.94955e-10 2.49227e-14)
(2764.5 -2.64479e-10 1.75586e-14)
(2764.5 -2.63401e-10 1.75459e-14)
(2764.5 -2.56311e-10 1.76461e-14)
(2764.5 -2.5237e-10 1.71717e-14)
(2764.5 -2.48557e-10 1.88823e-14)
(2764.5 -2.46343e-10 2.01133e-14)
(2764.5 -2.46502e-10 1.85619e-14)
(2764.5 -2.486e-10 1.68717e-14)
(2764.5 -2.55595e-10 1.96997e-14)
(2764.5 -2.61304e-10 1.97477e-14)
(2764.5 -2.61876e-10 1.80497e-14)
(2764.5 -2.62494e-10 1.83491e-14)
(2764.5 -2.55052e-10 1.55848e-14)
(2764.5 -2.4879e-10 1.5745e-14)
(2764.5 -2.45942e-10 1.80743e-14)
(2764.5 -2.43286e-10 1.67097e-14)
(2764.5 -2.34896e-10 1.60857e-14)
(2764.5 -2.35683e-10 1.63162e-14)
(2764.5 -2.41255e-10 1.19727e-14)
(2764.5 -2.44582e-10 1.4723e-14)
(2764.5 -2.46923e-10 1.64346e-14)
(2764.5 -2.46718e-10 1.7652e-14)
(2764.5 -2.50888e-10 1.89185e-14)
(2764.5 -2.59112e-10 1.75782e-14)
(2764.5 -2.67275e-10 1.63818e-14)
(2764.5 -2.73048e-10 1.61732e-14)
(2764.5 -2.90931e-10 1.70453e-14)
(2764.5 -2.97738e-10 1.73052e-14)
(2764.5 -3.00833e-10 1.94269e-14)
(2764.5 -3.00978e-10 1.84523e-14)
(2764.5 -2.95489e-10 1.50239e-14)
(2764.5 -2.83075e-10 1.88636e-14)
(2764.5 -2.67521e-10 1.61506e-14)
(2764.5 -2.54906e-10 1.62689e-14)
(2764.5 -2.38975e-10 1.71716e-14)
(2764.5 -2.32362e-10 1.71573e-14)
(2764.5 -2.21208e-10 1.82734e-14)
(2764.5 -2.14055e-10 1.92427e-14)
(2764.5 -2.07917e-10 1.78653e-14)
(2764.5 -2.00251e-10 1.51101e-14)
(2764.5 -1.9186e-10 1.79008e-14)
(2764.5 -1.87127e-10 1.62937e-14)
(2764.5 -1.85596e-10 1.60033e-14)
(2764.5 -1.86346e-10 1.82859e-14)
(2764.5 -1.98505e-10 1.80729e-14)
(2764.5 -2.054e-10 1.76284e-14)
(2764.5 -2.04145e-10 1.69064e-14)
(2764.5 -2.06031e-10 1.59819e-14)
(2764.5 -2.16103e-10 1.6826e-14)
(2764.5 -2.32969e-10 1.28032e-14)
(2764.5 -2.38822e-10 1.19732e-14)
(2764.5 -2.49854e-10 1.51231e-14)
(2764.5 -2.75462e-10 1.5791e-14)
(2764.5 -2.91499e-10 1.45674e-14)
(2764.5 -3.05164e-10 1.60019e-14)
(2764.5 -3.20684e-10 1.58462e-14)
(2764.5 -3.35208e-10 1.39545e-14)
(2764.5 -3.47119e-10 1.39227e-14)
(2764.5 -3.57119e-10 1.46523e-14)
(2764.5 -3.71763e-10 1.55648e-14)
(2764.5 -3.68523e-10 1.73954e-14)
(2764.5 -3.73738e-10 1.69163e-14)
(2764.5 -3.75022e-10 1.41078e-14)
(2764.5 -3.62737e-10 1.6633e-14)
(2764.5 -3.45565e-10 1.386e-14)
(2764.5 -3.31296e-10 1.30432e-14)
(2764.5 -3.147e-10 1.69315e-14)
(2764.5 -2.79815e-10 1.69085e-14)
(2764.5 -2.61563e-10 1.63379e-14)
(2764.5 -2.413e-10 1.66872e-14)
(2764.5 -2.25303e-10 1.64532e-14)
(2764.5 -2.05881e-10 1.58416e-14)
(2764.5 -1.86549e-10 1.69372e-14)
(2764.5 -1.68955e-10 1.61879e-14)
(2764.5 -1.44666e-10 1.65332e-14)
(2764.5 -1.17019e-10 1.56297e-14)
(2764.5 -8.54033e-11 1.67787e-14)
(2764.5 -6.86458e-11 1.56832e-14)
(2764.5 -5.34567e-11 1.63282e-14)
(2764.5 -3.88095e-11 1.53731e-14)
(2764.5 -4.48356e-11 1.72518e-14)
(2764.5 -4.30506e-11 1.53891e-14)
(2764.5 -3.15965e-11 1.40346e-14)
(2764.5 -3.0717e-11 1.27785e-14)
(2764.5 -3.67452e-11 1.45092e-14)
(2764.5 -5.1717e-11 1.46322e-14)
(2764.5 -7.99941e-11 1.32899e-14)
(2764.5 -1.19746e-10 1.26443e-14)
(2764.5 -1.57376e-10 1.10044e-14)
(2764.5 -2.07607e-10 1.16292e-14)
(2764.5 -2.66079e-10 1.22566e-14)
(2764.5 -3.31159e-10 1.19939e-14)
(2764.5 -3.80679e-10 1.19393e-14)
(2764.5 -4.34038e-10 1.24436e-14)
(2764.5 -4.72275e-10 1.17296e-14)
(2764.5 -5.25886e-10 1.08399e-14)
(2764.5 -5.78848e-10 9.88977e-15)
(2764.5 -6.18755e-10 1.08082e-14)
(2764.5 -6.45899e-10 1.21099e-14)
(2764.5 -6.64086e-10 1.18754e-14)
(2764.5 -6.80778e-10 1.2322e-14)
(2764.5 -6.97474e-10 1.19551e-14)
(2764.5 -6.77262e-10 1.34186e-14)
(2764.5 -6.41898e-10 1.3223e-14)
(2764.5 -6.17218e-10 1.29944e-14)
(2764.5 -5.93545e-10 1.24814e-14)
(2764.5 -5.60497e-10 1.41179e-14)
(2764.5 -5.26329e-10 1.52149e-14)
(2764.5 -4.67419e-10 1.38343e-14)
(2764.5 -4.07641e-10 1.24804e-14)
(2764.5 -3.61136e-10 1.2675e-14)
(2764.5 -2.89582e-10 1.77506e-14)
(2764.5 -2.32952e-10 1.40283e-14)
(2764.5 -1.74916e-10 1.44018e-14)
(2764.5 -1.16793e-10 1.50154e-14)
(2764.5 -5.67949e-11 1.24079e-14)
(2764.5 1.12151e-11 1.42175e-14)
(2764.5 7.9015e-11 1.31711e-14)
(2764.5 1.44028e-10 1.47867e-14)
(2764.5 1.92853e-10 1.81248e-14)
(2764.5 2.58527e-10 1.63158e-14)
(2764.5 3.13877e-10 1.4526e-14)
(2764.5 3.42913e-10 1.5637e-14)
(2764.5 3.74861e-10 1.54021e-14)
(2764.5 3.99088e-10 1.45147e-14)
(2764.5 4.0817e-10 1.47262e-14)
(2764.5 4.19945e-10 1.37641e-14)
(2764.5 4.0484e-10 1.16508e-14)
(2764.5 3.75352e-10 1.40287e-14)
(2764.5 3.10246e-10 1.3124e-14)
(2764.5 2.72778e-10 1.24904e-14)
(2764.5 2.44889e-10 1.15525e-14)
(2764.5 1.58452e-10 1.0115e-14)
(2764.5 1.13157e-10 9.51332e-15)
(2764.5 3.89917e-11 9.20666e-15)
(2764.5 -6.18137e-11 8.49417e-15)
(2764.5 -1.46904e-10 1.01647e-14)
(2764.5 -2.49308e-10 1.15319e-14)
(2764.5 -3.45905e-10 1.04199e-14)
(2764.5 -4.70711e-10 9.25166e-15)
(2764.5 -5.90649e-10 8.04941e-15)
(2764.5 -7.3387e-10 8.2223e-15)
(2764.5 -8.42065e-10 8.55433e-15)
(2764.5 -9.30307e-10 8.46405e-15)
(2764.5 -9.96022e-10 7.7688e-15)
(2764.5 -1.04374e-09 9.87229e-15)
(2764.5 -1.08858e-09 9.75202e-15)
(2764.5 -1.12368e-09 9.33156e-15)
(2764.5 -1.13216e-09 9.86542e-15)
(2764.5 -1.13365e-09 9.52986e-15)
(2764.5 -1.1043e-09 1.04476e-14)
(2764.5 -1.03037e-09 7.94075e-15)
(2764.5 -9.59603e-10 8.61871e-15)
(2764.5 -8.56467e-10 8.70701e-15)
(2764.5 -7.36432e-10 9.56529e-15)
(2764.5 -6.0285e-10 9.35191e-15)
(2764.5 -4.57892e-10 1.09728e-14)
(2764.5 -3.05571e-10 1.25696e-14)
(2764.5 -2.12826e-10 1.27838e-14)
(2764.5 -1.61356e-10 1.18974e-14)
(2764.5 -9.5506e-11 1.32553e-14)
(2764.5 -1.86877e-11 1.26879e-14)
(2764.5 4.9894e-11 1.33605e-14)
(2764.5 1.18809e-10 1.07342e-14)
(2764.5 1.86196e-10 1.19334e-14)
(2764.5 2.5721e-10 1.28584e-14)
(2764.5 3.45305e-10 1.19461e-14)
(2764.5 4.35124e-10 1.1729e-14)
(2764.5 4.96127e-10 1.19109e-14)
(2764.5 5.65703e-10 9.8968e-15)
(2764.5 6.45705e-10 1.39201e-14)
(2764.5 7.15328e-10 1.18616e-14)
(2764.5 7.78998e-10 1.2306e-14)
(2764.5 8.61677e-10 1.35063e-14)
(2764.5 9.39075e-10 1.30853e-14)
(2764.5 9.99782e-10 1.18534e-14)
(2764.5 1.08556e-09 1.29251e-14)
(2764.5 1.19505e-09 1.20167e-14)
(2764.5 1.28203e-09 1.16967e-14)
(2764.5 1.39232e-09 1.08164e-14)
(2764.5 1.58191e-09 1.19538e-14)
(2764.5 1.80658e-09 1.15367e-14)
(2764.5 2.03808e-09 1.08145e-14)
(2764.5 2.25957e-09 1.14412e-14)
(2764.5 2.50991e-09 1.13432e-14)
(2764.5 2.77189e-09 1.14976e-14)
(2764.5 3.02862e-09 1.04047e-14)
(2764.5 3.25436e-09 9.70465e-15)
(2764.5 3.46106e-09 1.15739e-14)
(2764.5 3.67964e-09 1.16008e-14)
(2764.5 3.89141e-09 1.17714e-14)
(2764.5 4.09787e-09 1.16966e-14)
(2764.5 4.07826e-09 1.13363e-14)
(2764.5 -3.72594e-10 3.29247e-14)
(2764.5 -3.69293e-10 3.40599e-14)
(2764.5 -3.68394e-10 3.66543e-14)
(2764.5 -3.69005e-10 3.99639e-14)
(2764.5 -3.70481e-10 3.61442e-14)
(2764.5 -3.71708e-10 3.46569e-14)
(2764.5 -3.73295e-10 3.50525e-14)
(2764.5 -3.74948e-10 3.75215e-14)
(2764.5 -3.79285e-10 3.40384e-14)
(2764.5 -3.78175e-10 3.66158e-14)
(2764.5 -3.78569e-10 4.07974e-14)
(2764.5 -3.76703e-10 3.52059e-14)
(2764.5 -3.7327e-10 3.60049e-14)
(2764.5 -3.72098e-10 3.35213e-14)
(2764.5 -3.72244e-10 3.34515e-14)
(2764.5 -3.52036e-10 2.794e-14)
(2764.5 -3.64522e-10 2.52908e-14)
(2764.5 -3.67488e-10 2.39117e-14)
(2764.5 -3.63151e-10 2.2239e-14)
(2764.5 -3.61343e-10 2.422e-14)
(2764.5 -3.60698e-10 2.25193e-14)
(2764.5 -3.5724e-10 2.22833e-14)
(2764.5 -3.53773e-10 2.50429e-14)
(2764.5 -3.54019e-10 2.44106e-14)
(2764.5 -3.50385e-10 2.48786e-14)
(2764.5 -3.54134e-10 2.52441e-14)
(2764.5 -3.60956e-10 2.50289e-14)
(2764.5 -3.69844e-10 2.68827e-14)
(2764.5 -3.76843e-10 2.55515e-14)