/*--------------------------------*- C++ -*----------------------------------*\
| =========                 |                                                 |
| \\      /  F ield         | OpenFOAM: The Open Source CFD Toolbox           |
|  \\    /   O peration     | Version:  v1706                                 |
|   \\  /    A nd           | Web:      www.OpenFOAM.com                      |
|    \\/     M anipulation  |                                                 |
\*---------------------------------------------------------------------------*/
FoamFile
{
    version     2.0;
    format      ascii;
    class       volScalarField;
    location    "8e-06";
    object      wallHeatFlux;
}
// * * * * * * * * * * * * * * * * * * * * * * * * * * * * * * * * * * * * * //

dimensions      [1 0 -3 0 0 0 0];


internalField   uniform 0;

boundaryField
{
    cone
    {
        type            calculated;
        value           nonuniform List<scalar> 
119
(
550301
561052
572255
583947
596172
608975
622413
636549
651455
667214
683922
701691
720651
740950
762760
786270
811671
839114
868606
899802
931595
961445
984513
993108
977567
929533
847236
738731
618340
500138
393646
303262
229664
171441
126342
91979.4
66156.2
46982.1
32895.4
22643.3
15243.9
9942.63
6169.1
3498.36
1617.83
300.534
-616.881
-1251.63
-1687.5
-1984.23
-2184.58
-2318.57
-2407.29
-2465.43
-2503.14
-2527.33
-2542.66
-2552.27
-2558.21
-2561.82
-2563.97
-2565.21
-2565.89
-2566.23
-2566.36
-2566.37
-2566.3
-2566.19
-2566.05
-2565.9
-2565.74
-2565.58
-2565.42
-2565.25
-2565.08
-2564.91
-2564.74
-2564.58
-2564.41
-2564.24
-2564.08
-2563.91
-2563.75
-2563.58
-2563.42
-2563.25
-2563.09
-2562.92
-2562.76
-2562.6
-2562.44
-2562.27
-2562.11
-2561.95
-2561.79
-2561.63
-2561.47
-2561.31
-2561.16
-2561.02
-2560.89
-2560.79
-2560.74
-2560.77
-2560.91
-2561.18
-2561.6
-2562.16
-2562.84
-2563.65
-2564.7
-2566.37
-2569.44
-2575.4
-2586.82
-2607.95
-2646.48
-2716.19
-2828.93
)
;
    }
    inlet
    {
        type            calculated;
        value           uniform 0;
    }
    rWedge
    {
        type            wedge;
    }
    lWedge
    {
        type            wedge;
    }
    outlet
    {
        type            calculated;
        value           uniform 0;
    }
    procBoundary0to1
    {
        type            processor;
        value           uniform 0;
    }
    procBoundary0to2
    {
        type            processor;
        value           uniform 0;
    }
}


// ************************************************************************* //
