/*--------------------------------*- C++ -*----------------------------------*\
| =========                 |                                                 |
| \\      /  F ield         | OpenFOAM: The Open Source CFD Toolbox           |
|  \\    /   O peration     | Version:  v1706                                 |
|   \\  /    A nd           | Web:      www.OpenFOAM.com                      |
|    \\/     M anipulation  |                                                 |
\*---------------------------------------------------------------------------*/
FoamFile
{
    version     2.0;
    format      ascii;
    class       volVectorField;
    location    "9e-06";
    object      U;
}
// * * * * * * * * * * * * * * * * * * * * * * * * * * * * * * * * * * * * * //

dimensions      [0 1 -1 0 0 0 0];


internalField   nonuniform List<vector> 
29987
(
(2764.5 -2.08803e-08 4.07791e-11)
(2764.5 -6.56209e-09 1.19794e-11)
(2764.5 -3.16094e-09 5.81174e-12)
(2764.5 -1.9567e-09 3.47892e-12)
(2764.5 -1.3357e-09 2.32652e-12)
(2764.5 -9.66312e-10 1.67963e-12)
(2764.5 -7.302e-10 1.27495e-12)
(2764.5 -5.71848e-10 9.97e-13)
(2764.5 -4.62825e-10 8.06653e-13)
(2764.5 -3.80537e-10 6.9264e-13)
(2764.5 -3.21386e-10 5.1894e-13)
(2764.5 -2.73505e-10 4.6095e-13)
(2764.5 -2.36584e-10 4.23785e-13)
(2764.5 -2.04736e-10 3.50325e-13)
(2764.5 -1.80301e-10 3.10418e-13)
(2764.5 -1.65818e-10 2.61388e-13)
(2764.5 -1.46474e-10 2.16642e-13)
(2764.5 -1.35936e-10 1.92778e-13)
(2764.5 -1.21037e-10 1.8527e-13)
(2764.5 -1.11512e-10 1.7409e-13)
(2764.5 -9.94572e-11 1.68911e-13)
(2764.5 -9.57368e-11 1.40536e-13)
(2764.5 -8.82164e-11 1.33203e-13)
(2764.5 -8.06458e-11 1.14557e-13)
(2764.5 -7.41471e-11 1.15658e-13)
(2764.5 -7.48223e-11 1.12087e-13)
(2764.5 -6.53842e-11 9.10912e-14)
(2764.5 -6.6922e-11 7.83503e-14)
(2764.5 -5.86799e-11 8.62051e-14)
(2764.5 -5.63071e-11 8.00156e-14)
(2764.5 -5.51061e-11 8.6586e-14)
(2764.5 -5.29078e-11 7.43854e-14)
(2764.5 -4.85341e-11 6.58748e-14)
(2764.5 -5.07567e-11 6.19039e-14)
(2764.5 -4.63301e-11 6.32009e-14)
(2764.5 -4.59062e-11 5.42493e-14)
(2764.5 -4.3845e-11 5.36683e-14)
(2764.5 -3.99376e-11 4.12711e-14)
(2764.5 -3.97749e-11 4.00176e-14)
(2764.5 -4.21234e-11 4.56242e-14)
(2764.5 -3.8831e-11 3.51949e-14)
(2764.5 -3.69119e-11 3.92108e-14)
(2764.5 -3.67271e-11 4.58941e-14)
(2764.5 -3.46267e-11 4.01644e-14)
(2764.5 -3.38937e-11 3.73186e-14)
(2764.5 -3.28838e-11 3.14492e-14)
(2764.5 -3.52176e-11 4.39787e-14)
(2764.5 -3.33021e-11 3.08066e-14)
(2764.5 -2.98634e-11 2.80814e-14)
(2764.5 -3.11821e-11 3.42184e-14)
(2764.5 -2.84283e-11 3.27808e-14)
(2764.5 -3.01142e-11 3.06229e-14)
(2764.5 -2.83908e-11 2.94892e-14)
(2764.5 -2.97907e-11 2.72807e-14)
(2764.5 -2.87265e-11 2.83729e-14)
(2764.5 -2.76287e-11 2.29249e-14)
(2764.5 -2.93883e-11 1.95249e-14)
(2764.5 -2.76011e-11 1.85178e-14)
(2764.5 -3.06413e-11 2.06951e-14)
(2764.5 -2.8891e-11 2.56116e-14)
(2764.5 -2.69006e-11 2.53026e-14)
(2764.5 -2.50776e-11 1.44008e-14)
(2764.5 -2.57742e-11 1.95211e-14)
(2764.5 -2.44074e-11 2.19217e-14)
(2764.5 -2.57782e-11 1.56296e-14)
(2764.5 -2.62635e-11 1.47423e-14)
(2764.5 -2.62769e-11 1.51254e-14)
(2764.5 -2.49902e-11 1.95348e-14)
(2764.5 -2.40125e-11 2.02599e-14)
(2764.5 -2.53077e-11 1.67431e-14)
(2764.5 -2.65678e-11 1.41054e-14)
(2764.5 -2.55719e-11 1.56021e-14)
(2764.5 -2.69456e-11 1.47499e-14)
(2764.5 -2.3976e-11 1.43137e-14)
(2764.5 -2.09973e-11 1.72725e-14)
(2764.5 -2.43056e-11 1.58854e-14)
(2764.5 -2.36628e-11 1.47409e-14)
(2764.5 -2.51606e-11 1.68529e-14)
(2764.5 -2.55357e-11 1.02756e-14)
(2764.5 -2.45876e-11 7.23165e-15)
(2764.5 -2.53939e-11 1.17155e-14)
(2764.5 -2.59661e-11 1.16033e-14)
(2764.5 -2.48053e-11 8.47934e-15)
(2764.5 -2.38788e-11 9.91627e-15)
(2764.5 -2.46643e-11 1.07025e-14)
(2764.5 -2.37103e-11 9.87238e-15)
(2764.5 -2.41011e-11 9.46766e-15)
(2764.5 -2.48404e-11 9.28159e-15)
(2764.5 -2.30422e-11 1.16967e-14)
(2764.5 -2.3832e-11 9.04905e-15)
(2764.5 -2.34215e-11 7.35153e-15)
(2764.5 -2.26916e-11 7.08875e-15)
(2764.5 -2.07143e-11 1.07321e-14)
(2764.5 -2.24038e-11 1.25373e-14)
(2764.5 -2.471e-11 1.24175e-14)
(2764.5 -2.54921e-11 1.1899e-14)
(2764.5 -2.54041e-11 9.1017e-15)
(2764.5 -2.36839e-11 1.18878e-14)
(2764.5 -2.422e-11 1.11543e-14)
(2764.5 -2.48445e-11 7.6607e-15)
(2764.5 -2.54111e-11 6.49807e-15)
(2764.5 -2.52206e-11 1.27037e-14)
(2764.5 -2.42521e-11 1.30903e-14)
(2764.5 -2.35954e-11 9.9368e-15)
(2764.5 -2.34062e-11 1.10374e-14)
(2764.5 -2.49192e-11 9.0336e-15)
(2764.5 -2.60167e-11 6.79364e-15)
(2764.5 -2.83183e-11 6.83426e-15)
(2764.5 -2.5915e-11 9.02486e-15)
(2764.5 -2.26194e-11 7.03252e-15)
(2764.5 -2.41679e-11 7.5165e-15)
(2764.5 -2.56148e-11 6.60746e-15)
(2764.5 -2.56899e-11 9.33195e-15)
(2764.5 -2.51728e-11 8.52618e-15)
(2764.5 -2.56143e-11 9.92876e-15)
(2764.5 -2.54272e-11 8.29134e-15)
(2764.5 -2.61574e-11 8.05492e-15)
(2764.5 -2.51365e-11 1.13858e-14)
(2764.5 -2.52172e-11 1.05714e-14)
(2764.5 -2.65759e-11 6.27768e-15)
(2764.5 -2.82913e-11 7.93069e-15)
(2764.5 -2.85394e-11 1.07163e-14)
(2764.5 -2.79822e-11 6.81796e-15)
(2764.5 -2.89059e-11 8.35445e-15)
(2764.5 -2.86526e-11 9.46841e-15)
(2764.5 -2.94903e-11 8.96352e-15)
(2764.5 -2.9213e-11 8.95792e-15)
(2764.5 -3.08963e-11 8.02495e-15)
(2764.5 -3.12101e-11 9.81735e-15)
(2764.5 -3.40216e-11 7.56126e-15)
(2764.5 -3.24744e-11 1.04549e-14)
(2764.5 -3.07446e-11 1.08564e-14)
(2764.5 -2.99934e-11 6.72939e-15)
(2764.5 -2.97181e-11 5.64643e-15)
(2764.5 -3.00888e-11 6.29587e-15)
(2764.5 -2.5782e-11 5.50699e-15)
(2764.5 -2.60124e-11 7.86519e-15)
(2764.5 -2.69962e-11 7.04428e-15)
(2764.5 -2.85352e-11 2.30576e-15)
(2764.5 -2.97017e-11 1.14521e-14)
(2764.5 -3.05238e-11 3.12413e-15)
(2764.5 -3.18435e-11 3.87454e-15)
(2764.5 -3.61672e-11 9.44356e-15)
(2764.5 -3.42934e-11 3.59602e-15)
(2764.5 -3.65703e-11 6.8024e-15)
(2764.5 -2.99692e-11 8.25427e-15)
(2764.5 -2.84155e-11 9.81309e-15)
(2764.5 -2.97365e-11 8.50429e-15)
(2764.5 -3.31656e-11 7.35101e-15)
(2764.5 -3.56021e-11 7.05417e-15)
(2764.5 -3.97044e-11 2.22679e-15)
(2764.5 -3.81291e-11 3.53093e-15)
(2764.5 -4.35988e-11 3.9966e-15)
(2764.5 -3.93662e-11 8.9822e-15)
(2764.5 -3.69255e-11 7.06413e-15)
(2764.5 -3.98353e-11 6.59669e-15)
(2764.5 -6.69576e-08 1.17864e-10)
(2764.5 -2.47899e-08 4.14572e-11)
(2764.5 -1.13566e-08 1.87456e-11)
(2764.5 -6.60663e-09 1.10696e-11)
(2764.5 -4.39083e-09 7.3754e-12)
(2764.5 -3.14251e-09 5.30419e-12)
(2764.5 -2.36991e-09 3.97714e-12)
(2764.5 -1.85739e-09 3.0734e-12)
(2764.5 -1.49401e-09 2.5083e-12)
(2764.5 -1.22733e-09 2.04404e-12)
(2764.5 -1.0341e-09 1.60789e-12)
(2764.5 -8.79715e-10 1.40877e-12)
(2764.5 -7.54751e-10 1.18934e-12)
(2764.5 -6.62449e-10 1.0465e-12)
(2764.5 -5.8233e-10 8.90055e-13)
(2764.5 -5.27933e-10 8.2641e-13)
(2764.5 -4.66315e-10 7.03511e-13)
(2764.5 -4.28709e-10 6.35437e-13)
(2764.5 -3.90215e-10 5.86581e-13)
(2764.5 -3.54113e-10 5.23825e-13)
(2764.5 -3.22464e-10 4.84634e-13)
(2764.5 -3.05921e-10 4.20632e-13)
(2764.5 -2.82616e-10 3.95188e-13)
(2764.5 -2.62095e-10 3.50974e-13)
(2764.5 -2.42966e-10 3.39099e-13)
(2764.5 -2.3101e-10 3.32352e-13)
(2764.5 -2.10972e-10 2.90405e-13)
(2764.5 -2.1126e-10 2.6861e-13)
(2764.5 -1.92114e-10 2.6694e-13)
(2764.5 -1.76855e-10 2.48231e-13)
(2764.5 -1.78214e-10 2.17196e-13)
(2764.5 -1.65891e-10 2.20342e-13)
(2764.5 -1.53209e-10 1.75056e-13)
(2764.5 -1.50077e-10 1.6325e-13)
(2764.5 -1.49348e-10 1.72008e-13)
(2764.5 -1.46142e-10 1.75741e-13)
(2764.5 -1.37924e-10 1.58424e-13)
(2764.5 -1.23308e-10 1.52128e-13)
(2764.5 -1.27306e-10 1.40862e-13)
(2764.5 -1.25683e-10 1.27107e-13)
(2764.5 -1.18803e-10 1.13119e-13)
(2764.5 -1.14223e-10 1.19605e-13)
(2764.5 -1.14035e-10 1.25266e-13)
(2764.5 -1.11737e-10 1.10776e-13)
(2764.5 -1.05917e-10 8.61055e-14)
(2764.5 -9.9464e-11 1.05434e-13)
(2764.5 -1.00901e-10 1.07092e-13)
(2764.5 -1.04473e-10 8.57304e-14)
(2764.5 -9.61591e-11 8.79858e-14)
(2764.5 -1.00121e-10 9.7513e-14)
(2764.5 -9.4633e-11 9.55368e-14)
(2764.5 -9.27772e-11 8.2365e-14)
(2764.5 -8.86384e-11 8.11457e-14)
(2764.5 -9.04101e-11 6.15713e-14)
(2764.5 -8.74131e-11 6.85098e-14)
(2764.5 -7.99264e-11 6.15597e-14)
(2764.5 -8.19427e-11 5.94997e-14)
(2764.5 -8.22718e-11 6.13412e-14)
(2764.5 -8.46934e-11 7.13311e-14)
(2764.5 -8.83757e-11 7.17766e-14)
(2764.5 -8.71542e-11 6.23116e-14)
(2764.5 -8.19327e-11 4.6307e-14)
(2764.5 -8.5154e-11 6.25159e-14)
(2764.5 -7.85544e-11 5.80529e-14)
(2764.5 -7.58619e-11 5.16976e-14)
(2764.5 -7.60477e-11 5.50905e-14)
(2764.5 -7.62088e-11 4.64306e-14)
(2764.5 -7.6932e-11 5.32349e-14)
(2764.5 -7.74741e-11 5.19637e-14)
(2764.5 -7.42303e-11 4.50944e-14)
(2764.5 -7.41271e-11 4.6881e-14)
(2764.5 -7.41477e-11 5.0412e-14)
(2764.5 -7.42749e-11 4.45627e-14)
(2764.5 -7.82917e-11 4.38252e-14)
(2764.5 -7.2179e-11 4.9446e-14)
(2764.5 -7.04536e-11 4.98972e-14)
(2764.5 -7.04853e-11 4.45852e-14)
(2764.5 -7.0965e-11 4.50229e-14)
(2764.5 -7.22716e-11 2.89537e-14)
(2764.5 -7.08622e-11 2.86046e-14)
(2764.5 -6.83375e-11 3.56256e-14)
(2764.5 -7.26931e-11 3.4136e-14)
(2764.5 -7.67442e-11 3.02796e-14)
(2764.5 -7.11023e-11 3.6261e-14)
(2764.5 -7.18352e-11 4.33162e-14)
(2764.5 -7.13085e-11 4.10079e-14)
(2764.5 -7.12563e-11 3.33691e-14)
(2764.5 -7.41425e-11 3.87679e-14)
(2764.5 -7.05031e-11 3.67703e-14)
(2764.5 -7.26028e-11 2.87169e-14)
(2764.5 -7.23087e-11 3.21076e-14)
(2764.5 -7.74437e-11 2.72066e-14)
(2764.5 -7.07143e-11 3.27802e-14)
(2764.5 -6.91807e-11 3.37498e-14)
(2764.5 -6.60289e-11 3.98122e-14)
(2764.5 -6.81118e-11 3.25582e-14)
(2764.5 -7.32362e-11 2.54784e-14)
(2764.5 -7.16349e-11 2.66663e-14)
(2764.5 -7.23258e-11 2.49635e-14)
(2764.5 -7.08611e-11 2.50232e-14)
(2764.5 -7.28283e-11 2.57078e-14)
(2764.5 -7.61368e-11 2.80029e-14)
(2764.5 -7.56176e-11 3.04858e-14)
(2764.5 -7.25242e-11 2.16686e-14)
(2764.5 -7.03784e-11 2.24849e-14)
(2764.5 -6.98233e-11 2.04673e-14)
(2764.5 -6.63764e-11 2.28547e-14)
(2764.5 -6.9889e-11 2.2312e-14)
(2764.5 -8.05918e-11 1.90713e-14)
(2764.5 -7.61526e-11 1.97923e-14)
(2764.5 -7.23825e-11 2.35582e-14)
(2764.5 -7.24756e-11 2.2952e-14)
(2764.5 -7.34096e-11 2.35288e-14)
(2764.5 -7.38719e-11 2.37653e-14)
(2764.5 -7.49377e-11 2.7204e-14)
(2764.5 -7.45267e-11 2.62927e-14)
(2764.5 -7.6734e-11 2.66218e-14)
(2764.5 -7.73305e-11 2.66008e-14)
(2764.5 -7.51653e-11 2.27374e-14)
(2764.5 -7.42679e-11 1.78141e-14)
(2764.5 -7.65315e-11 2.0728e-14)
(2764.5 -7.95164e-11 2.19516e-14)
(2764.5 -8.0043e-11 2.18001e-14)
(2764.5 -8.09041e-11 2.35359e-14)
(2764.5 -8.1344e-11 2.46868e-14)
(2764.5 -8.23659e-11 2.23898e-14)
(2764.5 -8.16616e-11 2.16177e-14)
(2764.5 -8.17611e-11 2.12083e-14)
(2764.5 -8.27059e-11 2.08246e-14)
(2764.5 -8.53823e-11 2.39021e-14)
(2764.5 -8.84396e-11 2.36909e-14)
(2764.5 -9.001e-11 1.88125e-14)
(2764.5 -9.00853e-11 1.84792e-14)
(2764.5 -8.8918e-11 1.99048e-14)
(2764.5 -8.89728e-11 1.91938e-14)
(2764.5 -9.27985e-11 1.91392e-14)
(2764.5 -8.52928e-11 2.16377e-14)
(2764.5 -8.14311e-11 1.90183e-14)
(2764.5 -8.20526e-11 2.09108e-14)
(2764.5 -8.37474e-11 2.34085e-14)
(2764.5 -8.47414e-11 2.02961e-14)
(2764.5 -8.53341e-11 2.12787e-14)
(2764.5 -9.35245e-11 1.81552e-14)
(2764.5 -9.64575e-11 1.96337e-14)
(2764.5 -9.9895e-11 1.59548e-14)
(2764.5 -1.10286e-10 2.20109e-14)
(2764.5 -1.00565e-10 2.22294e-14)
(2764.5 -1.01021e-10 2.23274e-14)
(2764.5 -9.32887e-11 2.25611e-14)
(2764.5 -9.24536e-11 2.05991e-14)
(2764.5 -9.94921e-11 1.67553e-14)
(2764.5 -9.8458e-11 1.29975e-14)
(2764.5 -1.03444e-10 1.6612e-14)
(2764.5 -1.11089e-10 1.7924e-14)
(2764.5 -1.12073e-10 1.48923e-14)
(2764.5 -1.07598e-10 2.00506e-14)
(2764.5 -1.06282e-07 1.82068e-10)
(2764.5 -4.5335e-08 7.34248e-11)
(2764.5 -2.12518e-08 3.34625e-11)
(2764.5 -1.20377e-08 1.91907e-11)
(2764.5 -7.84371e-09 1.25021e-11)
(2764.5 -5.56753e-09 8.86833e-12)
(2764.5 -4.18005e-09 6.69226e-12)
(2764.5 -3.26206e-09 5.16543e-12)
(2764.5 -2.61932e-09 4.16752e-12)
(2764.5 -2.15685e-09 3.35462e-12)
(2764.5 -1.80696e-09 2.771e-12)
(2764.5 -1.53656e-09 2.38417e-12)
(2764.5 -1.32189e-09 2.0208e-12)
(2764.5 -1.15581e-09 1.74902e-12)
(2764.5 -1.01825e-09 1.54966e-12)
(2764.5 -9.14635e-10 1.36882e-12)
(2764.5 -8.18514e-10 1.17352e-12)
(2764.5 -7.42051e-10 1.07707e-12)
(2764.5 -6.77832e-10 9.57352e-13)
(2764.5 -6.20812e-10 8.97381e-13)
(2764.5 -5.6476e-10 8.00174e-13)
(2764.5 -5.27723e-10 6.99628e-13)
(2764.5 -4.90256e-10 6.73148e-13)
(2764.5 -4.5405e-10 6.04278e-13)
(2764.5 -4.20867e-10 5.88739e-13)
(2764.5 -3.99938e-10 5.4903e-13)
(2764.5 -3.73436e-10 5.2405e-13)
(2764.5 -3.58608e-10 4.69873e-13)
(2764.5 -3.33284e-10 4.24171e-13)
(2764.5 -3.11565e-10 4.06052e-13)
(2764.5 -3.01276e-10 3.63683e-13)
(2764.5 -2.86581e-10 3.68293e-13)
(2764.5 -2.64676e-10 3.12779e-13)
(2764.5 -2.61448e-10 3.12267e-13)
(2764.5 -2.54772e-10 3.11808e-13)
(2764.5 -2.49543e-10 2.80141e-13)
(2764.5 -2.37241e-10 2.56438e-13)
(2764.5 -2.18611e-10 2.63881e-13)
(2764.5 -2.15658e-10 2.55892e-13)
(2764.5 -2.16301e-10 2.23868e-13)
(2764.5 -2.06263e-10 2.12774e-13)
(2764.5 -1.9648e-10 2.06903e-13)
(2764.5 -1.98327e-10 2.06891e-13)
(2764.5 -1.93965e-10 1.92224e-13)
(2764.5 -1.85747e-10 1.64239e-13)
(2764.5 -1.74962e-10 1.76097e-13)
(2764.5 -1.70708e-10 1.74432e-13)
(2764.5 -1.70801e-10 1.67465e-13)
(2764.5 -1.65976e-10 1.60914e-13)
(2764.5 -1.68584e-10 1.71544e-13)
(2764.5 -1.6326e-10 1.54635e-13)
(2764.5 -1.57907e-10 1.4403e-13)
(2764.5 -1.5162e-10 1.3525e-13)
(2764.5 -1.55096e-10 1.27567e-13)
(2764.5 -1.5046e-10 1.24875e-13)
(2764.5 -1.4386e-10 1.20506e-13)
(2764.5 -1.3754e-10 1.11531e-13)
(2764.5 -1.36568e-10 1.05679e-13)
(2764.5 -1.40991e-10 1.21364e-13)
(2764.5 -1.41255e-10 1.15413e-13)
(2764.5 -1.44633e-10 1.05691e-13)
(2764.5 -1.3872e-10 1.07487e-13)
(2764.5 -1.41789e-10 1.02304e-13)
(2764.5 -1.37803e-10 8.22931e-14)
(2764.5 -1.30764e-10 9.28233e-14)
(2764.5 -1.27364e-10 9.05871e-14)
(2764.5 -1.25831e-10 8.05615e-14)
(2764.5 -1.23007e-10 9.12121e-14)
(2764.5 -1.26198e-10 7.87128e-14)
(2764.5 -1.22721e-10 7.78943e-14)
(2764.5 -1.2655e-10 7.86604e-14)
(2764.5 -1.28636e-10 8.15113e-14)
(2764.5 -1.24925e-10 7.27895e-14)
(2764.5 -1.26434e-10 7.46473e-14)
(2764.5 -1.23417e-10 7.92647e-14)
(2764.5 -1.21055e-10 7.92349e-14)
(2764.5 -1.20956e-10 6.66289e-14)
(2764.5 -1.17579e-10 6.79049e-14)
(2764.5 -1.18932e-10 6.93056e-14)
(2764.5 -1.20039e-10 6.54751e-14)
(2764.5 -1.1577e-10 6.16752e-14)
(2764.5 -1.15769e-10 5.72421e-14)
(2764.5 -1.19836e-10 5.4433e-14)
(2764.5 -1.25783e-10 5.26087e-14)
(2764.5 -1.23244e-10 5.52398e-14)
(2764.5 -1.18458e-10 5.37066e-14)
(2764.5 -1.20794e-10 5.83556e-14)
(2764.5 -1.2154e-10 6.67859e-14)
(2764.5 -1.18335e-10 5.93296e-14)
(2764.5 -1.17221e-10 5.65589e-14)
(2764.5 -1.18169e-10 5.10713e-14)
(2764.5 -1.24187e-10 5.02381e-14)
(2764.5 -1.21783e-10 5.81104e-14)
(2764.5 -1.2029e-10 6.41142e-14)
(2764.5 -1.15985e-10 6.51225e-14)
(2764.5 -1.16412e-10 4.64574e-14)
(2764.5 -1.19875e-10 4.07433e-14)
(2764.5 -1.18548e-10 4.43439e-14)
(2764.5 -1.18932e-10 4.72085e-14)
(2764.5 -1.18877e-10 4.80123e-14)
(2764.5 -1.19449e-10 4.28357e-14)
(2764.5 -1.26099e-10 4.71796e-14)
(2764.5 -1.2907e-10 4.77325e-14)
(2764.5 -1.24611e-10 4.30429e-14)
(2764.5 -1.20777e-10 4.91307e-14)
(2764.5 -1.18332e-10 4.44187e-14)
(2764.5 -1.12742e-10 4.06512e-14)
(2764.5 -1.11977e-10 3.63057e-14)
(2764.5 -1.19423e-10 3.64182e-14)
(2764.5 -1.23158e-10 4.22716e-14)
(2764.5 -1.23595e-10 3.69216e-14)
(2764.5 -1.23324e-10 3.5831e-14)
(2764.5 -1.23035e-10 3.59541e-14)
(2764.5 -1.22629e-10 3.81078e-14)
(2764.5 -1.22144e-10 3.72906e-14)
(2764.5 -1.23804e-10 4.55572e-14)
(2764.5 -1.2375e-10 4.65375e-14)
(2764.5 -1.25736e-10 4.59915e-14)
(2764.5 -1.27033e-10 3.84815e-14)
(2764.5 -1.25569e-10 3.7077e-14)
(2764.5 -1.2447e-10 3.89656e-14)
(2764.5 -1.25248e-10 3.8581e-14)
(2764.5 -1.26902e-10 3.64907e-14)
(2764.5 -1.30964e-10 3.31959e-14)
(2764.5 -1.35106e-10 3.30896e-14)
(2764.5 -1.36437e-10 3.41162e-14)
(2764.5 -1.36372e-10 3.42465e-14)
(2764.5 -1.35538e-10 3.48808e-14)
(2764.5 -1.3642e-10 3.97533e-14)
(2764.5 -1.38466e-10 3.81189e-14)
(2764.5 -1.4021e-10 3.43365e-14)
(2764.5 -1.43272e-10 3.82447e-14)
(2764.5 -1.45957e-10 3.90403e-14)
(2764.5 -1.48511e-10 3.39068e-14)
(2764.5 -1.49407e-10 3.67576e-14)
(2764.5 -1.55756e-10 3.3017e-14)
(2764.5 -1.53168e-10 2.41644e-14)
(2764.5 -1.52538e-10 3.21819e-14)
(2764.5 -1.46241e-10 3.76362e-14)
(2764.5 -1.45992e-10 3.59495e-14)
(2764.5 -1.40755e-10 2.74584e-14)
(2764.5 -1.4046e-10 2.45595e-14)
(2764.5 -1.45194e-10 2.87307e-14)
(2764.5 -1.52136e-10 2.89462e-14)
(2764.5 -1.54956e-10 3.43544e-14)
(2764.5 -1.64456e-10 3.05901e-14)
(2764.5 -1.66802e-10 3.04527e-14)
(2764.5 -1.65835e-10 2.66526e-14)
(2764.5 -1.635e-10 3.85309e-14)
(2764.5 -1.59996e-10 3.29585e-14)
(2764.5 -1.61742e-10 3.22778e-14)
(2764.5 -1.61584e-10 3.05152e-14)
(2764.5 -1.6377e-10 3.2462e-14)
(2764.5 -1.6924e-10 2.47411e-14)
(2764.5 -1.75625e-10 3.16431e-14)
(2764.5 -1.76962e-10 3.33048e-14)
(2764.5 -1.37742e-07 2.33232e-10)
(2764.5 -6.64e-08 1.0516e-10)
(2764.5 -3.25574e-08 4.94779e-11)
(2764.5 -1.83135e-08 2.76811e-11)
(2764.5 -1.17501e-08 1.7793e-11)
(2764.5 -8.25715e-09 1.25296e-11)
(2764.5 -6.16767e-09 9.41214e-12)
(2764.5 -4.80419e-09 7.30363e-12)
(2764.5 -3.84743e-09 5.84046e-12)
(2764.5 -3.15913e-09 4.76901e-12)
(2764.5 -2.64689e-09 3.88457e-12)
(2764.5 -2.24783e-09 3.364e-12)
(2764.5 -1.93136e-09 2.88985e-12)
(2764.5 -1.68138e-09 2.50247e-12)
(2764.5 -1.48753e-09 2.25317e-12)
(2764.5 -1.33247e-09 1.92381e-12)
(2764.5 -1.19302e-09 1.68587e-12)
(2764.5 -1.0819e-09 1.49897e-12)
(2764.5 -9.86206e-10 1.32664e-12)
(2764.5 -9.04986e-10 1.26508e-12)
(2764.5 -8.23254e-10 1.11776e-12)
(2764.5 -7.62218e-10 1.03488e-12)
(2764.5 -7.0961e-10 9.5588e-13)
(2764.5 -6.61004e-10 8.78884e-13)
(2764.5 -6.14699e-10 8.08476e-13)
(2764.5 -5.77662e-10 7.55083e-13)
(2764.5 -5.46258e-10 7.08465e-13)
(2764.5 -5.13456e-10 6.39667e-13)
(2764.5 -4.83012e-10 6.14847e-13)
(2764.5 -4.54484e-10 5.66195e-13)
(2764.5 -4.34591e-10 5.37302e-13)
(2764.5 -4.14752e-10 5.08077e-13)
(2764.5 -3.91005e-10 4.92258e-13)
(2764.5 -3.79412e-10 4.64062e-13)
(2764.5 -3.63995e-10 4.33959e-13)
(2764.5 -3.51436e-10 3.96098e-13)
(2764.5 -3.35646e-10 3.79217e-13)
(2764.5 -3.18004e-10 3.44613e-13)
(2764.5 -3.13622e-10 3.49951e-13)
(2764.5 -3.09779e-10 3.1456e-13)
(2764.5 -2.9596e-10 3.05133e-13)
(2764.5 -2.87301e-10 2.86031e-13)
(2764.5 -2.83769e-10 2.82918e-13)
(2764.5 -2.76295e-10 2.63426e-13)
(2764.5 -2.69115e-10 2.67295e-13)
(2764.5 -2.52626e-10 2.44096e-13)
(2764.5 -2.47578e-10 2.47645e-13)
(2764.5 -2.46592e-10 2.34864e-13)
(2764.5 -2.38604e-10 2.35648e-13)
(2764.5 -2.35002e-10 2.30309e-13)
(2764.5 -2.33156e-10 2.09778e-13)
(2764.5 -2.28396e-10 2.07679e-13)
(2764.5 -2.20572e-10 1.94078e-13)
(2764.5 -2.17251e-10 1.9051e-13)
(2764.5 -2.13444e-10 1.71414e-13)
(2764.5 -2.06888e-10 1.73475e-13)
(2764.5 -1.99026e-10 1.66732e-13)
(2764.5 -1.94913e-10 1.6026e-13)
(2764.5 -1.98278e-10 1.71616e-13)
(2764.5 -1.99385e-10 1.64793e-13)
(2764.5 -2.00809e-10 1.54583e-13)
(2764.5 -2.02441e-10 1.40901e-13)
(2764.5 -2.03453e-10 1.33799e-13)
(2764.5 -2.00376e-10 1.28815e-13)
(2764.5 -1.90666e-10 1.45356e-13)
(2764.5 -1.81819e-10 1.34321e-13)
(2764.5 -1.82814e-10 1.24935e-13)
(2764.5 -1.77797e-10 1.28859e-13)
(2764.5 -1.75154e-10 1.08777e-13)
(2764.5 -1.72867e-10 1.09057e-13)
(2764.5 -1.75784e-10 1.0944e-13)
(2764.5 -1.78099e-10 1.14752e-13)
(2764.5 -1.75288e-10 1.10314e-13)
(2764.5 -1.75964e-10 1.11379e-13)
(2764.5 -1.75253e-10 1.06423e-13)
(2764.5 -1.73059e-10 1.04349e-13)
(2764.5 -1.73076e-10 1.05584e-13)
(2764.5 -1.72672e-10 1.10131e-13)
(2764.5 -1.69681e-10 1.01554e-13)
(2764.5 -1.70322e-10 9.0933e-14)
(2764.5 -1.66072e-10 8.20471e-14)
(2764.5 -1.6098e-10 9.47352e-14)
(2764.5 -1.62887e-10 8.64918e-14)
(2764.5 -1.67786e-10 8.70032e-14)
(2764.5 -1.73711e-10 8.43974e-14)
(2764.5 -1.67295e-10 8.68297e-14)
(2764.5 -1.70135e-10 8.62756e-14)
(2764.5 -1.70091e-10 8.07518e-14)
(2764.5 -1.69506e-10 7.39464e-14)
(2764.5 -1.67306e-10 7.89783e-14)
(2764.5 -1.68466e-10 7.87255e-14)
(2764.5 -1.68625e-10 8.04686e-14)
(2764.5 -1.66945e-10 8.20952e-14)
(2764.5 -1.67925e-10 8.81333e-14)
(2764.5 -1.6524e-10 7.51255e-14)
(2764.5 -1.61889e-10 7.19459e-14)
(2764.5 -1.61937e-10 7.59631e-14)
(2764.5 -1.65226e-10 6.75882e-14)
(2764.5 -1.64667e-10 6.6566e-14)
(2764.5 -1.63579e-10 6.51727e-14)
(2764.5 -1.64115e-10 5.84372e-14)
(2764.5 -1.69768e-10 6.28776e-14)
(2764.5 -1.76295e-10 6.57889e-14)
(2764.5 -1.79045e-10 6.7799e-14)
(2764.5 -1.77139e-10 6.61987e-14)
(2764.5 -1.73142e-10 6.46282e-14)
(2764.5 -1.64732e-10 6.16298e-14)
(2764.5 -1.60678e-10 6.01414e-14)
(2764.5 -1.65552e-10 5.6548e-14)
(2764.5 -1.68033e-10 5.08177e-14)
(2764.5 -1.71576e-10 5.18994e-14)
(2764.5 -1.75398e-10 5.15571e-14)
(2764.5 -1.75443e-10 5.63092e-14)
(2764.5 -1.75521e-10 5.71753e-14)
(2764.5 -1.72516e-10 6.25311e-14)
(2764.5 -1.73901e-10 6.23347e-14)
(2764.5 -1.75164e-10 6.10528e-14)
(2764.5 -1.73775e-10 5.64155e-14)
(2764.5 -1.76011e-10 5.17704e-14)
(2764.5 -1.77515e-10 5.39675e-14)
(2764.5 -1.77692e-10 5.39135e-14)
(2764.5 -1.76438e-10 5.30801e-14)
(2764.5 -1.75114e-10 4.86568e-14)
(2764.5 -1.75842e-10 4.88961e-14)
(2764.5 -1.82221e-10 5.39843e-14)
(2764.5 -1.8641e-10 5.23182e-14)
(2764.5 -1.89972e-10 5.58669e-14)
(2764.5 -1.90781e-10 5.6755e-14)
(2764.5 -1.90594e-10 5.17446e-14)
(2764.5 -1.92263e-10 5.01847e-14)
(2764.5 -1.93458e-10 5.0877e-14)
(2764.5 -1.9627e-10 5.15495e-14)
(2764.5 -1.99558e-10 4.85252e-14)
(2764.5 -2.03231e-10 4.74413e-14)
(2764.5 -2.07134e-10 4.83006e-14)
(2764.5 -2.09439e-10 4.62254e-14)
(2764.5 -2.09346e-10 5.29433e-14)
(2764.5 -2.16983e-10 5.51738e-14)
(2764.5 -2.11339e-10 4.75837e-14)
(2764.5 -2.13548e-10 4.65315e-14)
(2764.5 -2.04472e-10 4.34755e-14)
(2764.5 -2.0093e-10 4.33052e-14)
(2764.5 -2.01602e-10 4.22418e-14)
(2764.5 -2.084e-10 4.45812e-14)
(2764.5 -2.12997e-10 4.73221e-14)
(2764.5 -2.16187e-10 4.65511e-14)
(2764.5 -2.24907e-10 4.52735e-14)
(2764.5 -2.26567e-10 4.52983e-14)
(2764.5 -2.2753e-10 4.98298e-14)
(2764.5 -2.27293e-10 4.28875e-14)
(2764.5 -2.29165e-10 4.67599e-14)
(2764.5 -2.27914e-10 4.44304e-14)
(2764.5 -2.26099e-10 5.04781e-14)
(2764.5 -2.27931e-10 4.06685e-14)
(2764.5 -2.31607e-10 4.26049e-14)
(2764.5 -2.32823e-10 4.11625e-14)
(2764.5 -1.62714e-07 2.73877e-10)
(2764.5 -8.68527e-08 1.35873e-10)
(2764.5 -4.48758e-08 6.63508e-11)
(2764.5 -2.54143e-08 3.67662e-11)
(2764.5 -1.61515e-08 2.35013e-11)
(2764.5 -1.12394e-08 1.6451e-11)
(2764.5 -8.34365e-09 1.21861e-11)
(2764.5 -6.47893e-09 9.48496e-12)
(2764.5 -5.17729e-09 7.6079e-12)
(2764.5 -4.24482e-09 6.25293e-12)
(2764.5 -3.55316e-09 5.14308e-12)
(2764.5 -3.00906e-09 4.35474e-12)
(2764.5 -2.58914e-09 3.70671e-12)
(2764.5 -2.2548e-09 3.22896e-12)
(2764.5 -1.98478e-09 2.87201e-12)
(2764.5 -1.77405e-09 2.51338e-12)
(2764.5 -1.59273e-09 2.19339e-12)
(2764.5 -1.44277e-09 1.98826e-12)
(2764.5 -1.31566e-09 1.80032e-12)
(2764.5 -1.20645e-09 1.62613e-12)
(2764.5 -1.09785e-09 1.48817e-12)
(2764.5 -1.01459e-09 1.36394e-12)
(2764.5 -9.46914e-10 1.2268e-12)
(2764.5 -8.81065e-10 1.14589e-12)
(2764.5 -8.17698e-10 1.03961e-12)
(2764.5 -7.68437e-10 1.00649e-12)
(2764.5 -7.27736e-10 9.19281e-13)
(2764.5 -6.80634e-10 8.74191e-13)
(2764.5 -6.37543e-10 8.26088e-13)
(2764.5 -6.07719e-10 7.60352e-13)
(2764.5 -5.75016e-10 6.92441e-13)
(2764.5 -5.47677e-10 6.72548e-13)
(2764.5 -5.24464e-10 6.17258e-13)
(2764.5 -5.03002e-10 5.71633e-13)
(2764.5 -4.80052e-10 5.51728e-13)
(2764.5 -4.61825e-10 5.30729e-13)
(2764.5 -4.40155e-10 4.91994e-13)
(2764.5 -4.22233e-10 4.64614e-13)
(2764.5 -4.12727e-10 4.30661e-13)
(2764.5 -4.05839e-10 4.07226e-13)
(2764.5 -3.89925e-10 4.14085e-13)
(2764.5 -3.80926e-10 3.95102e-13)
(2764.5 -3.70187e-10 3.76331e-13)
(2764.5 -3.587e-10 3.66318e-13)
(2764.5 -3.53924e-10 3.49946e-13)
(2764.5 -3.36798e-10 3.31602e-13)
(2764.5 -3.25844e-10 3.09758e-13)
(2764.5 -3.22603e-10 3.02523e-13)
(2764.5 -3.1649e-10 2.88823e-13)
(2764.5 -3.10445e-10 2.68248e-13)
(2764.5 -3.02587e-10 2.755e-13)
(2764.5 -2.95116e-10 2.64517e-13)
(2764.5 -2.9319e-10 2.55943e-13)
(2764.5 -2.84836e-10 2.44432e-13)
(2764.5 -2.78825e-10 2.39062e-13)
(2764.5 -2.72825e-10 2.3409e-13)
(2764.5 -2.65563e-10 2.12429e-13)
(2764.5 -2.57827e-10 2.06217e-13)
(2764.5 -2.59064e-10 2.13946e-13)
(2764.5 -2.55082e-10 1.94929e-13)
(2764.5 -2.59196e-10 1.88641e-13)
(2764.5 -2.60114e-10 1.77617e-13)
(2764.5 -2.67532e-10 1.81503e-13)
(2764.5 -2.64066e-10 1.90618e-13)
(2764.5 -2.53708e-10 1.72151e-13)
(2764.5 -2.42071e-10 1.75972e-13)
(2764.5 -2.37517e-10 1.70263e-13)
(2764.5 -2.30822e-10 1.54218e-13)
(2764.5 -2.28095e-10 1.62344e-13)
(2764.5 -2.25162e-10 1.61018e-13)
(2764.5 -2.30753e-10 1.48874e-13)
(2764.5 -2.29785e-10 1.48615e-13)
(2764.5 -2.27188e-10 1.41781e-13)
(2764.5 -2.22494e-10 1.39795e-13)
(2764.5 -2.2157e-10 1.42523e-13)
(2764.5 -2.21634e-10 1.39166e-13)
(2764.5 -2.25246e-10 1.41746e-13)
(2764.5 -2.23714e-10 1.32339e-13)
(2764.5 -2.21327e-10 1.19592e-13)
(2764.5 -2.23471e-10 1.20815e-13)
(2764.5 -2.1896e-10 1.30052e-13)
(2764.5 -2.13198e-10 1.18976e-13)
(2764.5 -2.11984e-10 1.12645e-13)
(2764.5 -2.13512e-10 1.16691e-13)
(2764.5 -2.19144e-10 1.1158e-13)
(2764.5 -2.13384e-10 1.0734e-13)
(2764.5 -2.20254e-10 1.0068e-13)
(2764.5 -2.1668e-10 1.06008e-13)
(2764.5 -2.17488e-10 1.12804e-13)
(2764.5 -2.16721e-10 1.12268e-13)
(2764.5 -2.18068e-10 1.03999e-13)
(2764.5 -2.17887e-10 1.02321e-13)
(2764.5 -2.14995e-10 1.00145e-13)
(2764.5 -2.12923e-10 9.67426e-14)
(2764.5 -2.15185e-10 9.54206e-14)
(2764.5 -2.13937e-10 9.86812e-14)
(2764.5 -2.10227e-10 8.95939e-14)
(2764.5 -2.10694e-10 8.79418e-14)
(2764.5 -2.09943e-10 9.00764e-14)
(2764.5 -2.09437e-10 8.28999e-14)
(2764.5 -2.1161e-10 7.8399e-14)
(2764.5 -2.14976e-10 8.23802e-14)
(2764.5 -2.21123e-10 8.54231e-14)
(2764.5 -2.25942e-10 7.90334e-14)
(2764.5 -2.28489e-10 7.93565e-14)
(2764.5 -2.24905e-10 8.18748e-14)
(2764.5 -2.20101e-10 7.89649e-14)
(2764.5 -2.11007e-10 7.85324e-14)
(2764.5 -2.11554e-10 7.44007e-14)
(2764.5 -2.12492e-10 7.5897e-14)
(2764.5 -2.13842e-10 7.67014e-14)
(2764.5 -2.2001e-10 7.38116e-14)
(2764.5 -2.2271e-10 7.75491e-14)
(2764.5 -2.26577e-10 6.5317e-14)
(2764.5 -2.2705e-10 6.54286e-14)
(2764.5 -2.26998e-10 6.89936e-14)
(2764.5 -2.28798e-10 7.41097e-14)
(2764.5 -2.25236e-10 7.14008e-14)
(2764.5 -2.26956e-10 7.29376e-14)
(2764.5 -2.27694e-10 7.36702e-14)
(2764.5 -2.27228e-10 6.97246e-14)
(2764.5 -2.25127e-10 6.71537e-14)
(2764.5 -2.23111e-10 6.86902e-14)
(2764.5 -2.21354e-10 7.10742e-14)
(2764.5 -2.24252e-10 6.58215e-14)
(2764.5 -2.29015e-10 6.81246e-14)
(2764.5 -2.35304e-10 7.25008e-14)
(2764.5 -2.39365e-10 6.39363e-14)
(2764.5 -2.42176e-10 6.23063e-14)
(2764.5 -2.44288e-10 6.10235e-14)
(2764.5 -2.45045e-10 6.1575e-14)
(2764.5 -2.47048e-10 6.51697e-14)
(2764.5 -2.4983e-10 6.36621e-14)
(2764.5 -2.53115e-10 6.5392e-14)
(2764.5 -2.59937e-10 6.66369e-14)
(2764.5 -2.64606e-10 6.58223e-14)
(2764.5 -2.66358e-10 6.79647e-14)
(2764.5 -2.72927e-10 6.04636e-14)
(2764.5 -2.75371e-10 6.20471e-14)
(2764.5 -2.7864e-10 5.43727e-14)
(2764.5 -2.76447e-10 6.08443e-14)
(2764.5 -2.72386e-10 5.73388e-14)
(2764.5 -2.69209e-10 5.79389e-14)
(2764.5 -2.70904e-10 6.04148e-14)
(2764.5 -2.70551e-10 6.2556e-14)
(2764.5 -2.75487e-10 6.15692e-14)
(2764.5 -2.82071e-10 5.82737e-14)
(2764.5 -2.85371e-10 5.31367e-14)
(2764.5 -2.86391e-10 5.54724e-14)
(2764.5 -2.87491e-10 5.72642e-14)
(2764.5 -2.91907e-10 5.35439e-14)
(2764.5 -2.91973e-10 6.24485e-14)
(2764.5 -2.93156e-10 5.58801e-14)
(2764.5 -2.96221e-10 5.31599e-14)
(2764.5 -3.00281e-10 6.01102e-14)
(2764.5 -3.00336e-10 6.03494e-14)
(2764.5 -1.82797e-07 3.07164e-10)
(2764.5 -1.06081e-07 1.64677e-10)
(2764.5 -5.78146e-08 8.35217e-11)
(2764.5 -3.32707e-08 4.65431e-11)
(2764.5 -2.10594e-08 2.94923e-11)
(2764.5 -1.45361e-08 2.04599e-11)
(2764.5 -1.07174e-08 1.52574e-11)
(2764.5 -8.28843e-09 1.17236e-11)
(2764.5 -6.61617e-09 9.33522e-12)
(2764.5 -5.40709e-09 7.63711e-12)
(2764.5 -4.51304e-09 6.35516e-12)
(2764.5 -3.82749e-09 5.3576e-12)
(2764.5 -3.29783e-09 4.59e-12)
(2764.5 -2.86846e-09 4.02055e-12)
(2764.5 -2.52027e-09 3.48764e-12)
(2764.5 -2.24466e-09 3.06357e-12)
(2764.5 -2.01661e-09 2.73865e-12)
(2764.5 -1.82868e-09 2.43352e-12)
(2764.5 -1.66308e-09 2.21377e-12)
(2764.5 -1.52167e-09 1.97705e-12)
(2764.5 -1.39262e-09 1.82387e-12)
(2764.5 -1.28423e-09 1.66211e-12)
(2764.5 -1.19706e-09 1.51276e-12)
(2764.5 -1.11061e-09 1.35859e-12)
(2764.5 -1.03393e-09 1.29408e-12)
(2764.5 -9.72847e-10 1.22233e-12)
(2764.5 -9.18975e-10 1.12797e-12)
(2764.5 -8.57989e-10 1.06805e-12)
(2764.5 -8.03611e-10 9.80694e-13)
(2764.5 -7.64037e-10 8.94778e-13)
(2764.5 -7.27175e-10 8.58823e-13)
(2764.5 -6.89383e-10 8.06503e-13)
(2764.5 -6.58964e-10 7.53938e-13)
(2764.5 -6.31888e-10 7.19682e-13)
(2764.5 -6.02269e-10 6.78619e-13)
(2764.5 -5.80646e-10 6.1319e-13)
(2764.5 -5.56764e-10 6.18671e-13)
(2764.5 -5.37207e-10 5.77335e-13)
(2764.5 -5.14673e-10 5.49517e-13)
(2764.5 -5.02172e-10 5.30154e-13)
(2764.5 -4.87055e-10 4.92758e-13)
(2764.5 -4.73614e-10 4.71009e-13)
(2764.5 -4.64586e-10 4.55647e-13)
(2764.5 -4.49441e-10 4.44278e-13)
(2764.5 -4.36576e-10 4.19165e-13)
(2764.5 -4.23767e-10 4.18236e-13)
(2764.5 -4.08687e-10 3.79454e-13)
(2764.5 -3.99421e-10 3.69377e-13)
(2764.5 -3.9545e-10 3.64263e-13)
(2764.5 -3.88766e-10 3.41335e-13)
(2764.5 -3.79212e-10 3.33395e-13)
(2764.5 -3.68022e-10 3.19333e-13)
(2764.5 -3.63586e-10 3.07756e-13)
(2764.5 -3.56312e-10 3.03504e-13)
(2764.5 -3.47342e-10 2.86326e-13)
(2764.5 -3.36014e-10 2.74384e-13)
(2764.5 -3.28503e-10 2.65581e-13)
(2764.5 -3.19966e-10 2.66283e-13)
(2764.5 -3.20149e-10 2.50031e-13)
(2764.5 -3.16649e-10 2.38768e-13)
(2764.5 -3.17884e-10 2.38477e-13)
(2764.5 -3.20201e-10 2.27639e-13)
(2764.5 -3.265e-10 2.23499e-13)
(2764.5 -3.28588e-10 2.14099e-13)
(2764.5 -3.17386e-10 2.10271e-13)
(2764.5 -3.06662e-10 2.15033e-13)
(2764.5 -2.99771e-10 1.99783e-13)
(2764.5 -2.87673e-10 1.84658e-13)
(2764.5 -2.83165e-10 1.9988e-13)
(2764.5 -2.79698e-10 1.91765e-13)
(2764.5 -2.82918e-10 1.78323e-13)
(2764.5 -2.85667e-10 1.77971e-13)
(2764.5 -2.8624e-10 1.78017e-13)
(2764.5 -2.77476e-10 1.66649e-13)
(2764.5 -2.7127e-10 1.73883e-13)
(2764.5 -2.6912e-10 1.7041e-13)
(2764.5 -2.7411e-10 1.64829e-13)
(2764.5 -2.72369e-10 1.55495e-13)
(2764.5 -2.70854e-10 1.68318e-13)
(2764.5 -2.73704e-10 1.58533e-13)
(2764.5 -2.70991e-10 1.5479e-13)
(2764.5 -2.67411e-10 1.39613e-13)