/*--------------------------------*- C++ -*----------------------------------*\
| =========                 |                                                 |
| \\      /  F ield         | OpenFOAM: The Open Source CFD Toolbox           |
|  \\    /   O peration     | Version:  v1706                                 |
|   \\  /    A nd           | Web:      www.OpenFOAM.com                      |
|    \\/     M anipulation  |                                                 |
\*---------------------------------------------------------------------------*/
FoamFile
{
    version     2.0;
    format      ascii;
    class       volScalarField;
    location    "9e-06";
    object      wallHeatFlux;
}
// * * * * * * * * * * * * * * * * * * * * * * * * * * * * * * * * * * * * * //

dimensions      [1 0 -3 0 0 0 0];


internalField   uniform 0;

boundaryField
{
    cone
    {
        type            calculated;
        value           nonuniform List<scalar> 
147
(
939838
939509
939154
938746
938285
937756
937158
936491
935754
934949
934075
933133
932124
931047
929903
928692
927414
926070
924659
923182
921638
920025
918344
916595
914778
912892
910939
908917
906828
904671
902447
900156
897798
895373
892883
890328
887707
885021
882269
879453
876572
873628
870621
867551
864419
861226
857972
854657
851282
847848
844356
840805
837197
833534
829813
826037
822206
818320
814381
810388
806343
802247
798099
793901
789653
785358
781013
776621
772183
767699
763170
758596
753979
749319
744617
739874
735091
730267
725404
720504
715566
710591
705581
700536
695456
690344
685198
680022
674815
669578
664311
659016
653694
648345
642972
637573
632152
626707
621240
615753
610246
604720
599177
593618
588043
582454
576850
571235
565608
559972
554327
548673
543014
537349
531678
526004
520327
514648
508969
503290
497614
491940
486270
480606
474949
469301
463664
458039
452426
446826
441241
435671
430118
424582
419065
413569
408093
402640
397210
391806
386427
381076
375753
370461
365199
359970
940843
)
;
    }
    inlet
    {
        type            calculated;
        value           uniform 0;
    }
    rWedge
    {
        type            wedge;
    }
    lWedge
    {
        type            wedge;
    }
    outlet
    {
        type            calculated;
        value           nonuniform 0();
    }
    procBoundary3to2
    {
        type            processor;
        value           uniform 0;
    }
}


// ************************************************************************* //
