/*--------------------------------*- C++ -*----------------------------------*\
| =========                 |                                                 |
| \\      /  F ield         | OpenFOAM: The Open Source CFD Toolbox           |
|  \\    /   O peration     | Version:  v1706                                 |
|   \\  /    A nd           | Web:      www.OpenFOAM.com                      |
|    \\/     M anipulation  |                                                 |
\*---------------------------------------------------------------------------*/
FoamFile
{
    version     2.0;
    format      ascii;
    class       volScalarField;
    location    "3e-06";
    object      alpha;
}
// * * * * * * * * * * * * * * * * * * * * * * * * * * * * * * * * * * * * * //

dimensions      [1 -1 -1 0 0 0 0];


internalField   nonuniform List<scalar> 
30104
(
1.40478e-05
1.40478e-05
1.40478e-05
1.40478e-05
1.40478e-05
1.40478e-05
1.40478e-05
1.40478e-05
1.40478e-05
1.40478e-05
1.40478e-05
1.40478e-05
1.40478e-05
1.40478e-05
1.40478e-05
1.40478e-05
1.40478e-05
1.40478e-05
1.40478e-05
1.40478e-05
1.40478e-05
1.40478e-05
1.40478e-05
1.40478e-05
1.40478e-05
1.40478e-05
1.40478e-05
1.40478e-05
1.40478e-05
1.40478e-05
1.40478e-05
1.40478e-05
1.40478e-05
1.40478e-05
1.40478e-05
1.40478e-05
1.40478e-05
1.40478e-05
1.40478e-05
1.40478e-05
1.40478e-05
1.40478e-05
1.40478e-05
1.40478e-05
1.40478e-05
1.40478e-05
1.40478e-05
1.40478e-05
1.40478e-05
1.40478e-05
1.40478e-05
1.40478e-05
1.40478e-05
1.40478e-05
1.40478e-05
1.40478e-05
1.40478e-05
1.40478e-05
1.40478e-05
1.40478e-05
1.40478e-05
1.40478e-05
1.40478e-05
1.40478e-05
1.40478e-05
1.40478e-05
1.40478e-05
1.40478e-05
1.40478e-05
1.40478e-05
1.40478e-05
1.40478e-05
1.40478e-05
1.40478e-05
1.40478e-05
1.40478e-05
1.40478e-05
1.40478e-05
1.40478e-05
1.40478e-05
1.40478e-05
1.40478e-05
1.40478e-05
1.40478e-05
1.40479e-05
1.40479e-05
1.40479e-05
1.40479e-05
1.40479e-05
1.40479e-05
1.40479e-05
1.40479e-05
1.40479e-05
1.40479e-05
1.40479e-05
1.40479e-05
1.40479e-05
1.40479e-05
1.40479e-05
1.40479e-05
1.40479e-05
1.40479e-05
1.40479e-05
1.40479e-05
1.40479e-05
1.40479e-05
1.40479e-05
1.40479e-05
1.40479e-05
1.40479e-05
1.40479e-05
1.40479e-05
1.40479e-05
1.40479e-05
1.40479e-05
1.40479e-05
1.40479e-05
1.4048e-05
1.4048e-05
1.4048e-05
1.4048e-05
1.4048e-05
1.4048e-05
1.4048e-05
1.4048e-05
1.4048e-05
1.4048e-05
1.4048e-05
1.4048e-05
1.4048e-05
1.4048e-05
1.4048e-05
1.4048e-05
1.40481e-05
1.40481e-05
1.40481e-05
1.40481e-05
1.40481e-05
1.40481e-05
1.40481e-05
1.40481e-05
1.40481e-05
1.40481e-05
1.40482e-05
1.40482e-05
1.40482e-05
1.40482e-05
1.40482e-05
1.40482e-05
1.40482e-05
1.40482e-05
1.40483e-05
1.40483e-05
1.40483e-05
1.40483e-05
1.40483e-05
1.40483e-05
1.40484e-05
1.40484e-05
1.40484e-05
1.40484e-05
1.40484e-05
1.40484e-05
1.40485e-05
1.40485e-05
1.40485e-05
1.40485e-05
1.40485e-05
1.40486e-05
1.40486e-05
1.40486e-05
1.40486e-05
1.40486e-05
1.40487e-05
1.40487e-05
1.40487e-05
1.40487e-05
1.40488e-05
1.40488e-05
1.40488e-05
1.40488e-05
1.40489e-05
1.40489e-05
1.40489e-05
1.4049e-05
1.4049e-05
1.4049e-05
1.40491e-05
1.40491e-05
1.40492e-05
1.40492e-05
1.40493e-05
1.40493e-05
1.40494e-05
1.40494e-05
1.40495e-05
1.40495e-05
1.40496e-05
1.40496e-05
1.40497e-05
1.40497e-05
1.40498e-05
1.40499e-05
1.40499e-05
1.405e-05
1.40501e-05
1.40502e-05
1.40502e-05
1.40503e-05
1.405e-05
1.40478e-05
1.40478e-05
1.40478e-05
1.40478e-05
1.40478e-05
1.40478e-05
1.40478e-05
1.40478e-05
1.40478e-05
1.40478e-05
1.40478e-05
1.40478e-05
1.40478e-05
1.40478e-05
1.40478e-05
1.40478e-05
1.40478e-05
1.40479e-05
1.40479e-05
1.40479e-05
1.40479e-05
1.40479e-05
1.40479e-05
1.4048e-05
1.4048e-05
1.4048e-05
1.4048e-05
1.4048e-05
1.4048e-05
1.4048e-05
1.4048e-05
1.4048e-05
1.4048e-05
1.4048e-05
1.4048e-05
1.4048e-05
1.4048e-05
1.4048e-05
1.4048e-05
1.40481e-05
1.40481e-05
1.40481e-05
1.40481e-05
1.40481e-05
1.40481e-05
1.40481e-05
1.40481e-05
1.40481e-05
1.40481e-05
1.40481e-05
1.40482e-05
1.40482e-05
1.40482e-05
1.40482e-05
1.40482e-05
1.40482e-05
1.40482e-05
1.40482e-05
1.40483e-05
1.40483e-05
1.40483e-05
1.40483e-05
1.40483e-05
1.40483e-05
1.40483e-05
1.40484e-05
1.40484e-05
1.40484e-05
1.40484e-05
1.40484e-05
1.40485e-05
1.40485e-05
1.40485e-05
1.40485e-05
1.40485e-05
1.40486e-05
1.40486e-05
1.40486e-05
1.40486e-05
1.40487e-05
1.40487e-05
1.40487e-05
1.40488e-05
1.40488e-05
1.40488e-05
1.40489e-05
1.40489e-05
1.40489e-05
1.4049e-05
1.4049e-05
1.40491e-05
1.40491e-05
1.40491e-05
1.40492e-05
1.40492e-05
1.40493e-05
1.40493e-05
1.40494e-05
1.40494e-05
1.40495e-05
1.40495e-05
1.40496e-05
1.40497e-05
1.40497e-05
1.40498e-05
1.40499e-05
1.40499e-05
1.405e-05
1.40501e-05
1.40501e-05
1.40502e-05
1.40503e-05
1.40504e-05
1.40505e-05
1.40505e-05
1.40506e-05
1.40507e-05
1.40508e-05
1.40509e-05
1.4051e-05
1.40511e-05
1.40512e-05
1.40513e-05
1.40514e-05
1.40515e-05
1.40516e-05
1.40518e-05
1.40519e-05
1.4052e-05
1.40521e-05
1.40523e-05
1.40524e-05
1.40526e-05
1.40527e-05
1.40529e-05
1.40531e-05
1.40532e-05
1.40534e-05
1.40536e-05
1.40538e-05
1.4054e-05
1.40542e-05
1.40544e-05
1.40546e-05
1.40549e-05
1.40551e-05
1.40553e-05
1.40556e-05
1.40559e-05
1.40561e-05
1.40564e-05
1.40567e-05
1.4057e-05
1.40573e-05
1.40576e-05
1.4058e-05
1.40583e-05
1.40586e-05
1.4059e-05
1.40593e-05
1.40597e-05
1.40601e-05
1.40605e-05
1.40609e-05
1.40613e-05
1.40617e-05
1.40621e-05
1.40625e-05
1.4063e-05
1.40635e-05
1.40639e-05
1.40644e-05
1.40649e-05
1.40654e-05
1.4066e-05
1.40665e-05
1.40671e-05
1.40677e-05
1.40683e-05
1.40689e-05
1.40695e-05
1.40702e-05
1.40709e-05
1.40716e-05
1.40724e-05
1.40732e-05
1.4074e-05
1.40748e-05
1.40757e-05
1.40766e-05
1.40776e-05
1.40786e-05
1.40796e-05
1.40807e-05
1.40818e-05
1.4083e-05
1.40842e-05
1.40854e-05
1.40868e-05
1.40881e-05
1.40896e-05
1.4091e-05
1.40926e-05
1.40942e-05
1.40958e-05
1.40976e-05
1.40993e-05
1.41012e-05
1.41034e-05
1.41007e-05
1.40478e-05
1.40478e-05
1.40478e-05
1.40478e-05
1.40478e-05
1.40478e-05
1.40478e-05
1.40478e-05
1.40478e-05
1.40478e-05
1.40478e-05
1.40478e-05
1.40478e-05
1.40478e-05
1.40478e-05
1.40478e-05
1.40488e-05
1.40488e-05
1.40488e-05
1.40489e-05
1.40489e-05
1.40489e-05
1.4049e-05
1.4049e-05
1.4049e-05
1.40491e-05
1.40491e-05
1.40492e-05
1.40492e-05
1.40493e-05
1.40493e-05
1.40494e-05
1.40494e-05
1.40495e-05
1.40495e-05
1.40496e-05
1.40496e-05
1.40497e-05
1.40497e-05
1.40498e-05
1.40499e-05
1.40499e-05
1.405e-05
1.40501e-05
1.40502e-05
1.40502e-05
1.40503e-05
1.40504e-05
1.40505e-05
1.40506e-05
1.40507e-05
1.40508e-05
1.40509e-05
1.4051e-05
1.40511e-05
1.40512e-05
1.40513e-05
1.40515e-05
1.40516e-05
1.40517e-05
1.40519e-05
1.4052e-05
1.40521e-05
1.40523e-05
1.40524e-05
1.40526e-05
1.40528e-05
1.40529e-05
1.40531e-05
1.40533e-05
1.40535e-05
1.40537e-05
1.40539e-05
1.40541e-05
1.40543e-05
1.40545e-05
1.40547e-05
1.40549e-05
1.40552e-05
1.40554e-05
1.40557e-05
1.40559e-05
1.40562e-05
1.40565e-05
1.40568e-05
1.40571e-05
1.40574e-05
1.40577e-05
1.4058e-05
1.40584e-05
1.40587e-05
1.40591e-05
1.40595e-05
1.40599e-05
1.40603e-05
1.40607e-05
1.40612e-05
1.40616e-05
1.40621e-05
1.40626e-05
1.40631e-05
1.40637e-05
1.40642e-05
1.40648e-05
1.40654e-05
1.4066e-05
1.40667e-05
1.40673e-05
1.4068e-05
1.40687e-05
1.40694e-05
1.40702e-05
1.4071e-05
1.40717e-05
1.40726e-05
1.40734e-05
1.40743e-05
1.40752e-05
1.40761e-05
1.4077e-05
1.4078e-05
1.4079e-05
1.408e-05
1.40811e-05
1.40822e-05
1.40833e-05
1.40845e-05
1.40857e-05
1.4087e-05
1.40883e-05
1.40896e-05
1.4091e-05
1.40925e-05
1.4094e-05
1.40956e-05
1.40972e-05
1.40989e-05
1.41007e-05
1.41025e-05
1.41044e-05
1.41064e-05
1.41085e-05
1.41107e-05
1.4113e-05
1.41154e-05
1.41179e-05
1.41205e-05
1.41232e-05
1.4126e-05
1.4129e-05
1.4132e-05
1.41352e-05
1.41386e-05
1.4142e-05
1.41456e-05
1.41493e-05
1.41532e-05
1.41571e-05
1.41613e-05
1.41656e-05
1.417e-05
1.41746e-05
1.41793e-05
1.41841e-05
1.41891e-05
1.41942e-05
1.41995e-05
1.42049e-05
1.42104e-05
1.42161e-05
1.42219e-05
1.42278e-05
1.42339e-05
1.424e-05
1.42463e-05
1.42527e-05
1.42592e-05
1.42659e-05
1.42727e-05
1.42796e-05
1.42867e-05
1.42939e-05
1.43013e-05
1.43089e-05
1.43167e-05
1.43246e-05
1.43328e-05
1.43413e-05
1.435e-05
1.43591e-05
1.43684e-05
1.43781e-05
1.43882e-05
1.43986e-05
1.44096e-05
1.4421e-05
1.44328e-05
1.44453e-05
1.44582e-05
1.44718e-05
1.44861e-05
1.4501e-05
1.45166e-05
1.45329e-05
1.455e-05
1.4568e-05
1.45867e-05
1.46115e-05
1.4596e-05
1.4048e-05
1.4048e-05
1.4048e-05
1.4048e-05
1.4048e-05
1.4048e-05
1.4048e-05
1.4048e-05
1.4048e-05
1.4048e-05
1.4048e-05
1.4048e-05
1.4048e-05
1.4048e-05
1.4048e-05
1.4048e-05
1.40541e-05
1.40543e-05
1.40546e-05
1.40548e-05
1.4055e-05
1.40553e-05
1.40556e-05
1.40558e-05
1.40561e-05
1.40564e-05
1.40567e-05
1.4057e-05
1.40573e-05
1.40577e-05
1.4058e-05
1.40584e-05
1.40587e-05
1.40591e-05
1.40595e-05
1.40599e-05
1.40603e-05
1.40607e-05
1.40612e-05
1.40616e-05
1.40621e-05
1.40626e-05
1.40631e-05
1.40637e-05
1.40642e-05
1.40648e-05
1.40654e-05
1.4066e-05
1.40666e-05
1.40673e-05
1.40679e-05
1.40686e-05
1.40694e-05
1.40701e-05
1.40709e-05
1.40718e-05
1.40726e-05
1.40735e-05
1.40744e-05
1.40754e-05
1.40764e-05
1.40774e-05
1.40785e-05
1.40796e-05
1.40808e-05
1.4082e-05
1.40832e-05
1.40845e-05
1.40858e-05
1.40872e-05
1.40886e-05
1.409e-05
1.40915e-05
1.40931e-05
1.40947e-05
1.40964e-05
1.40981e-05
1.40998e-05
1.41017e-05
1.41035e-05
1.41055e-05
1.41075e-05
1.41096e-05
1.41117e-05
1.4114e-05
1.41163e-05
1.41187e-05
1.41212e-05
1.41237e-05
1.41264e-05
1.41292e-05
1.41321e-05
1.41352e-05
1.41383e-05
1.41416e-05
1.4145e-05
1.41486e-05
1.41523e-05
1.41562e-05
1.41603e-05
1.41645e-05
1.4169e-05
1.41736e-05
1.41784e-05
1.41835e-05
1.41887e-05
1.41942e-05
1.41999e-05
1.42059e-05
1.42121e-05
1.42185e-05
1.42252e-05
1.42321e-05
1.42393e-05
1.42468e-05
1.42545e-05
1.42625e-05
1.42708e-05
1.42793e-05
1.42881e-05
1.42971e-05
1.43065e-05
1.4316e-05
1.43259e-05
1.43359e-05
1.43463e-05
1.43569e-05
1.43677e-05
1.43789e-05
1.43903e-05
1.44019e-05
1.44139e-05
1.44261e-05
1.44387e-05
1.44516e-05
1.44649e-05
1.44786e-05
1.44927e-05
1.45073e-05
1.45224e-05
1.4538e-05
1.45543e-05
1.45711e-05
1.45887e-05
1.4607e-05
1.46262e-05
1.46462e-05
1.46672e-05
1.46891e-05
1.47121e-05
1.47362e-05
1.47614e-05
1.47879e-05
1.48156e-05
1.48447e-05
1.48752e-05
1.49071e-05
1.49406e-05
1.49757e-05
1.50124e-05
1.50507e-05
1.50909e-05
1.51327e-05
1.51764e-05
1.52218e-05
1.52689e-05
1.53179e-05
1.53686e-05
1.54211e-05
1.54752e-05
1.55309e-05
1.55882e-05
1.56469e-05
1.5707e-05
1.57685e-05
1.58311e-05
1.58949e-05
1.59596e-05
1.60253e-05
1.60917e-05
1.61589e-05
1.62267e-05
1.62951e-05
1.6364e-05
1.64334e-05
1.65032e-05
1.65735e-05
1.66442e-05
1.67154e-05
1.67872e-05
1.68596e-05
1.69328e-05
1.70069e-05
1.70819e-05
1.71581e-05
1.72357e-05
1.73149e-05
1.73958e-05
1.74787e-05
1.7564e-05
1.76517e-05
1.77424e-05
1.7836e-05
1.79337e-05
1.80342e-05
1.81408e-05
1.82481e-05
1.84008e-05
1.83376e-05
1.4049e-05
1.4049e-05
1.40489e-05
1.40489e-05
1.40488e-05
1.40488e-05
1.40487e-05
1.40487e-05
1.40487e-05
1.40487e-05
1.40487e-05
1.40487e-05
1.40487e-05
1.40487e-05
1.40487e-05
1.4087e-05
1.40885e-05
1.40899e-05
1.40915e-05
1.40931e-05
1.40947e-05
1.40964e-05
1.40982e-05
1.41001e-05
1.4102e-05
1.4104e-05
1.41061e-05
1.41082e-05
1.41105e-05
1.41128e-05
1.41152e-05
1.41176e-05
1.41202e-05
1.41228e-05
1.41256e-05
1.41284e-05
1.41313e-05
1.41344e-05
1.41375e-05
1.41408e-05
1.41441e-05
1.41476e-05
1.41512e-05
1.4155e-05
1.41588e-05
1.41629e-05
1.4167e-05
1.41714e-05
1.41759e-05
1.41806e-05
1.41854e-05
1.41905e-05
1.41958e-05
1.42013e-05
1.42071e-05
1.42131e-05
1.42194e-05
1.42259e-05
1.42327e-05
1.42398e-05
1.42473e-05
1.42551e-05
1.42632e-05
1.42716e-05
1.42804e-05
1.42896e-05
1.42992e-05
1.43092e-05
1.43195e-05
1.43303e-05
1.43415e-05
1.43532e-05
1.43652e-05
1.43777e-05
1.43906e-05
1.4404e-05
1.44178e-05
1.44321e-05
1.44468e-05
1.44619e-05
1.44775e-05
1.44935e-05
1.451e-05
1.4527e-05
1.45444e-05
1.45623e-05
1.45807e-05
1.45996e-05
1.46191e-05
1.46391e-05
1.46597e-05
1.4681e-05
1.47029e-05
1.47256e-05
1.47491e-05
1.47734e-05
1.47986e-05
1.48248e-05
1.48521e-05
1.48806e-05
1.49102e-05
1.49412e-05
1.49737e-05
1.50076e-05
1.50431e-05
1.50804e-05
1.51194e-05
1.51603e-05
1.52032e-05
1.52481e-05
1.52952e-05
1.53445e-05
1.53961e-05
1.54501e-05
1.55064e-05
1.55652e-05
1.56264e-05
1.569e-05
1.57561e-05
1.58247e-05
1.58956e-05
1.59689e-05
1.60445e-05
1.61222e-05
1.6202e-05
1.62837e-05
1.63672e-05
1.64524e-05
1.65391e-05
1.66271e-05
1.67165e-05
1.6807e-05
1.68985e-05
1.69911e-05
1.70845e-05
1.71788e-05
1.7274e-05
1.73701e-05
1.74671e-05
1.75652e-05
1.76644e-05
1.77649e-05
1.7867e-05
1.79708e-05
1.80766e-05
1.81848e-05
1.82956e-05
1.84095e-05
1.85267e-05
1.86476e-05
1.87728e-05
1.89026e-05
1.90375e-05
1.91782e-05
1.93251e-05
1.94789e-05
1.96403e-05
1.98099e-05
1.99885e-05
2.01766e-05
2.0375e-05
2.05843e-05
2.0805e-05
2.10379e-05
2.12833e-05
2.15419e-05
2.1814e-05
2.20997e-05
2.23992e-05
2.27123e-05
2.30388e-05
2.33783e-05
2.37301e-05
2.40933e-05
2.44671e-05
2.48504e-05
2.5242e-05
2.56406e-05
2.60451e-05
2.64538e-05
2.68655e-05
2.72787e-05
2.76919e-05
2.81038e-05
2.85132e-05
2.89189e-05
2.93196e-05
2.97146e-05
3.01028e-05
3.04836e-05
3.08564e-05
3.12207e-05
3.1576e-05
3.19222e-05
3.2259e-05
3.2586e-05
3.29039e-05
3.32117e-05
3.35109e-05
3.37999e-05
3.40812e-05
3.43517e-05
3.46175e-05
3.48688e-05
3.51234e-05
3.53474e-05
3.56819e-05
3.56306e-05
1.40537e-05
1.40534e-05
1.40532e-05
1.4053e-05
1.40528e-05
1.40526e-05
1.40524e-05
1.40523e-05
1.40522e-05
1.40521e-05
1.4052e-05
1.4052e-05
1.4052e-05
1.4052e-05
1.4052e-05
1.40521e-05
1.4283e-05
1.42919e-05
1.43012e-05
1.43109e-05
1.43209e-05
1.43314e-05
1.43424e-05
1.43538e-05
1.43658e-05
1.43782e-05
1.43912e-05
1.44047e-05
1.44188e-05
1.44335e-05
1.44487e-05
1.44646e-05
1.44811e-05
1.44983e-05
1.45161e-05
1.45345e-05
1.45536e-05
1.45734e-05
1.45939e-05
1.46151e-05
1.4637e-05
1.46596e-05
1.46829e-05
1.47069e-05
1.47317e-05
1.47572e-05
1.47834e-05
1.48105e-05
1.48383e-05
1.4867e-05
1.48966e-05
1.49272e-05
1.49587e-05
1.49912e-05
1.50249e-05
1.50598e-05
1.50959e-05
1.51334e-05
1.51723e-05
1.52128e-05
1.5255e-05
1.52989e-05
1.53448e-05
1.53926e-05
1.54426e-05
1.54949e-05
1.55495e-05
1.56066e-05
1.56664e-05
1.57288e-05
1.5794e-05
1.58621e-05
1.59332e-05
1.60073e-05
1.60844e-05
1.61646e-05
1.62479e-05
1.63343e-05
1.64237e-05
1.6516e-05
1.66113e-05
1.67094e-05
1.68101e-05
1.69133e-05
1.7019e-05
1.71269e-05
1.72368e-05
1.73487e-05
1.74623e-05
1.75776e-05
1.76944e-05
1.78127e-05
1.79323e-05
1.80532e-05
1.81756e-05
1.82993e-05
1.84245e-05
1.85514e-05
1.86801e-05
1.88109e-05
1.89441e-05
1.90799e-05
1.92189e-05
1.93615e-05
1.9508e-05
1.96591e-05
1.98153e-05
1.99772e-05
2.01455e-05
2.03207e-05
2.05035e-05
2.06947e-05
2.0895e-05
2.1105e-05
2.13256e-05
2.15572e-05
2.18007e-05
2.20566e-05
2.23255e-05
2.26077e-05
2.29038e-05
2.32139e-05
2.35382e-05
2.38764e-05
2.42282e-05
2.4593e-05
2.49701e-05
2.53585e-05
2.5757e-05
2.61643e-05
2.65789e-05
2.69995e-05
2.74245e-05
2.78525e-05
2.82817e-05
2.87107e-05
2.91377e-05
2.95615e-05
2.99805e-05
3.03935e-05
3.07993e-05
3.1197e-05
3.15855e-05
3.19644e-05
3.23331e-05
3.26911e-05
3.30381e-05
3.33741e-05
3.36988e-05
3.40123e-05
3.43149e-05
3.46066e-05
3.48879e-05
3.51594e-05
3.54215e-05
3.56749e-05
3.59203e-05
3.61583e-05
3.63894e-05
3.66144e-05
3.68338e-05
3.70483e-05
3.72584e-05
3.74648e-05
3.76678e-05
3.7868e-05
3.80661e-05
3.82625e-05
3.84577e-05
3.8652e-05
3.8846e-05
3.90401e-05
3.92355e-05
3.9436e-05
3.96619e-05
3.98912e-05
4.01175e-05
4.03417e-05
4.05645e-05
4.07865e-05
4.10082e-05
4.12284e-05
4.14454e-05
4.16592e-05
4.18699e-05
4.20779e-05
4.22833e-05
4.24865e-05
4.26875e-05
4.28869e-05
4.30852e-05
4.32826e-05
4.34797e-05
4.36766e-05
4.38736e-05
4.40709e-05
4.42688e-05
4.44676e-05
4.46672e-05
4.48682e-05
4.50703e-05
4.52739e-05
4.54788e-05
4.56854e-05
4.58933e-05
4.61047e-05
4.63058e-05
4.661e-05
4.65619e-05
1.40746e-05
1.40734e-05
1.40723e-05
1.40714e-05
1.40705e-05
1.40698e-05
1.40691e-05
1.40686e-05
1.40681e-05
1.40678e-05
1.40677e-05
1.40676e-05
1.40677e-05
1.53827e-05
1.54306e-05
1.54803e-05
1.55317e-05
1.55851e-05
1.56405e-05
1.5698e-05
1.57578e-05
1.58199e-05
1.58847e-05
1.59521e-05
1.60223e-05
1.60954e-05
1.61716e-05
1.62509e-05
1.63336e-05
1.64196e-05
1.65091e-05
1.66022e-05
1.66988e-05
1.67991e-05
1.6903e-05
1.70105e-05
1.71215e-05
1.72361e-05
1.7354e-05
1.74753e-05
1.75997e-05
1.77271e-05
1.78574e-05
1.79904e-05
1.81259e-05
1.82638e-05
1.84039e-05
1.8546e-05
1.86902e-05
1.88363e-05
1.89844e-05
1.91343e-05
1.92863e-05
1.94404e-05
1.95967e-05
1.97556e-05
1.99172e-05
2.00819e-05
2.02502e-05
2.04224e-05
2.05991e-05
2.07808e-05
2.0968e-05
2.11615e-05
2.13618e-05
2.15696e-05
2.17857e-05
2.20107e-05
2.22453e-05
2.24902e-05
2.27459e-05
2.30132e-05
2.32926e-05
2.35845e-05
2.38892e-05
2.4207e-05
2.4538e-05
2.48821e-05
2.52391e-05
2.56083e-05
2.59893e-05
2.63812e-05
2.67828e-05
2.71929e-05
2.761e-05
2.80327e-05
2.84592e-05
2.88878e-05
2.9317e-05
2.97452e-05
3.0171e-05
3.05928e-05
3.10091e-05
3.14187e-05
3.18203e-05
3.22129e-05
3.25957e-05
3.2968e-05
3.33291e-05
3.36788e-05
3.40168e-05
3.43432e-05
3.4658e-05
3.49615e-05
3.5254e-05
3.55361e-05
3.5808e-05
3.60705e-05
3.63241e-05
3.65696e-05
3.68076e-05
3.70386e-05
3.72633e-05
3.74824e-05
3.76965e-05
3.79061e-05
3.81118e-05
3.8314e-05
3.85132e-05
3.87098e-05
3.8904e-05
3.90963e-05
3.92867e-05
3.94757e-05
3.96635e-05
3.98506e-05
4.00382e-05
4.02365e-05
4.04521e-05
4.06641e-05
4.08725e-05
4.10782e-05
4.12818e-05
4.14842e-05
4.16848e-05
4.18818e-05
4.20753e-05
4.22659e-05
4.24539e-05
4.26397e-05
4.28237e-05
4.30065e-05
4.31888e-05
4.3371e-05
4.35533e-05
4.37361e-05
4.39196e-05
4.41041e-05
4.42898e-05
4.44769e-05
4.46655e-05
4.48557e-05
4.50477e-05
4.52414e-05
4.54371e-05
4.56346e-05
4.5834e-05
4.60352e-05
4.62384e-05
4.64433e-05
4.665e-05
4.68583e-05
4.70683e-05
4.72798e-05
4.7493e-05
4.77077e-05
4.79238e-05
4.81412e-05
4.83597e-05
4.85787e-05
4.87959e-05
4.89942e-05
4.91834e-05
4.93683e-05
4.95484e-05
4.97235e-05
4.98929e-05
5.00563e-05
5.02172e-05
5.03802e-05
5.05456e-05
5.07133e-05
5.08835e-05
5.10564e-05
5.12319e-05
5.14102e-05
5.15914e-05
5.17755e-05
5.19624e-05
5.21522e-05
5.23448e-05
5.25402e-05
5.27383e-05
5.2939e-05
5.31423e-05
5.33479e-05
5.35559e-05
5.3766e-05
5.3978e-05
5.41923e-05
5.44073e-05
5.46259e-05
5.4843e-05
5.506e-05
5.53255e-05
5.5219e-05
1.41671e-05
1.41623e-05
1.41579e-05
1.4154e-05
1.41505e-05
1.41474e-05
1.41448e-05
1.41427e-05
1.41412e-05
1.41402e-05
1.414e-05
1.41402e-05
1.41407e-05
2.00803e-05
2.02578e-05
2.04379e-05
2.06206e-05
2.08063e-05
2.09952e-05
2.11875e-05
2.13836e-05
2.15839e-05
2.17888e-05
2.1999e-05
2.22148e-05
2.24369e-05
2.26659e-05
2.29024e-05
2.3147e-05
2.34003e-05
2.3663e-05
2.39356e-05
2.42185e-05
2.45124e-05
2.48175e-05
2.5134e-05
2.54622e-05
2.58021e-05
2.61534e-05
2.6516e-05
2.68892e-05
2.72724e-05
2.76647e-05
2.80651e-05
2.84725e-05
2.88853e-05
2.93022e-05
2.97216e-05
3.01418e-05
3.05611e-05
3.09779e-05
3.13909e-05
3.17988e-05
3.22005e-05
3.25947e-05
3.29804e-05
3.33566e-05
3.37226e-05
3.40779e-05
3.44219e-05
3.47545e-05
3.50755e-05
3.5385e-05
3.56832e-05
3.59705e-05
3.62472e-05
3.65138e-05
3.67711e-05
3.70195e-05
3.72596e-05
3.74922e-05
3.77179e-05
3.79373e-05
3.81508e-05
3.83592e-05
3.85628e-05
3.8762e-05
3.89573e-05
3.91489e-05
3.93371e-05
3.95222e-05
3.97043e-05
3.98838e-05
4.00607e-05
4.02354e-05
4.04082e-05
4.05796e-05
4.07524e-05
4.0944e-05
4.11361e-05
4.13239e-05
4.15083e-05
4.16903e-05
4.18706e-05
4.20496e-05
4.22258e-05
4.2399e-05
4.25697e-05
4.27385e-05
4.29057e-05
4.30721e-05
4.32383e-05
4.34049e-05
4.35723e-05
4.37406e-05
4.39102e-05
4.40814e-05
4.42542e-05
4.44289e-05
4.46055e-05
4.47841e-05
4.49645e-05
4.51469e-05
4.53312e-05
4.55172e-05
4.5705e-05
4.58945e-05
4.60856e-05
4.62783e-05
4.64724e-05
4.66679e-05
4.68647e-05
4.70627e-05
4.72619e-05
4.74622e-05
4.76634e-05
4.78649e-05
4.80588e-05
4.82346e-05
4.84059e-05
4.85733e-05
4.87364e-05
4.88949e-05
4.90484e-05
4.9199e-05
4.9352e-05
4.95078e-05
4.96666e-05
4.98282e-05
4.99928e-05
5.01606e-05
5.03314e-05
5.05052e-05
5.06821e-05
5.08619e-05
5.10446e-05
5.12298e-05
5.14176e-05
5.16078e-05
5.18001e-05
5.19945e-05
5.21906e-05
5.23884e-05
5.25877e-05
5.27882e-05
5.29898e-05
5.31922e-05
5.33952e-05
5.35985e-05
5.38019e-05
5.4005e-05
5.42076e-05
5.44094e-05
5.461e-05
5.4809e-05
5.50062e-05
5.5201e-05
5.53931e-05
5.55819e-05
5.57671e-05
5.59483e-05
5.61288e-05
5.63127e-05
5.65007e-05
5.66933e-05
5.68913e-05
5.70952e-05
5.73059e-05
5.75214e-05
5.77382e-05
5.79565e-05
5.81765e-05
5.83981e-05
5.86214e-05
5.88464e-05
5.90729e-05
5.93008e-05
5.95302e-05
5.97607e-05
5.99924e-05
6.0225e-05
6.04585e-05
6.06925e-05
6.09269e-05
6.11616e-05
6.13964e-05
6.1631e-05
6.18653e-05
6.20988e-05
6.23324e-05
6.25638e-05
6.27973e-05
6.3024e-05
6.32529e-05
6.34194e-05
6.31763e-05
1.45806e-05
1.45598e-05
1.45408e-05
1.45236e-05
1.45083e-05
1.44949e-05
1.44835e-05
1.44741e-05
1.44669e-05
1.44622e-05
1.44608e-05
1.44614e-05
1.44633e-05
1.44673e-05
3.1924e-05
3.23198e-05
3.27103e-05
3.30944e-05
3.34713e-05
3.38401e-05
3.42002e-05
3.45507e-05
3.4891e-05
3.52207e-05
3.55396e-05
3.58476e-05
3.61447e-05
3.6431e-05
3.67069e-05
3.69726e-05
3.72287e-05
3.74756e-05
3.7714e-05
3.79443e-05
3.81671e-05
3.83831e-05
3.85927e-05
3.87964e-05
3.89947e-05
3.91879e-05
3.93762e-05
3.95602e-05
3.97399e-05
3.99155e-05
4.00874e-05
4.02557e-05
4.04206e-05
4.05823e-05
4.07414e-05
4.0898e-05
4.10526e-05
4.12065e-05
4.1372e-05
4.15437e-05
4.17115e-05
4.18761e-05
4.20383e-05
4.2199e-05
4.2359e-05
4.25178e-05
4.26743e-05
4.28292e-05
4.2983e-05
4.3136e-05
4.32891e-05
4.34426e-05
4.35972e-05
4.3753e-05
4.39102e-05
4.4069e-05
4.42296e-05
4.43919e-05
4.4556e-05
4.47219e-05
4.48895e-05
4.50589e-05
4.52299e-05
4.54024e-05
4.55762e-05
4.57515e-05
4.5928e-05
4.61058e-05
4.62847e-05
4.64647e-05
4.66457e-05
4.68277e-05
4.70106e-05
4.71943e-05
4.7377e-05
4.75422e-05
4.76998e-05
4.78544e-05
4.80055e-05
4.81531e-05
4.82968e-05
4.8437e-05
4.85786e-05
4.87233e-05
4.8871e-05
4.90219e-05
4.91758e-05
4.9333e-05
4.94933e-05
4.96567e-05
4.98232e-05
4.99925e-05
5.01646e-05
5.03393e-05
5.05164e-05
5.06959e-05
5.08773e-05
5.10606e-05
5.12455e-05
5.14318e-05
5.16192e-05
5.18075e-05
5.19964e-05
5.21856e-05
5.23749e-05
5.25638e-05
5.27522e-05
5.29397e-05
5.31257e-05
5.331e-05
5.3492e-05
5.36713e-05
5.38473e-05
5.40195e-05
5.41887e-05
5.4359e-05
5.45326e-05
5.471e-05
5.48918e-05
5.50787e-05
5.52714e-05
5.54693e-05
5.56687e-05
5.58696e-05
5.60721e-05
5.62762e-05
5.64819e-05
5.66891e-05
5.68977e-05
5.71076e-05
5.73188e-05
5.7531e-05
5.77441e-05
5.7958e-05
5.81725e-05
5.83874e-05
5.86026e-05
5.8818e-05
5.90334e-05
5.92488e-05
5.94641e-05
5.96791e-05
5.98939e-05
6.01083e-05
6.03223e-05
6.05359e-05
6.07491e-05
6.09619e-05
6.11744e-05
6.13867e-05
6.1599e-05
6.18113e-05
6.20241e-05
6.22375e-05
6.24519e-05
6.26678e-05
6.28856e-05
6.31058e-05
6.33289e-05
6.35546e-05
6.37826e-05
6.40123e-05
6.42433e-05
6.4475e-05
6.47065e-05
6.49371e-05
6.51665e-05
6.53945e-05
6.5621e-05
6.58459e-05
6.60688e-05
6.62897e-05
6.65084e-05
6.67247e-05
6.69385e-05
6.71495e-05
6.73575e-05
6.75622e-05
6.77635e-05
6.7961e-05
6.81546e-05
6.83439e-05
6.85291e-05
6.87094e-05
6.88851e-05
6.90561e-05
6.92214e-05
6.9384e-05
6.95383e-05
6.96872e-05
6.97935e-05
6.97621e-05
6.93492e-05
1.61499e-05
1.60792e-05
1.60147e-05
1.59568e-05
1.59058e-05
1.58619e-05
1.58251e-05
1.57958e-05
1.57753e-05
1.5767e-05
1.57686e-05
1.57749e-05
1.57892e-05
1.58133e-05
4.12784e-05
4.14177e-05
4.15554e-05
4.16948e-05
4.18486e-05
4.19996e-05
4.21476e-05
4.22934e-05
4.24377e-05
4.25813e-05
4.27249e-05
4.2868e-05
4.30101e-05
4.31515e-05
4.32926e-05
4.3434e-05
4.35762e-05
4.37194e-05
4.38639e-05
4.40099e-05
4.41575e-05
4.43066e-05
4.44574e-05
4.46098e-05
4.47635e-05
4.49188e-05
4.50754e-05
4.52333e-05
4.53925e-05
4.55528e-05
4.57142e-05
4.58767e-05
4.60402e-05
4.62047e-05
4.63702e-05
4.65364e-05
4.67035e-05
4.68709e-05
4.70276e-05
4.71732e-05
4.73162e-05
4.74568e-05
4.75948e-05
4.773e-05
4.78621e-05
4.79936e-05
4.81279e-05
4.82654e-05
4.84059e-05
4.85495e-05
4.86962e-05
4.88459e-05
4.89986e-05
4.9154e-05
4.93121e-05
4.94728e-05
4.96357e-05
4.98009e-05
4.99679e-05
5.01368e-05
5.03071e-05
5.04788e-05
5.06515e-05
5.08251e-05
5.09992e-05
5.11736e-05
5.1348e-05
5.1522e-05
5.16954e-05
5.18677e-05
5.20384e-05
5.22073e-05
5.23737e-05
5.25372e-05
5.26976e-05
5.28573e-05
5.30197e-05
5.31855e-05
5.33549e-05
5.35287e-05
5.37076e-05
5.38919e-05
5.40788e-05
5.42672e-05
5.44572e-05
5.46488e-05
5.48419e-05
5.50365e-05
5.52324e-05
5.54295e-05
5.56276e-05
5.58267e-05
5.60265e-05
5.62269e-05
5.64277e-05
5.66287e-05
5.68298e-05
5.70308e-05
5.72316e-05
5.74321e-05
5.7632e-05
5.78314e-05
5.80301e-05
5.82282e-05
5.84257e-05
5.86226e-05
5.88191e-05
5.90152e-05
5.92112e-05
5.94075e-05
5.96042e-05
5.98019e-05
6.00012e-05
6.02026e-05
6.04069e-05
6.06143e-05
6.08247e-05
6.10378e-05
6.12532e-05
6.14704e-05
6.16888e-05
6.19076e-05
6.21266e-05
6.23458e-05
6.25649e-05
6.2784e-05
6.30028e-05
6.32214e-05
6.34396e-05
6.36572e-05
6.38742e-05
6.40905e-05
6.43059e-05
6.45203e-05
6.47336e-05
6.49457e-05
6.51567e-05
6.53664e-05
6.55749e-05
6.57821e-05
6.5988e-05
6.61926e-05
6.63958e-05
6.65978e-05
6.67985e-05
6.6998e-05
6.71962e-05
6.73932e-05
6.7589e-05
6.77837e-05
6.79771e-05
6.81692e-05
6.83598e-05
6.85487e-05
6.87357e-05
6.89204e-05
6.91024e-05
6.92811e-05
6.9456e-05
6.96266e-05
6.97923e-05
6.99527e-05
7.01072e-05
7.02554e-05
7.03965e-05
7.05303e-05
7.06561e-05
7.07736e-05
7.08822e-05
7.09814e-05
7.1071e-05
7.11503e-05
7.12198e-05
7.1282e-05
7.13375e-05
7.13862e-05
7.14279e-05
7.14628e-05
7.14903e-05
7.15112e-05
7.15243e-05
7.15304e-05
7.15292e-05
7.15202e-05
7.15039e-05
7.14791e-05
7.14474e-05
7.14112e-05
7.13656e-05
7.13117e-05
7.11859e-05
7.095e-05
7.04758e-05
2.06848e-05
2.05232e-05
2.03761e-05
2.0245e-05
2.01311e-05
2.00354e-05
1.99574e-05
1.98984e-05
1.98706e-05
1.98738e-05
1.98904e-05
1.99283e-05
1.99915e-05
2.00821e-05
4.61427e-05
4.62945e-05
4.64471e-05
4.65981e-05
4.67341e-05
4.6867e-05
4.69984e-05
4.71281e-05
4.7256e-05
4.73821e-05
4.7506e-05
4.76301e-05
4.7757e-05
4.78868e-05
4.80196e-05
4.81551e-05
4.82935e-05
4.84346e-05
4.85783e-05
4.87243e-05
4.88727e-05
4.90232e-05
4.91756e-05
4.93297e-05
4.94854e-05
4.96424e-05
4.98006e-05
4.99596e-05
5.01192e-05
5.02791e-05
5.04391e-05
5.05988e-05
5.0758e-05
5.09161e-05
5.10728e-05
5.12276e-05
5.13801e-05
5.15301e-05
5.16786e-05
5.18288e-05
5.19819e-05
5.21382e-05
5.22981e-05
5.24624e-05
5.26316e-05
5.2805e-05
5.29802e-05
5.31571e-05
5.33359e-05
5.35163e-05
5.36984e-05
5.38819e-05
5.40668e-05
5.42529e-05
5.444e-05
5.4628e-05
5.48167e-05
5.50059e-05
5.51954e-05
5.53852e-05
5.55751e-05
5.57648e-05
5.59544e-05
5.61437e-05
5.63326e-05
5.65212e-05
5.67094e-05
5.68972e-05
5.70849e-05
5.72725e-05
5.74604e-05
5.76488e-05
5.78382e-05
5.80291e-05
5.82222e-05
5.8418e-05
5.86163e-05
5.88171e-05
5.90201e-05
5.92247e-05
5.94305e-05
5.96369e-05
5.98432e-05
6.00494e-05
6.02555e-05
6.04613e-05
6.06668e-05
6.08719e-05
6.10766e-05
6.12807e-05
6.14842e-05
6.16871e-05
6.18893e-05
6.20908e-05
6.22916e-05
6.24918e-05
6.26913e-05
6.28903e-05
6.30886e-05
6.32866e-05
6.34842e-05
6.36815e-05
6.38788e-05
6.4076e-05
6.42735e-05
6.44712e-05
6.46694e-05
6.4868e-05
6.50672e-05
6.52669e-05
6.54672e-05
6.56679e-05
6.58689e-05
6.607e-05
6.62709e-05
6.64712e-05
6.66706e-05
6.68687e-05
6.70654e-05
6.72602e-05
6.74532e-05
6.7644e-05
6.78328e-05
6.80192e-05
6.82033e-05
6.83848e-05
6.85639e-05
6.87402e-05
6.89138e-05
6.90844e-05
6.92519e-05
6.94161e-05
6.95768e-05
6.97338e-05
6.9887e-05
7.00361e-05
7.01809e-05
7.03212e-05
7.04569e-05
7.05875e-05
7.07127e-05
7.08322e-05
7.09452e-05
7.10514e-05
7.11504e-05
7.12414e-05
7.13241e-05
7.13979e-05
7.14636e-05
7.15236e-05
7.15778e-05
7.1626e-05
7.1668e-05
7.17034e-05
7.17322e-05
7.1754e-05
7.17686e-05
7.17758e-05
7.17756e-05
7.17678e-05
7.17518e-05
7.17275e-05
7.16948e-05
7.16538e-05
7.16074e-05
7.15569e-05
7.1503e-05
7.14466e-05
7.13884e-05
7.13295e-05
7.12708e-05
7.12136e-05
7.11576e-05
7.10968e-05
7.10307e-05
7.09601e-05
7.08859e-05
7.08089e-05
7.073e-05
7.06495e-05
7.05688e-05
7.04893e-05
7.04105e-05
7.03364e-05
7.02647e-05
7.02005e-05
7.01455e-05
7.0095e-05
7.00518e-05
6.99753e-05
6.98443e-05
6.96061e-05
6.92714e-05
2.90146e-05
2.87956e-05
2.85988e-05
2.84269e-05
2.82837e-05
2.81701e-05
2.80815e-05
2.80309e-05
2.8036e-05
2.80711e-05
2.81397e-05
2.8246e-05
2.83939e-05
5.02933e-05
5.04354e-05
5.05758e-05
5.07141e-05
5.08525e-05
5.0993e-05
5.11361e-05
5.1282e-05
5.14311e-05
5.15841e-05
5.17415e-05
5.19023e-05
5.20651e-05
5.22296e-05
5.23958e-05
5.25636e-05
5.2733e-05
5.29038e-05
5.30759e-05
5.32491e-05
5.34233e-05
5.35982e-05
5.37739e-05
5.39501e-05
5.41267e-05
5.43035e-05
5.44805e-05
5.46575e-05
5.48345e-05
5.50114e-05
5.51884e-05
5.53653e-05
5.55425e-05
5.572e-05
5.58981e-05
5.60773e-05
5.62579e-05
5.64405e-05
5.66257e-05
5.68136e-05
5.70041e-05
5.71969e-05
5.73919e-05
5.75885e-05
5.77862e-05
5.79844e-05
5.81828e-05
5.83814e-05
5.858e-05
5.87785e-05
5.8977e-05
5.91751e-05
5.93729e-05
5.95703e-05
5.97672e-05
5.99636e-05
6.01594e-05
6.03545e-05
6.05491e-05
6.07431e-05
6.09365e-05
6.11295e-05
6.13221e-05
6.15144e-05
6.17066e-05
6.18986e-05
6.20908e-05
6.22832e-05
6.24759e-05
6.2669e-05
6.28627e-05
6.30569e-05
6.32517e-05
6.34469e-05
6.36423e-05
6.38376e-05
6.40326e-05
6.42271e-05
6.44208e-05
6.46134e-05
6.4805e-05
6.49955e-05
6.51847e-05
6.53728e-05
6.55597e-05
6.57453e-05
6.59297e-05
6.61129e-05
6.62947e-05
6.64753e-05
6.66547e-05
6.68329e-05
6.70098e-05
6.71856e-05
6.73602e-05
6.75335e-05
6.77057e-05
6.78767e-05
6.80465e-05
6.8215e-05
6.83822e-05
6.85481e-05
6.87125e-05
6.88756e-05
6.90371e-05
6.9197e-05
6.9355e-05
6.95109e-05
6.96644e-05
6.98151e-05
6.99628e-05
7.0107e-05
7.02475e-05
7.03839e-05
7.05158e-05
7.06429e-05
7.0765e-05
7.08815e-05
7.09923e-05
7.10967e-05
7.11943e-05
7.12846e-05
7.13671e-05
7.14413e-05
7.15067e-05
7.15648e-05
7.16176e-05
7.16648e-05
7.17065e-05
7.17426e-05
7.1773e-05
7.17976e-05
7.18163e-05
7.1829e-05
7.18357e-05
7.18362e-05
7.18305e-05
7.1818e-05
7.17988e-05
7.17724e-05
7.17386e-05
7.16995e-05
7.1657e-05
7.16117e-05
7.15644e-05
7.1516e-05
7.14673e-05
7.14194e-05
7.13703e-05
7.13146e-05
7.12526e-05
7.11848e-05
7.11118e-05