/*--------------------------------*- C++ -*----------------------------------*\
| =========                 |                                                 |
| \\      /  F ield         | OpenFOAM: The Open Source CFD Toolbox           |
|  \\    /   O peration     | Version:  v1706                                 |
|   \\  /    A nd           | Web:      www.OpenFOAM.com                      |
|    \\/     M anipulation  |                                                 |
\*---------------------------------------------------------------------------*/
FoamFile
{
    version     2.0;
    format      ascii;
    class       volScalarField;
    location    "3e-06";
    object      kappave;
}
// * * * * * * * * * * * * * * * * * * * * * * * * * * * * * * * * * * * * * //

dimensions      [1 1 -3 -1 0 0 0];


internalField   nonuniform List<scalar> 
30104
(
1.46038e-10
1.46038e-10
1.46038e-10
1.46038e-10
1.46038e-10
1.46038e-10
1.46038e-10
1.46038e-10
1.46038e-10
1.46038e-10
1.46038e-10
1.46038e-10
1.46038e-10
1.46038e-10
1.46038e-10
1.46038e-10
1.46038e-10
1.46038e-10
1.46038e-10
1.46038e-10
1.46038e-10
1.46038e-10
1.46038e-10
1.46038e-10
1.46038e-10
1.46038e-10
1.46038e-10
1.46038e-10
1.46038e-10
1.46038e-10
1.46038e-10
1.46038e-10
1.46038e-10
1.46038e-10
1.46038e-10
1.46038e-10
1.46038e-10
1.46038e-10
1.46038e-10
1.46038e-10
1.46038e-10
1.46038e-10
1.46038e-10
1.46038e-10
1.46038e-10
1.46038e-10
1.46038e-10
1.46038e-10
1.46038e-10
1.46038e-10
1.46038e-10
1.46038e-10
1.46038e-10
1.46038e-10
1.46038e-10
1.46038e-10
1.46038e-10
1.46038e-10
1.46038e-10
1.46038e-10
1.46038e-10
1.46038e-10
1.46038e-10
1.46038e-10
1.46038e-10
1.46038e-10
1.46038e-10
1.46038e-10
1.46038e-10
1.46038e-10
1.46038e-10
1.46038e-10
1.46038e-10
1.46038e-10
1.46038e-10
1.46038e-10
1.46038e-10
1.46038e-10
1.46038e-10
1.46038e-10
1.46038e-10
1.46038e-10
1.46039e-10
1.46039e-10
1.46039e-10
1.46039e-10
1.46039e-10
1.46039e-10
1.46039e-10
1.46039e-10
1.46039e-10
1.46039e-10
1.46039e-10
1.46039e-10
1.46039e-10
1.46039e-10
1.46039e-10
1.46039e-10
1.46039e-10
1.46039e-10
1.46039e-10
1.46039e-10
1.46039e-10
1.46039e-10
1.46039e-10
1.46039e-10
1.4604e-10
1.4604e-10
1.4604e-10
1.4604e-10
1.4604e-10
1.4604e-10
1.4604e-10
1.4604e-10
1.4604e-10
1.4604e-10
1.4604e-10
1.4604e-10
1.4604e-10
1.46041e-10
1.46041e-10
1.46041e-10
1.46041e-10
1.46041e-10
1.46041e-10
1.46041e-10
1.46041e-10
1.46041e-10
1.46042e-10
1.46042e-10
1.46042e-10
1.46042e-10
1.46042e-10
1.46042e-10
1.46043e-10
1.46043e-10
1.46043e-10
1.46043e-10
1.46043e-10
1.46044e-10
1.46044e-10
1.46044e-10
1.46044e-10
1.46045e-10
1.46045e-10
1.46045e-10
1.46045e-10
1.46046e-10
1.46046e-10
1.46046e-10
1.46047e-10
1.46047e-10
1.46047e-10
1.46048e-10
1.46048e-10
1.46049e-10
1.46049e-10
1.46049e-10
1.4605e-10
1.4605e-10
1.46051e-10
1.46051e-10
1.46052e-10
1.46052e-10
1.46053e-10
1.46053e-10
1.46054e-10
1.46054e-10
1.46055e-10
1.46056e-10
1.46056e-10
1.46057e-10
1.46058e-10
1.46058e-10
1.46059e-10
1.4606e-10
1.46061e-10
1.46061e-10
1.46062e-10
1.46063e-10
1.46064e-10
1.46065e-10
1.46066e-10
1.46067e-10
1.46069e-10
1.4607e-10
1.46071e-10
1.46072e-10
1.46074e-10
1.46075e-10
1.46077e-10
1.46078e-10
1.4608e-10
1.46082e-10
1.46083e-10
1.46085e-10
1.46087e-10
1.46089e-10
1.46091e-10
1.46093e-10
1.46096e-10
1.46098e-10
1.46101e-10
1.46103e-10
1.46106e-10
1.46109e-10
1.46111e-10
1.46114e-10
1.46117e-10
1.46109e-10
1.46038e-10
1.46038e-10
1.46038e-10
1.46038e-10
1.46038e-10
1.46038e-10
1.46038e-10
1.46038e-10
1.46038e-10
1.46038e-10
1.46038e-10
1.46038e-10
1.46038e-10
1.46038e-10
1.46038e-10
1.46038e-10
1.46038e-10
1.46039e-10
1.46039e-10
1.46039e-10
1.4604e-10
1.4604e-10
1.4604e-10
1.4604e-10
1.4604e-10
1.4604e-10
1.4604e-10
1.4604e-10
1.4604e-10
1.4604e-10
1.4604e-10
1.4604e-10
1.4604e-10
1.4604e-10
1.46041e-10
1.46041e-10
1.46041e-10
1.46041e-10
1.46041e-10
1.46041e-10
1.46041e-10
1.46041e-10
1.46041e-10
1.46042e-10
1.46042e-10
1.46042e-10
1.46042e-10
1.46042e-10
1.46042e-10
1.46042e-10
1.46043e-10
1.46043e-10
1.46043e-10
1.46043e-10
1.46043e-10
1.46044e-10
1.46044e-10
1.46044e-10
1.46044e-10
1.46044e-10
1.46045e-10
1.46045e-10
1.46045e-10
1.46045e-10
1.46046e-10
1.46046e-10
1.46046e-10
1.46046e-10
1.46047e-10
1.46047e-10
1.46047e-10
1.46048e-10
1.46048e-10
1.46049e-10
1.46049e-10
1.46049e-10
1.4605e-10
1.4605e-10
1.46051e-10
1.46051e-10
1.46052e-10
1.46052e-10
1.46053e-10
1.46053e-10
1.46054e-10
1.46054e-10
1.46055e-10
1.46056e-10
1.46056e-10
1.46057e-10
1.46058e-10
1.46059e-10
1.46059e-10
1.4606e-10
1.46061e-10
1.46062e-10
1.46063e-10
1.46064e-10
1.46065e-10
1.46066e-10
1.46067e-10
1.46068e-10
1.4607e-10
1.46071e-10
1.46072e-10
1.46074e-10
1.46075e-10
1.46076e-10
1.46078e-10
1.46079e-10
1.46081e-10
1.46083e-10
1.46085e-10
1.46086e-10
1.46088e-10
1.4609e-10
1.46092e-10
1.46094e-10
1.46096e-10
1.46099e-10
1.46101e-10
1.46104e-10
1.46106e-10
1.46109e-10
1.46112e-10
1.46114e-10
1.46117e-10
1.46121e-10
1.46124e-10
1.46127e-10
1.46131e-10
1.46135e-10
1.46138e-10
1.46142e-10
1.46147e-10
1.46151e-10
1.46156e-10
1.46161e-10
1.46166e-10
1.46171e-10
1.46177e-10
1.46183e-10
1.46189e-10
1.46195e-10
1.46202e-10
1.46209e-10
1.46216e-10
1.46223e-10
1.46231e-10
1.4624e-10
1.46248e-10
1.46257e-10
1.46266e-10
1.46276e-10
1.46286e-10
1.46297e-10
1.46308e-10
1.46319e-10
1.46331e-10
1.46343e-10
1.46356e-10
1.46369e-10
1.46382e-10
1.46397e-10
1.46411e-10
1.46427e-10
1.46443e-10
1.46459e-10
1.46477e-10
1.46494e-10
1.46513e-10
1.46532e-10
1.46552e-10
1.46573e-10
1.46595e-10
1.46618e-10
1.46642e-10
1.46666e-10
1.46692e-10
1.46719e-10
1.46747e-10
1.46776e-10
1.46807e-10
1.46838e-10
1.46872e-10
1.46907e-10
1.46944e-10
1.46982e-10
1.47022e-10
1.47064e-10
1.47108e-10
1.47155e-10
1.47203e-10
1.47254e-10
1.47307e-10
1.47363e-10
1.47422e-10
1.47483e-10
1.47548e-10
1.47616e-10
1.47686e-10
1.47761e-10
1.47838e-10
1.4792e-10
1.48005e-10
1.48095e-10
1.48188e-10
1.48286e-10
1.48409e-10
1.48319e-10
1.46038e-10
1.46038e-10
1.46038e-10
1.46038e-10
1.46038e-10
1.46038e-10
1.46038e-10
1.46038e-10
1.46038e-10
1.46038e-10
1.46038e-10
1.46038e-10
1.46038e-10
1.46038e-10
1.46038e-10
1.46038e-10
1.4605e-10
1.46051e-10
1.46051e-10
1.46052e-10
1.46052e-10
1.46053e-10
1.46053e-10
1.46054e-10
1.46054e-10
1.46055e-10
1.46056e-10
1.46056e-10
1.46057e-10
1.46058e-10
1.46058e-10
1.46059e-10
1.4606e-10
1.46061e-10
1.46062e-10
1.46062e-10
1.46063e-10
1.46064e-10
1.46065e-10
1.46066e-10
1.46067e-10
1.46068e-10
1.4607e-10
1.46071e-10
1.46072e-10
1.46073e-10
1.46075e-10
1.46076e-10
1.46077e-10
1.46079e-10
1.46081e-10
1.46082e-10
1.46084e-10
1.46086e-10
1.46088e-10
1.4609e-10
1.46092e-10
1.46094e-10
1.46096e-10
1.46098e-10
1.46101e-10
1.46103e-10
1.46106e-10
1.46108e-10
1.46111e-10
1.46114e-10
1.46117e-10
1.4612e-10
1.46124e-10
1.46127e-10
1.4613e-10
1.46134e-10
1.46138e-10
1.46142e-10
1.46146e-10
1.4615e-10
1.46155e-10
1.46159e-10
1.46164e-10
1.46169e-10
1.46174e-10
1.4618e-10
1.46185e-10
1.46191e-10
1.46197e-10
1.46204e-10
1.4621e-10
1.46217e-10
1.46225e-10
1.46232e-10
1.4624e-10
1.46249e-10
1.46258e-10
1.46267e-10
1.46276e-10
1.46286e-10
1.46297e-10
1.46308e-10
1.46319e-10
1.46331e-10
1.46344e-10
1.46357e-10
1.4637e-10
1.46385e-10
1.46399e-10
1.46415e-10
1.46431e-10
1.46448e-10
1.46466e-10
1.46484e-10
1.46504e-10
1.46524e-10
1.46544e-10
1.46566e-10
1.46589e-10
1.46612e-10
1.46637e-10
1.46663e-10
1.46689e-10
1.46717e-10
1.46746e-10
1.46776e-10
1.46807e-10
1.4684e-10
1.46874e-10
1.4691e-10
1.46947e-10
1.46985e-10
1.47026e-10
1.47068e-10
1.47112e-10
1.47159e-10
1.47207e-10
1.47258e-10
1.47311e-10
1.47366e-10
1.47425e-10
1.47486e-10
1.47551e-10
1.47618e-10
1.47689e-10
1.47764e-10
1.47843e-10
1.47925e-10
1.48012e-10
1.48104e-10
1.482e-10
1.48301e-10
1.48408e-10
1.4852e-10
1.48638e-10
1.48761e-10
1.48891e-10
1.49027e-10
1.49169e-10
1.49318e-10
1.49475e-10
1.49639e-10
1.49811e-10
1.4999e-10
1.50179e-10
1.50375e-10
1.50581e-10
1.50795e-10
1.51019e-10
1.51252e-10
1.51495e-10
1.51749e-10
1.52012e-10
1.52286e-10
1.52571e-10
1.52868e-10
1.53176e-10
1.53496e-10
1.53828e-10
1.54173e-10
1.54531e-10
1.54903e-10
1.5529e-10
1.55691e-10
1.56108e-10
1.56542e-10
1.56993e-10
1.57462e-10
1.57951e-10
1.58461e-10
1.58993e-10
1.59548e-10
1.60128e-10
1.60734e-10
1.61369e-10
1.62034e-10
1.62731e-10
1.63463e-10
1.64232e-10
1.65041e-10
1.65891e-10
1.66786e-10
1.67729e-10
1.68723e-10
1.6977e-10
1.70876e-10
1.72042e-10
1.73274e-10
1.74573e-10
1.75948e-10
1.77382e-10
1.79354e-10
1.78784e-10
1.46041e-10
1.4604e-10
1.4604e-10
1.4604e-10
1.4604e-10
1.4604e-10
1.4604e-10
1.4604e-10
1.4604e-10
1.4604e-10
1.4604e-10
1.4604e-10
1.4604e-10
1.4604e-10
1.4604e-10
1.4604e-10
1.46127e-10
1.46131e-10
1.46134e-10
1.46138e-10
1.46142e-10
1.46146e-10
1.4615e-10
1.46155e-10
1.4616e-10
1.46164e-10
1.46169e-10
1.46175e-10
1.4618e-10
1.46186e-10
1.46192e-10
1.46198e-10
1.46204e-10
1.46211e-10
1.46218e-10
1.46225e-10
1.46232e-10
1.4624e-10
1.46248e-10
1.46256e-10
1.46265e-10
1.46274e-10
1.46284e-10
1.46294e-10
1.46304e-10
1.46315e-10
1.46326e-10
1.46338e-10
1.4635e-10
1.46363e-10
1.46376e-10
1.4639e-10
1.46405e-10
1.4642e-10
1.46436e-10
1.46453e-10
1.46471e-10
1.46489e-10
1.46508e-10
1.46528e-10
1.46549e-10
1.46571e-10
1.46594e-10
1.46618e-10
1.46644e-10
1.4667e-10
1.46697e-10
1.46726e-10
1.46756e-10
1.46787e-10
1.46819e-10
1.46853e-10
1.46889e-10
1.46926e-10
1.46964e-10
1.47004e-10
1.47046e-10
1.4709e-10
1.47135e-10
1.47183e-10
1.47232e-10
1.47284e-10
1.47338e-10
1.47394e-10
1.47453e-10
1.47514e-10
1.47578e-10
1.47646e-10
1.47716e-10
1.4779e-10
1.47867e-10
1.47948e-10
1.48033e-10
1.48122e-10
1.48216e-10
1.48314e-10
1.48418e-10
1.48527e-10
1.48641e-10
1.48762e-10
1.48888e-10
1.49022e-10
1.49162e-10
1.4931e-10
1.49466e-10
1.4963e-10
1.49802e-10
1.49983e-10
1.50174e-10
1.50374e-10
1.50585e-10
1.50806e-10
1.51039e-10
1.51283e-10
1.51539e-10
1.51807e-10
1.52087e-10
1.52381e-10
1.52689e-10
1.5301e-10
1.53346e-10
1.53697e-10
1.54063e-10
1.54445e-10
1.54843e-10
1.55258e-10
1.5569e-10
1.56141e-10
1.5661e-10
1.57098e-10
1.57607e-10
1.58137e-10
1.58689e-10
1.59265e-10
1.59866e-10
1.60493e-10
1.61149e-10
1.61834e-10
1.62552e-10
1.63303e-10
1.64092e-10
1.64919e-10
1.65789e-10
1.66705e-10
1.67669e-10
1.68685e-10
1.69758e-10
1.70891e-10
1.72089e-10
1.73355e-10
1.74694e-10
1.7611e-10
1.77608e-10
1.79193e-10
1.80872e-10
1.82649e-10
1.84531e-10
1.86526e-10
1.88639e-10
1.90879e-10
1.9325e-10
1.9576e-10
1.98416e-10
2.01224e-10
2.04191e-10
2.07322e-10
2.10625e-10
2.14106e-10
2.1777e-10
2.21622e-10
2.25668e-10
2.29912e-10
2.34359e-10
2.39013e-10
2.43878e-10
2.48958e-10
2.54255e-10
2.59773e-10
2.65515e-10
2.71483e-10
2.77682e-10
2.84113e-10
2.90781e-10
2.97689e-10
3.04843e-10
3.12249e-10
3.19912e-10
3.2784e-10
3.36045e-10
3.44538e-10
3.53331e-10
3.6244e-10
3.71883e-10
3.81681e-10
3.91857e-10
4.02437e-10
4.13448e-10
4.24927e-10
4.36904e-10
4.4943e-10
4.62536e-10
4.76293e-10
4.90721e-10
5.05946e-10
5.21913e-10
5.38915e-10
5.56479e-10
5.79799e-10
5.78905e-10
1.46052e-10
1.46051e-10
1.4605e-10
1.4605e-10
1.46049e-10
1.46049e-10
1.46048e-10
1.46048e-10
1.46048e-10
1.46048e-10
1.46048e-10
1.46048e-10
1.46048e-10
1.46048e-10
1.46048e-10
1.46665e-10
1.46691e-10
1.46719e-10
1.46748e-10
1.46778e-10
1.46809e-10
1.46842e-10
1.46877e-10
1.46913e-10
1.4695e-10
1.4699e-10
1.47031e-10
1.47074e-10
1.47119e-10
1.47166e-10
1.47215e-10
1.47266e-10
1.4732e-10
1.47375e-10
1.47434e-10
1.47495e-10
1.47558e-10
1.47624e-10
1.47693e-10
1.47766e-10
1.47841e-10
1.4792e-10
1.48002e-10
1.48088e-10
1.48177e-10
1.48271e-10
1.4837e-10
1.48472e-10
1.4858e-10
1.48693e-10
1.48811e-10
1.48935e-10
1.49066e-10
1.49203e-10
1.49346e-10
1.49498e-10
1.49657e-10
1.49824e-10
1.5e-10
1.50185e-10
1.5038e-10
1.50585e-10
1.50801e-10
1.51028e-10
1.51267e-10
1.51519e-10
1.51784e-10
1.52063e-10
1.52356e-10
1.52663e-10
1.52987e-10
1.53327e-10
1.53683e-10
1.54057e-10
1.54449e-10
1.54859e-10
1.55289e-10
1.55738e-10
1.56208e-10
1.567e-10
1.57213e-10
1.57749e-10
1.58309e-10
1.58893e-10
1.59502e-10
1.60138e-10
1.60801e-10
1.61494e-10
1.62216e-10
1.62971e-10
1.6376e-10
1.64584e-10
1.65446e-10
1.6635e-10
1.67296e-10
1.68289e-10
1.69332e-10
1.70428e-10
1.71582e-10
1.72798e-10
1.7408e-10
1.75433e-10
1.76863e-10
1.78376e-10
1.79978e-10
1.81674e-10
1.83472e-10
1.85379e-10
1.87403e-10
1.89549e-10
1.91828e-10
1.94246e-10
1.96813e-10
1.99537e-10
2.02426e-10
2.05488e-10
2.08733e-10
2.12169e-10
2.15803e-10
2.19646e-10
2.23705e-10
2.27987e-10
2.325e-10
2.37249e-10
2.42242e-10
2.47482e-10
2.52975e-10
2.58726e-10
2.64739e-10
2.71019e-10
2.77571e-10
2.844e-10
2.91512e-10
2.98912e-10
3.06607e-10
3.14605e-10
3.22914e-10
3.31544e-10
3.40508e-10
3.4982e-10
3.59496e-10
3.69557e-10
3.80028e-10
3.90934e-10
4.02307e-10
4.14181e-10
4.26595e-10
4.3959e-10
4.53212e-10
4.67512e-10
4.82549e-10
4.98387e-10
5.15099e-10
5.32769e-10
5.5149e-10
5.71366e-10
5.92511e-10
6.15046e-10
6.39101e-10
6.64814e-10
6.92332e-10
7.21811e-10
7.53412e-10
7.87308e-10
8.2368e-10
8.62718e-10
9.04613e-10
9.49556e-10
9.97737e-10
1.04934e-09
1.10456e-09
1.16356e-09
1.22652e-09
1.29356e-09
1.36482e-09
1.44044e-09
1.52052e-09
1.60517e-09
1.69446e-09
1.78845e-09
1.88716e-09
1.9906e-09
2.09875e-09
2.2116e-09
2.32909e-09
2.45115e-09
2.5777e-09
2.70868e-09
2.844e-09
2.98355e-09
3.12727e-09
3.27506e-09
3.42688e-09
3.58265e-09
3.74233e-09
3.90581e-09
4.07324e-09
4.24437e-09
4.41954e-09
4.5984e-09
4.7816e-09
4.96827e-09
5.16026e-09
5.35461e-09
5.55702e-09
5.75607e-09
5.99821e-09
6.10987e-09
1.46108e-10
1.46105e-10
1.46102e-10
1.46099e-10
1.46096e-10
1.46094e-10
1.46092e-10
1.46091e-10
1.46089e-10
1.46088e-10
1.46087e-10
1.46087e-10
1.46087e-10
1.46087e-10
1.46088e-10
1.46088e-10
1.50474e-10
1.50674e-10
1.50885e-10
1.51106e-10
1.51338e-10
1.51582e-10
1.51839e-10
1.52109e-10
1.52393e-10
1.52693e-10
1.53007e-10
1.53338e-10
1.53686e-10
1.54052e-10
1.54437e-10
1.54842e-10
1.55267e-10
1.55714e-10
1.56183e-10
1.56675e-10
1.57191e-10
1.57733e-10
1.583e-10
1.58895e-10
1.59517e-10
1.60168e-10
1.60849e-10
1.61561e-10
1.62306e-10
1.63084e-10
1.63897e-10
1.64746e-10
1.65633e-10
1.66561e-10
1.67531e-10
1.68545e-10
1.69606e-10
1.70717e-10
1.71882e-10
1.73103e-10
1.74385e-10
1.75732e-10
1.77149e-10
1.7864e-10
1.80211e-10
1.81868e-10
1.83618e-10
1.85467e-10
1.87422e-10
1.89492e-10
1.91685e-10
1.94008e-10
1.96471e-10
1.99083e-10
2.01854e-10
2.04794e-10
2.07912e-10
2.11218e-10
2.14723e-10
2.18438e-10
2.22371e-10
2.26535e-10
2.30937e-10
2.35588e-10
2.40496e-10
2.45671e-10
2.5112e-10
2.5685e-10
2.6287e-10
2.69187e-10
2.75805e-10
2.82733e-10
2.89975e-10
2.97539e-10
3.05432e-10
3.13661e-10
3.22234e-10
3.31161e-10
3.40454e-10
3.50125e-10
3.6019e-10
3.70668e-10
3.8158e-10
3.92953e-10
4.04814e-10
4.17199e-10
4.30148e-10
4.43705e-10
4.57923e-10
4.72859e-10
4.88579e-10
5.05157e-10
5.22673e-10
5.41217e-10
5.60885e-10
5.81788e-10
6.04043e-10
6.27779e-10
6.5313e-10
6.80245e-10
7.09276e-10
7.40389e-10
7.73756e-10
8.09558e-10
8.47983e-10
8.89221e-10
9.33467e-10
9.80902e-10
1.03171e-09
1.08605e-09
1.14408e-09
1.20596e-09
1.27181e-09
1.34173e-09
1.41582e-09
1.49416e-09
1.57682e-09
1.66385e-09
1.75528e-09
1.85112e-09
1.95133e-09
2.05588e-09
2.16473e-09
2.27779e-09
2.39498e-09
2.51621e-09
2.64138e-09
2.77042e-09
2.90322e-09
3.0397e-09
3.17978e-09
3.32338e-09
3.47042e-09
3.62083e-09
3.77458e-09
3.93165e-09
4.09207e-09
4.25592e-09
4.42333e-09
4.59447e-09
4.76957e-09
4.94887e-09
5.13261e-09
5.32104e-09
5.51444e-09
5.71312e-09
5.91739e-09
6.12755e-09
6.34392e-09
6.56688e-09
6.79681e-09
7.03411e-09
7.27917e-09
7.53239e-09
7.79417e-09
8.06501e-09
8.34566e-09
8.63812e-09
8.95237e-09
9.279e-09
9.61511e-09
9.96119e-09
1.03176e-08
1.06848e-08
1.10631e-08
1.14524e-08
1.18523e-08
1.22629e-08
1.26844e-08
1.31168e-08
1.35604e-08
1.40152e-08
1.44815e-08
1.49594e-08
1.54491e-08
1.5951e-08
1.64653e-08
1.69922e-08
1.75321e-08
1.80852e-08
1.86518e-08
1.92325e-08
1.9827e-08
2.04367e-08
2.10608e-08
2.17014e-08
2.23565e-08
2.30306e-08
2.37173e-08
2.44301e-08
2.5137e-08
2.59922e-08
2.64084e-08
1.46374e-10
1.46358e-10
1.46344e-10
1.46332e-10
1.46321e-10
1.46311e-10
1.46302e-10
1.46295e-10
1.4629e-10
1.46286e-10
1.46284e-10
1.46284e-10
1.46284e-10
1.78162e-10
1.7968e-10
1.81274e-10
1.82948e-10
1.84707e-10
1.86557e-10
1.88504e-10
1.90556e-10
1.92719e-10
1.95001e-10
1.97411e-10
1.99958e-10
2.02651e-10
2.05499e-10
2.08514e-10
2.11706e-10
2.15086e-10
2.18666e-10
2.22457e-10
2.26471e-10
2.30721e-10
2.35218e-10
2.39973e-10
2.45e-10
2.50309e-10
2.5591e-10
2.61815e-10
2.68033e-10
2.74575e-10
2.81449e-10
2.88664e-10
2.96229e-10
3.04153e-10
3.12445e-10
3.21114e-10
3.30169e-10
3.39621e-10
3.49483e-10
3.5977e-10
3.70496e-10
3.81681e-10
3.93346e-10
4.05515e-10
4.18219e-10
4.3149e-10
4.45368e-10
4.59896e-10
4.75127e-10
4.91118e-10
5.07933e-10
5.25647e-10
5.44339e-10
5.64101e-10
5.85029e-10
6.07233e-10
6.30828e-10
6.55941e-10
6.82706e-10
7.11268e-10
7.41778e-10
7.74396e-10
8.09285e-10
8.46614e-10
8.86556e-10
9.29281e-10
9.74955e-10
1.02374e-09
1.0758e-09
1.13126e-09
1.19028e-09
1.25294e-09
1.31935e-09
1.38958e-09
1.46369e-09
1.54169e-09
1.62361e-09
1.70946e-09
1.79922e-09
1.89286e-09
1.99033e-09
2.09155e-09
2.19645e-09
2.30494e-09
2.41692e-09
2.5323e-09
2.65096e-09
2.77284e-09
2.89787e-09
3.02598e-09
3.15714e-09
3.29135e-09
3.42862e-09
3.56899e-09
3.71254e-09
3.85935e-09
4.00956e-09
4.16334e-09
4.32088e-09
4.48236e-09
4.64802e-09
4.81812e-09
4.99291e-09
5.17268e-09
5.35774e-09
5.54841e-09
5.74502e-09
5.9479e-09
6.15736e-09
6.37371e-09
6.59726e-09
6.82835e-09
7.06733e-09
7.3146e-09
7.57087e-09
7.84049e-09
8.12689e-09
8.42183e-09
8.72536e-09
9.03788e-09
9.35971e-09
9.69117e-09
1.00323e-08
1.03829e-08
1.07429e-08
1.11126e-08
1.14921e-08
1.18815e-08
1.22811e-08
1.26911e-08
1.31118e-08
1.35433e-08
1.39858e-08
1.44395e-08
1.49045e-08
1.53809e-08
1.58691e-08
1.63694e-08
1.68819e-08
1.74073e-08
1.7946e-08
1.84986e-08
1.90656e-08
1.96476e-08
2.02451e-08
2.08585e-08
2.14886e-08
2.21357e-08
2.28005e-08
2.34834e-08
2.41852e-08
2.49063e-08
2.56476e-08
2.64097e-08
2.71933e-08
2.79989e-08
2.88274e-08
2.96797e-08
3.05574e-08
3.14643e-08
3.2391e-08
3.33351e-08
3.42968e-08
3.52756e-08
3.62712e-08
3.7283e-08
3.83136e-08
3.93667e-08
4.04427e-08
4.15423e-08
4.26658e-08
4.38139e-08
4.49871e-08
4.61859e-08
4.74111e-08
4.86632e-08
4.99427e-08
5.12504e-08
5.2587e-08
5.39528e-08
5.53489e-08
5.67755e-08
5.82339e-08
5.97237e-08
6.12472e-08
6.28031e-08
6.43946e-08
6.60197e-08
6.76821e-08
6.93796e-08
7.11203e-08
7.28506e-08
7.50284e-08
7.55537e-08
1.47661e-10
1.4759e-10
1.47525e-10
1.47468e-10
1.47417e-10
1.47373e-10
1.47335e-10
1.47306e-10
1.47283e-10
1.47271e-10
1.47269e-10
1.47272e-10
1.4728e-10
3.77456e-10
3.89019e-10
4.01098e-10
4.1371e-10
4.2688e-10
4.40637e-10
4.55012e-10
4.70046e-10
4.85779e-10
5.02263e-10
5.19552e-10
5.37708e-10
5.56801e-10
5.7691e-10
5.9812e-10
6.20526e-10
6.44229e-10
6.69342e-10
6.95984e-10
7.24284e-10
7.54375e-10
7.86401e-10
8.20505e-10
8.56838e-10
8.95552e-10
9.36799e-10
9.80727e-10
1.02748e-09
1.0772e-09
1.13001e-09
1.18603e-09
1.24536e-09
1.30809e-09
1.37428e-09
1.44398e-09
1.5172e-09
1.59396e-09
1.67424e-09
1.75801e-09
1.84528e-09
1.93598e-09
2.03005e-09
2.12744e-09
2.22805e-09
2.3318e-09
2.4386e-09
2.54838e-09
2.66106e-09
2.77658e-09
2.89488e-09
3.01596e-09
3.1398e-09
3.26642e-09
3.39588e-09
3.52826e-09
3.66367e-09
3.80221e-09
3.94406e-09
4.08939e-09
4.2384e-09
4.3913e-09
4.54832e-09
4.70971e-09
4.87572e-09
5.0466e-09
5.22262e-09
5.40403e-09
5.59111e-09
5.78413e-09
5.98336e-09
6.18908e-09
6.40158e-09
6.62116e-09
6.84819e-09
7.08371e-09
7.33455e-09
7.59433e-09
7.86128e-09
8.13575e-09
8.41802e-09
8.70836e-09
9.00696e-09
9.31359e-09
9.62825e-09
9.95107e-09
1.02822e-08
1.06219e-08
1.09702e-08
1.13275e-08
1.16941e-08
1.20702e-08
1.24559e-08
1.28517e-08
1.32579e-08
1.36746e-08
1.41023e-08
1.45415e-08
1.49923e-08
1.54553e-08
1.59308e-08
1.64192e-08
1.6921e-08
1.74367e-08
1.79667e-08
1.85116e-08
1.90719e-08
1.96481e-08
2.02408e-08
2.08505e-08
2.14777e-08
2.2123e-08
2.2787e-08
2.34705e-08
2.41743e-08
2.49002e-08
2.56469e-08
2.64091e-08
2.71866e-08
2.79797e-08
2.87879e-08
2.96111e-08
3.04505e-08
3.13095e-08
3.21889e-08
3.3089e-08
3.40104e-08
3.49534e-08
3.59187e-08
3.69065e-08
3.79174e-08
3.89516e-08
4.00095e-08
4.10914e-08
4.21975e-08
4.33281e-08
4.44835e-08
4.56643e-08
4.6871e-08
4.81044e-08
4.93653e-08
5.06545e-08
5.19727e-08
5.33205e-08
5.46985e-08
5.61073e-08
5.75472e-08
5.90189e-08
6.05227e-08
6.20589e-08
6.3628e-08
6.52304e-08
6.68663e-08
6.85362e-08
7.02402e-08
7.19784e-08
7.3751e-08
7.5558e-08
7.73994e-08
7.92762e-08
8.11898e-08
8.31418e-08
8.51337e-08
8.7167e-08
8.92437e-08
9.13654e-08
9.35296e-08
9.57316e-08
9.79724e-08
1.00253e-07
1.02574e-07
1.04936e-07
1.07341e-07
1.09787e-07
1.12276e-07
1.14809e-07
1.17385e-07
1.20005e-07
1.22669e-07
1.25377e-07
1.2813e-07
1.30926e-07
1.33767e-07
1.3665e-07
1.39578e-07
1.42547e-07
1.45559e-07
1.48615e-07
1.51705e-07
1.54853e-07
1.58018e-07
1.61179e-07
1.64904e-07
1.64028e-07
1.54244e-10
1.53881e-10
1.53552e-10
1.53257e-10
1.52995e-10
1.52768e-10
1.52575e-10
1.52416e-10
1.52295e-10
1.52218e-10
1.52199e-10
1.52212e-10
1.52244e-10
1.52312e-10
1.62815e-09
1.70531e-09
1.78564e-09
1.86906e-09
1.95555e-09
2.04506e-09
2.13755e-09
2.23293e-09
2.33113e-09
2.43208e-09
2.53572e-09
2.64197e-09
2.75082e-09
2.86222e-09
2.97616e-09
3.09265e-09
3.21173e-09
3.33345e-09
3.45791e-09
3.5852e-09
3.71547e-09
3.84886e-09
3.98553e-09
4.12567e-09
4.26946e-09
4.4171e-09
4.56881e-09
4.72479e-09
4.88526e-09
5.05045e-09
5.22058e-09
5.39589e-09
5.57661e-09
5.763e-09
5.9553e-09
6.15377e-09
6.35868e-09
6.57046e-09
6.79344e-09
7.02622e-09
7.26529e-09
7.51086e-09
7.76318e-09
8.02248e-09
8.28899e-09
8.5627e-09
8.84346e-09
9.13141e-09
9.42672e-09
9.72951e-09
1.004e-08
1.03585e-08
1.06853e-08
1.10204e-08
1.13642e-08
1.1717e-08
1.2079e-08
1.24505e-08
1.28318e-08
1.32233e-08
1.36252e-08
1.40381e-08
1.44622e-08
1.48979e-08
1.53456e-08
1.58057e-08
1.62787e-08
1.6765e-08
1.72651e-08
1.77795e-08
1.83087e-08
1.88531e-08
1.94134e-08
1.99901e-08
2.05839e-08
2.11959e-08
2.18214e-08
2.24598e-08
2.31112e-08
2.37755e-08
2.44524e-08
2.51423e-08
2.58478e-08
2.657e-08
2.73093e-08
2.80661e-08
2.88408e-08
2.9634e-08
3.0446e-08
3.12774e-08
3.21286e-08
3.30001e-08
3.38925e-08
3.48062e-08
3.57417e-08
3.66996e-08
3.76805e-08
3.86848e-08
3.97131e-08
4.07658e-08
4.18435e-08
4.29465e-08
4.40754e-08
4.52306e-08
4.64127e-08
4.76219e-08
4.88587e-08
5.01232e-08
5.14158e-08
5.27365e-08
5.40853e-08
5.54624e-08
5.68677e-08
5.83013e-08
5.97634e-08
6.12551e-08
6.27777e-08
6.43326e-08
6.59212e-08
6.7545e-08
6.92057e-08
7.09029e-08
7.26332e-08
7.43971e-08
7.61956e-08
7.80295e-08
7.98992e-08
8.18054e-08
8.37486e-08
8.5729e-08
8.7747e-08
8.98028e-08
9.18963e-08
9.40277e-08
9.61972e-08
9.8405e-08
1.00652e-07
1.02938e-07
1.05264e-07
1.07631e-07
1.10039e-07
1.1249e-07
1.14982e-07
1.17516e-07
1.20093e-07
1.22712e-07
1.25374e-07
1.28077e-07
1.30823e-07
1.3361e-07
1.36439e-07
1.3931e-07
1.42222e-07
1.45175e-07
1.48169e-07
1.51204e-07
1.54279e-07
1.57395e-07
1.60551e-07
1.63747e-07
1.66981e-07
1.70253e-07
1.7356e-07
1.769e-07
1.8027e-07
1.83667e-07
1.87088e-07
1.90533e-07
1.93999e-07
1.97484e-07
2.00986e-07
2.04502e-07
2.0803e-07
2.11567e-07
2.15111e-07
2.18658e-07
2.22204e-07
2.25747e-07
2.29281e-07
2.32802e-07
2.36306e-07
2.39788e-07
2.43246e-07
2.46674e-07
2.50068e-07
2.53427e-07
2.5674e-07
2.60023e-07
2.6325e-07
2.66414e-07
2.69309e-07
2.71341e-07
2.67689e-07
1.85452e-10
1.83793e-10
1.823e-10
1.80973e-10
1.79816e-10
1.78825e-10
1.78e-10
1.77344e-10
1.76884e-10
1.76714e-10
1.76752e-10
1.76886e-10
1.77184e-10
1.77705e-10
5.77705e-09
5.96266e-09
6.15414e-09
6.35252e-09
6.56197e-09
6.77724e-09
6.99815e-09
7.22492e-09
7.45774e-09
7.6968e-09
7.94228e-09
8.19418e-09
8.45242e-09
8.71716e-09
8.98852e-09
9.26671e-09
9.55193e-09
9.8444e-09
1.01443e-08
1.0452e-08
1.07676e-08
1.10914e-08
1.14237e-08
1.17647e-08
1.21147e-08
1.24741e-08
1.28431e-08
1.32221e-08
1.36114e-08
1.40114e-08
1.44225e-08
1.4845e-08
1.52795e-08
1.57263e-08
1.61858e-08
1.66585e-08
1.71449e-08
1.76453e-08
1.81606e-08
1.86882e-08
1.92269e-08
1.97768e-08
2.0338e-08
2.09104e-08
2.14938e-08
2.20895e-08
2.26992e-08
2.33234e-08
2.39624e-08
2.46166e-08
2.52864e-08
2.59723e-08
2.66745e-08
2.73936e-08
2.813e-08
2.8884e-08
2.96562e-08
3.0447e-08
3.12568e-08
3.20861e-08
3.29354e-08
3.38051e-08
3.46956e-08
3.56073e-08
3.65407e-08
3.7496e-08
3.84737e-08
3.9474e-08
4.04972e-08
4.15435e-08
4.26131e-08
4.3706e-08
4.48224e-08
4.5962e-08
4.7125e-08
4.83117e-08
4.95231e-08
5.076e-08
5.20235e-08
5.33147e-08
5.46349e-08
5.59852e-08
5.7363e-08
5.87682e-08
6.02016e-08
6.16637e-08
6.31553e-08
6.4677e-08
6.62293e-08
6.78128e-08
6.94281e-08
7.10757e-08
7.27561e-08
7.44697e-08
7.6217e-08
7.79984e-08
7.98142e-08
8.16649e-08
8.35505e-08
8.54715e-08
8.74279e-08
8.942e-08
9.14481e-08
9.35123e-08
9.56131e-08
9.77507e-08
9.99252e-08
1.02137e-07
1.04386e-07
1.06673e-07
1.08997e-07
1.11361e-07
1.13763e-07
1.16206e-07
1.1869e-07
1.21216e-07
1.23786e-07
1.26398e-07
1.29054e-07
1.31753e-07
1.34494e-07
1.37276e-07
1.40099e-07
1.42963e-07
1.45867e-07
1.4881e-07
1.51793e-07
1.54813e-07
1.5787e-07
1.60963e-07
1.64089e-07
1.67248e-07
1.70438e-07
1.73656e-07
1.76902e-07
1.80175e-07
1.83473e-07
1.86795e-07
1.90141e-07
1.93508e-07
1.96896e-07
2.00302e-07
2.03725e-07
2.07163e-07
2.10612e-07
2.14072e-07
2.17539e-07
2.2101e-07
2.24482e-07
2.27953e-07
2.3142e-07
2.34879e-07
2.38325e-07
2.41755e-07
2.45164e-07
2.48546e-07
2.51896e-07
2.55207e-07
2.58474e-07
2.6169e-07
2.64849e-07
2.67944e-07
2.70969e-07
2.73917e-07
2.76781e-07
2.79555e-07
2.82233e-07
2.8481e-07
2.87279e-07
2.89636e-07
2.91876e-07
2.93995e-07
2.95991e-07
2.97873e-07
2.9964e-07
3.01289e-07
3.02819e-07
3.04228e-07
3.05513e-07
3.0668e-07
3.0772e-07
3.08643e-07
3.09468e-07
3.10203e-07
3.10851e-07
3.11406e-07
3.11886e-07
3.12309e-07
3.12656e-07
3.12937e-07
3.12503e-07
3.11041e-07
3.06549e-07
3.2669e-10
3.1968e-10
3.13422e-10
3.07927e-10
3.03206e-10
2.99254e-10
2.96041e-10
2.93599e-10
2.92347e-10
2.92377e-10
2.92889e-10
2.94094e-10
2.96289e-10
2.99552e-10
1.45849e-08
1.50003e-08
1.54274e-08
1.58666e-08
1.63177e-08
1.67783e-08
1.72487e-08
1.7729e-08
1.82192e-08
1.87193e-08
1.92293e-08
1.97501e-08
2.02832e-08
2.08288e-08
2.13873e-08
2.1959e-08
2.25443e-08
2.31435e-08
2.3757e-08
2.43852e-08
2.50285e-08
2.56873e-08
2.63619e-08
2.70528e-08
2.77602e-08
2.84847e-08
2.92264e-08
2.99858e-08
3.07632e-08
3.1559e-08
3.23733e-08
3.32064e-08
3.40586e-08
3.493e-08
3.58208e-08
3.67309e-08
3.76603e-08
3.86092e-08
3.95776e-08
4.05662e-08
4.15756e-08
4.26069e-08
4.36607e-08
4.47381e-08
4.58403e-08
4.69671e-08
4.8117e-08
4.92907e-08
5.04889e-08
5.1712e-08
5.29607e-08
5.42355e-08
5.55368e-08
5.68651e-08
5.8221e-08
5.96047e-08
6.10167e-08
6.24573e-08
6.39269e-08
6.54258e-08
6.69542e-08
6.85124e-08
7.01006e-08
7.1719e-08
7.33678e-08
7.5047e-08
7.6757e-08
7.84978e-08
8.02697e-08
8.20728e-08
8.39074e-08
8.57739e-08
8.76726e-08
8.9604e-08
9.1569e-08
9.35683e-08
9.56028e-08
9.76727e-08
9.97783e-08
1.0192e-07
1.04096e-07
1.06308e-07
1.08554e-07
1.10834e-07
1.1315e-07
1.15502e-07
1.17888e-07
1.2031e-07
1.22768e-07
1.25262e-07
1.27791e-07
1.30356e-07
1.32956e-07
1.35592e-07
1.38263e-07
1.40969e-07
1.43711e-07
1.46487e-07
1.49297e-07
1.5214e-07
1.55018e-07
1.57929e-07
1.60873e-07
1.63849e-07
1.66858e-07
1.69898e-07
1.7297e-07
1.76071e-07
1.79202e-07
1.82361e-07
1.85547e-07
1.88759e-07
1.91996e-07
1.95257e-07
1.9854e-07
2.01842e-07
2.05162e-07
2.08498e-07
2.11846e-07
2.15204e-07
2.1857e-07
2.21941e-07
2.25313e-07
2.28684e-07
2.32048e-07
2.35402e-07
2.38743e-07
2.42066e-07
2.45365e-07
2.48638e-07
2.51878e-07
2.5508e-07
2.58238e-07
2.61346e-07
2.644e-07
2.67393e-07
2.70321e-07
2.73179e-07
2.7596e-07
2.78659e-07
2.81269e-07
2.83784e-07
2.86196e-07
2.88499e-07
2.90686e-07
2.9275e-07
2.94687e-07
2.9649e-07
2.98159e-07
2.99702e-07
3.01115e-07
3.02395e-07
3.0354e-07
3.04555e-07
3.05467e-07
3.06278e-07
3.0699e-07
3.07602e-07
3.08117e-07
3.08535e-07
3.08858e-07
3.09088e-07
3.09227e-07
3.09281e-07
3.09265e-07
3.09189e-07
3.09058e-07
3.08879e-07
3.0866e-07
3.08408e-07
3.08131e-07
3.07837e-07
3.07526e-07
3.07177e-07
3.06793e-07
3.06383e-07
3.05955e-07
3.05516e-07
3.05077e-07
3.04641e-07
3.0422e-07
3.03817e-07
3.03385e-07
3.02931e-07
3.02441e-07
3.01947e-07
3.01455e-07
3.00948e-07
3.00463e-07
2.99747e-07
2.9852e-07
2.96294e-07
2.93449e-07
8.86515e-10
8.61981e-10
8.40262e-10
8.21423e-10
8.05576e-10
7.92678e-10
7.82489e-10
7.75702e-10
7.74581e-10
7.7639e-10
7.80568e-10
7.88194e-10
7.99973e-10
3.08391e-08
3.16092e-08
3.23943e-08
3.31965e-08
3.40153e-08
3.48512e-08
3.57047e-08
3.65765e-08
3.74673e-08
3.83779e-08
3.93094e-08
4.02616e-08
4.12336e-08
4.2226e-08
4.32393e-08
4.42741e-08
4.53308e-08
4.64098e-08
4.75117e-08
4.86368e-08
4.97854e-08
5.09581e-08
5.2155e-08
5.33766e-08
5.46229e-08
5.58944e-08
5.71911e-08
5.85133e-08
5.98612e-08
6.1235e-08
6.26349e-08
6.40611e-08
6.55139e-08
6.69935e-08
6.85003e-08
7.00346e-08
7.15969e-08
7.31877e-08
7.48079e-08
7.64582e-08
7.81392e-08
7.98512e-08
8.15943e-08
8.33686e-08
8.5174e-08
8.701e-08
8.88769e-08
9.07749e-08
9.27042e-08
9.4665e-08
9.66575e-08
9.86817e-08
1.00738e-07
1.02825e-07
1.04945e-07
1.07096e-07
1.09279e-07
1.11494e-07
1.1374e-07
1.16017e-07
1.18327e-07
1.20667e-07
1.23039e-07
1.25442e-07
1.27876e-07
1.30342e-07
1.32838e-07
1.35366e-07
1.37925e-07
1.40516e-07
1.43138e-07
1.45791e-07
1.48475e-07
1.5119e-07
1.53935e-07
1.5671e-07
1.59513e-07
1.62345e-07
1.65204e-07
1.68089e-07
1.70999e-07
1.73934e-07
1.76892e-07
1.79873e-07
1.82876e-07
1.85899e-07
1.88942e-07
1.92002e-07
1.95079e-07
1.98172e-07
2.01278e-07
2.04397e-07
2.07527e-07
2.10666e-07
2.13812e-07
2.16964e-07
2.20119e-07
2.23275e-07
2.2643e-07
2.29582e-07
2.32727e-07
2.35864e-07
2.3899e-07
2.42102e-07
2.45197e-07
2.48271e-07
2.51322e-07
2.54345e-07
2.57334e-07
2.60284e-07
2.6319e-07
2.66046e-07
2.68846e-07
2.71584e-07
2.74254e-07
2.76849e-07
2.79364e-07
2.8179e-07
2.84122e-07
2.86351e-07
2.8847e-07
2.90471e-07
2.92346e-07
2.94087e-07
2.95689e-07
2.97153e-07
2.98481e-07
2.9967e-07
3.00728e-07
3.01682e-07
3.02532e-07
3.03281e-07
3.03928e-07
3.04475e-07
3.04925e-07
3.0528e-07
3.05542e-07
3.05713e-07
3.05797e-07
3.05796e-07
3.05714e-07
3.05565e-07
3.05363e-07
3.05113e-07
3.04821e-07
3.04498e-07
3.0415e-07
3.03788e-07
3.03407e-07
3.0299e-07
3.02546e-07
3.02082e-07