/*--------------------------------*- C++ -*----------------------------------*\
| =========                 |                                                 |
| \\      /  F ield         | OpenFOAM: The Open Source CFD Toolbox           |
|  \\    /   O peration     | Version:  v1706                                 |
|   \\  /    A nd           | Web:      www.OpenFOAM.com                      |
|    \\/     M anipulation  |                                                 |
\*---------------------------------------------------------------------------*/
FoamFile
{
    version     2.0;
    format      ascii;
    class       volScalarField;
    location    "3e-06";
    object      kappatr;
}
// * * * * * * * * * * * * * * * * * * * * * * * * * * * * * * * * * * * * * //

dimensions      [1 1 -3 -1 0 0 0];


internalField   nonuniform List<scalar> 
30104
(
0.014593
0.014593
0.014593
0.014593
0.014593
0.014593
0.014593
0.014593
0.014593
0.014593
0.014593
0.014593
0.014593
0.014593
0.014593
0.014593
0.014593
0.014593
0.014593
0.014593
0.014593
0.014593
0.014593
0.014593
0.014593
0.014593
0.014593
0.014593
0.014593
0.014593
0.014593
0.014593
0.014593
0.014593
0.014593
0.014593
0.014593
0.014593
0.014593
0.014593
0.014593
0.014593
0.014593
0.014593
0.014593
0.014593
0.014593
0.014593
0.014593
0.014593
0.014593
0.014593
0.014593
0.014593
0.014593
0.014593
0.014593
0.014593
0.014593
0.014593
0.014593
0.014593
0.014593
0.014593
0.014593
0.014593
0.014593
0.014593
0.014593
0.014593
0.014593
0.0145931
0.0145931
0.0145931
0.0145931
0.0145931
0.0145931
0.0145931
0.0145931
0.0145931
0.0145931
0.0145931
0.0145931
0.0145931
0.0145931
0.0145931
0.0145931
0.0145931
0.0145931
0.0145931
0.0145931
0.0145931
0.0145931
0.0145931
0.0145931
0.0145931
0.0145931
0.0145931
0.0145931
0.0145931
0.0145931
0.0145931
0.0145931
0.0145931
0.0145931
0.0145931
0.0145931
0.0145931
0.0145931
0.0145931
0.0145931
0.0145932
0.0145932
0.0145932
0.0145932
0.0145932
0.0145932
0.0145932
0.0145932
0.0145932
0.0145932
0.0145932
0.0145932
0.0145932
0.0145932
0.0145932
0.0145932
0.0145932
0.0145932
0.0145932
0.0145933
0.0145933
0.0145933
0.0145933
0.0145933
0.0145933
0.0145933
0.0145933
0.0145933
0.0145933
0.0145933
0.0145934
0.0145934
0.0145934
0.0145934
0.0145934
0.0145934
0.0145934
0.0145935
0.0145935
0.0145935
0.0145935
0.0145935
0.0145935
0.0145935
0.0145936
0.0145936
0.0145936
0.0145936
0.0145936
0.0145937
0.0145937
0.0145937
0.0145937
0.0145937
0.0145937
0.0145938
0.0145938
0.0145938
0.0145938
0.0145938
0.0145939
0.0145939
0.0145939
0.0145939
0.014594
0.014594
0.014594
0.014594
0.0145941
0.0145941
0.0145941
0.0145942
0.0145942
0.0145942
0.0145943
0.0145943
0.0145944
0.0145944
0.0145944
0.0145945
0.0145945
0.0145946
0.0145946
0.0145947
0.0145947
0.0145948
0.0145949
0.0145949
0.014595
0.014595
0.0145951
0.0145952
0.0145952
0.0145953
0.0145954
0.0145955
0.0145955
0.0145956
0.0145953
0.014593
0.014593
0.014593
0.014593
0.014593
0.014593
0.014593
0.014593
0.014593
0.014593
0.014593
0.014593
0.014593
0.014593
0.014593
0.014593
0.014593
0.0145931
0.0145932
0.0145932
0.0145932
0.0145932
0.0145932
0.0145932
0.0145932
0.0145932
0.0145932
0.0145932
0.0145932
0.0145932
0.0145932
0.0145932
0.0145932
0.0145932
0.0145932
0.0145932
0.0145933
0.0145933
0.0145933
0.0145933
0.0145933
0.0145933
0.0145933
0.0145933
0.0145933
0.0145933
0.0145933
0.0145934
0.0145934
0.0145934
0.0145934
0.0145934
0.0145934
0.0145934
0.0145934
0.0145934
0.0145935
0.0145935
0.0145935
0.0145935
0.0145935
0.0145935
0.0145936
0.0145936
0.0145936
0.0145936
0.0145936
0.0145936
0.0145937
0.0145937
0.0145937
0.0145937
0.0145937
0.0145938
0.0145938
0.0145938
0.0145938
0.0145939
0.0145939
0.0145939
0.014594
0.014594
0.014594
0.0145941
0.0145941
0.0145941
0.0145942
0.0145942
0.0145942
0.0145943
0.0145943
0.0145944
0.0145944
0.0145945
0.0145945
0.0145946
0.0145946
0.0145947
0.0145947
0.0145948
0.0145948
0.0145949
0.014595
0.014595
0.0145951
0.0145952
0.0145952
0.0145953
0.0145954
0.0145954
0.0145955
0.0145956
0.0145957
0.0145958
0.0145959
0.014596
0.014596
0.0145961
0.0145962
0.0145963
0.0145964
0.0145965
0.0145967
0.0145968
0.0145969
0.014597
0.0145971
0.0145973
0.0145974
0.0145975
0.0145977
0.0145978
0.014598
0.0145981
0.0145983
0.0145985
0.0145987
0.0145988
0.014599
0.0145992
0.0145994
0.0145997
0.0145999
0.0146001
0.0146004
0.0146006
0.0146009
0.0146011
0.0146014
0.0146017
0.014602
0.0146023
0.0146026
0.0146029
0.0146032
0.0146036
0.0146039
0.0146043
0.0146046
0.014605
0.0146054
0.0146058
0.0146062
0.0146066
0.014607
0.0146074
0.0146079
0.0146083
0.0146088
0.0146093
0.0146098
0.0146103
0.0146108
0.0146113
0.0146119
0.0146125
0.014613
0.0146136
0.0146143
0.0146149
0.0146156
0.0146163
0.014617
0.0146178
0.0146186
0.0146194
0.0146202
0.0146211
0.014622
0.0146229
0.0146239
0.014625
0.014626
0.0146272
0.0146283
0.0146295
0.0146308
0.0146321
0.0146335
0.0146349
0.0146364
0.0146379
0.0146395
0.0146412
0.0146429
0.0146447
0.0146466
0.0146485
0.0146507
0.0146479
0.0145931
0.0145931
0.0145931
0.0145931
0.014593
0.014593
0.014593
0.014593
0.014593
0.014593
0.014593
0.014593
0.014593
0.014593
0.014593
0.014593
0.014594
0.0145941
0.0145941
0.0145941
0.0145942
0.0145942
0.0145942
0.0145943
0.0145943
0.0145944
0.0145944
0.0145944
0.0145945
0.0145945
0.0145946
0.0145946
0.0145947
0.0145947
0.0145948
0.0145949
0.0145949
0.014595
0.014595
0.0145951
0.0145952
0.0145952
0.0145953
0.0145954
0.0145955
0.0145956
0.0145956
0.0145957
0.0145958
0.0145959
0.014596
0.0145961
0.0145962
0.0145963
0.0145965
0.0145966
0.0145967
0.0145968
0.014597
0.0145971
0.0145972
0.0145974
0.0145975
0.0145977
0.0145978
0.014598
0.0145982
0.0145984
0.0145985
0.0145987
0.0145989
0.0145991
0.0145993
0.0145995
0.0145997
0.0146
0.0146002
0.0146004
0.0146007
0.0146009
0.0146012
0.0146015
0.0146017
0.014602
0.0146023
0.0146026
0.014603
0.0146033
0.0146036
0.014604
0.0146044
0.0146048
0.0146052
0.0146056
0.014606
0.0146065
0.0146069
0.0146074
0.0146079
0.0146084
0.014609
0.0146095
0.0146101
0.0146107
0.0146113
0.014612
0.0146126
0.0146133
0.014614
0.0146147
0.0146155
0.0146163
0.0146171
0.0146179
0.0146187
0.0146196
0.0146205
0.0146214
0.0146224
0.0146234
0.0146244
0.0146254
0.0146265
0.0146276
0.0146288
0.0146299
0.0146312
0.0146324
0.0146337
0.0146351
0.0146365
0.0146379
0.0146394
0.014641
0.0146426
0.0146443
0.0146461
0.0146479
0.0146499
0.0146519
0.0146539
0.0146561
0.0146584
0.0146608
0.0146632
0.0146658
0.0146685
0.0146713
0.0146743
0.0146773
0.0146805
0.0146838
0.0146873
0.0146909
0.0146946
0.0146985
0.0147025
0.0147066
0.0147109
0.0147153
0.0147199
0.0147247
0.0147296
0.0147346
0.0147398
0.0147451
0.0147506
0.0147562
0.014762
0.0147679
0.0147739
0.01478
0.0147863
0.0147927
0.0147992
0.0148059
0.0148127
0.0148196
0.0148266
0.0148338
0.0148412
0.0148487
0.0148564
0.0148643
0.0148723
0.0148806
0.0148891
0.0148979
0.014907
0.0149164
0.0149261
0.0149361
0.0149466
0.0149575
0.0149688
0.0149807
0.014993
0.0150059
0.0150194
0.0150335
0.0150483
0.0150638
0.01508
0.015097
0.0151147
0.0151335
0.0151529
0.0151786
0.0151625
0.0145933
0.0145933
0.0145932
0.0145932
0.0145932
0.0145932
0.0145932
0.0145932
0.0145932
0.0145932
0.0145932
0.0145932
0.0145932
0.0145932
0.0145932
0.0145932
0.0145996
0.0145998
0.0146
0.0146003
0.0146005
0.0146008
0.0146011
0.0146014
0.0146016
0.0146019
0.0146023
0.0146026
0.0146029
0.0146033
0.0146036
0.014604
0.0146044
0.0146048
0.0146052
0.0146056
0.014606
0.0146065
0.0146069
0.0146074
0.0146079
0.0146084
0.0146089
0.0146095
0.0146101
0.0146106
0.0146113
0.0146119
0.0146125
0.0146132
0.0146139
0.0146147
0.0146154
0.0146162
0.0146171
0.0146179
0.0146188
0.0146197
0.0146207
0.0146217
0.0146227
0.0146238
0.0146249
0.0146261
0.0146273
0.0146285
0.0146298
0.0146311
0.0146325
0.0146339
0.0146354
0.0146369
0.0146384
0.0146401
0.0146417
0.0146435
0.0146452
0.0146471
0.014649
0.0146509
0.0146529
0.014655
0.0146572
0.0146594
0.0146618
0.0146642
0.0146666
0.0146692
0.0146719
0.0146747
0.0146776
0.0146806
0.0146838
0.014687
0.0146904
0.014694
0.0146977
0.0147016
0.0147056
0.0147099
0.0147143
0.0147189
0.0147237
0.0147287
0.0147339
0.0147394
0.0147451
0.014751
0.0147572
0.0147637
0.0147703
0.0147773
0.0147845
0.014792
0.0147998
0.0148078
0.0148161
0.0148247
0.0148335
0.0148426
0.014852
0.0148617
0.0148717
0.0148819
0.0148923
0.0149031
0.0149141
0.0149254
0.0149369
0.0149488
0.0149609
0.0149733
0.014986
0.0149991
0.0150125
0.0150263
0.0150406
0.0150552
0.0150704
0.015086
0.0151023
0.0151191
0.0151367
0.0151549
0.015174
0.0151938
0.0152146
0.0152364
0.0152592
0.0152831
0.0153081
0.0153344
0.0153618
0.0153907
0.0154209
0.0154525
0.0154857
0.0155205
0.0155569
0.015595
0.0156349
0.0156766
0.01572
0.0157654
0.0158125
0.0158616
0.0159124
0.0159651
0.0160196
0.0160758
0.0161337
0.0161932
0.0162542
0.0163166
0.0163805
0.0164455
0.0165118
0.016579
0.0166472
0.0167163
0.016786
0.0168565
0.0169275
0.0169991
0.0170712
0.0171437
0.0172167
0.0172902
0.0173642
0.0174388
0.017514
0.01759
0.0176669
0.0177449
0.0178241
0.0179047
0.0179869
0.018071
0.0181571
0.0182457
0.0183368
0.0184311
0.0185282
0.0186298
0.0187341
0.0188448
0.0189563
0.0191149
0.0190493
0.0145943
0.0145942
0.0145942
0.0145941
0.0145941
0.014594
0.014594
0.014594
0.0145939
0.0145939
0.0145939
0.0145939
0.0145939
0.0145939
0.0145939
0.0146338
0.0146353
0.0146368
0.0146384
0.01464
0.0146418
0.0146436
0.0146454
0.0146473
0.0146493
0.0146514
0.0146536
0.0146558
0.0146581
0.0146605
0.014663
0.0146656
0.0146682
0.014671
0.0146738
0.0146768
0.0146798
0.014683
0.0146862
0.0146896
0.0146931
0.0146967
0.0147005
0.0147043
0.0147084
0.0147125
0.0147169
0.0147214
0.0147261
0.0147309
0.014736
0.0147413
0.0147468
0.0147525
0.0147585
0.0147647
0.0147712
0.014778
0.0147851
0.0147925
0.0148003
0.0148083
0.0148167
0.0148255
0.0148347
0.0148442
0.0148542
0.0148645
0.0148753
0.0148865
0.0148982
0.0149102
0.0149228
0.0149357
0.0149492
0.0149631
0.0149774
0.0149922
0.0150075
0.0150232
0.0150394
0.0150561
0.0150732
0.0150908
0.0151089
0.0151275
0.0151466
0.0151663
0.0151865
0.0152073
0.0152287
0.0152508
0.0152736
0.0152971
0.0153215
0.0153467
0.015373
0.0154002
0.0154285
0.0154581
0.0154889
0.0155211
0.0155548
0.0155901
0.015627
0.0156657
0.0157062
0.0157487
0.0157933
0.01584
0.0158889
0.0159401
0.0159937
0.0160497
0.0161082
0.0161693
0.0162329
0.016299
0.0163677
0.0164389
0.0165126
0.0165887
0.0166672
0.016748
0.0168308
0.0169157
0.0170025
0.0170909
0.017181
0.0172725
0.0173653
0.0174593
0.0175544
0.0176505
0.0177476
0.0178456
0.0179445
0.0180443
0.0181451
0.0182469
0.01835
0.0184544
0.0185604
0.0186683
0.0187782
0.0188906
0.0190057
0.019124
0.0192457
0.0193714
0.0195014
0.0196362
0.0197764
0.0199225
0.0200751
0.0202349
0.0204026
0.0205788
0.0207643
0.0209597
0.0211658
0.0213832
0.0216125
0.0218544
0.0221094
0.022378
0.0226606
0.0229574
0.0232685
0.0235938
0.0239329
0.0242856
0.0246511
0.0250284
0.0254167
0.0258149
0.0262217
0.0266358
0.0270559
0.0274806
0.0279082
0.0283374
0.0287666
0.0291946
0.0296199
0.0300413
0.0304576
0.0308678
0.0312712
0.0316668
0.032054
0.0324324
0.0328015
0.0331611
0.033511
0.0338507
0.034181
0.0345007
0.0348115
0.0351117
0.035404
0.0356849
0.035961
0.0362221
0.0364866
0.0367193
0.0370667
0.0370135
0.0145991
0.0145989
0.0145986
0.0145984
0.0145982
0.014598
0.0145978
0.0145977
0.0145976
0.0145975
0.0145974
0.0145974
0.0145974
0.0145974
0.0145974
0.0145975
0.0148374
0.0148466
0.0148562
0.0148663
0.0148768
0.0148877
0.0148991
0.0149109
0.0149233
0.0149363
0.0149497
0.0149638
0.0149784
0.0149937
0.0150095
0.015026
0.0150432
0.015061
0.0150795
0.0150986
0.0151185
0.0151391
0.0151604
0.0151824
0.0152051
0.0152285
0.0152528
0.0152777
0.0153034
0.0153299
0.0153572
0.0153853
0.0154142
0.0154441
0.0154748
0.0155065
0.0155392
0.0155731
0.015608
0.0156442
0.0156818
0.0157207
0.0157612
0.0158032
0.015847
0.0158927
0.0159403
0.01599
0.016042
0.0160963
0.016153
0.0162124
0.0162744
0.0163393
0.016407
0.0164778
0.0165516
0.0166286
0.0167087
0.016792
0.0168785
0.0169682
0.0170611
0.0171571
0.017256
0.0173579
0.0174625
0.0175698
0.0176795
0.0177916
0.0179058
0.018022
0.0181401
0.0182598
0.0183812
0.018504
0.0186283
0.0187539
0.018881
0.0190095
0.0191396
0.0192714
0.0194051
0.019541
0.0196793
0.0198205
0.0199648
0.0201129
0.0202652
0.0204221
0.0205844
0.0207526
0.0209274
0.0211094
0.0212993
0.0214979
0.021706
0.0219242
0.0221532
0.0223939
0.0226468
0.0229127
0.0231919
0.0234852
0.0237927
0.0241149
0.0244517
0.0248031
0.0251685
0.0255475
0.0259392
0.0263427
0.0267567
0.0271798
0.0276105
0.0280474
0.0284889
0.0289335
0.0293794
0.029825
0.0302686
0.0307088
0.0311441
0.0315731
0.0319947
0.0324078
0.0328114
0.033205
0.033588
0.0339599
0.0343204
0.0346694
0.0350067
0.0353324
0.0356467
0.0359497
0.036242
0.036524
0.0367963
0.0370595
0.0373144
0.0375616
0.0378018
0.0380355
0.0382634
0.0384862
0.0387045
0.0389188
0.0391297
0.0393377
0.0395435
0.0397475
0.0399503
0.0401522
0.0403536
0.0405553
0.0407583
0.0409665
0.0412012
0.0414394
0.0416746
0.0419075
0.0421389
0.0423695
0.0425998
0.0428286
0.0430539
0.043276
0.043495
0.043711
0.0439244
0.0441355
0.0443443
0.0445515
0.0447574
0.0449625
0.0451672
0.0453718
0.0455764
0.0457814
0.045987
0.0461934
0.0464008
0.0466096
0.0468195
0.047031
0.0472439
0.0474586
0.0476745
0.0478941
0.048103
0.048419
0.048369
0.0146208
0.0146196
0.0146185
0.0146175
0.0146166
0.0146158
0.0146152
0.0146146
0.0146142
0.0146138
0.0146137
0.0146136
0.0146137
0.0159797
0.0160295
0.0160811
0.0161345
0.01619
0.0162475
0.0163072
0.0163693
0.0164339
0.0165012
0.0165712
0.0166441
0.0167201
0.0167992
0.0168817
0.0169675
0.0170569
0.0171499
0.0172466
0.0173469
0.0174511
0.017559
0.0176707
0.017786
0.017905
0.0180276
0.0181535
0.0182828
0.0184151
0.0185505
0.0186886
0.0188294
0.0189726
0.0191181
0.0192658
0.0194156
0.0195674
0.0197212
0.019877
0.0200348
0.0201949
0.0203573
0.0205223
0.0206902
0.0208614
0.0210362
0.0212151
0.0213986
0.0215873
0.0217818
0.0219828
0.0221909
0.0224068
0.0226312
0.022865
0.0231087
0.023363
0.0236287
0.0239064
0.0241966
0.0244998
0.0248164
0.0251465
0.0254904
0.0258479
0.0262186
0.0266022
0.026998
0.0274051
0.0278223
0.0282483
0.0286816
0.0291207
0.0295637
0.030009
0.0304548
0.0308997
0.031342
0.0317802
0.0322127
0.0326381
0.0330553
0.0334631
0.0338608
0.0342475
0.0346226
0.0349859
0.035337
0.0356761
0.0360031
0.0363184
0.0366223
0.0369153
0.0371978
0.0374705
0.0377339
0.037989
0.0382361
0.0384761
0.0387096
0.0389372
0.0391596
0.0393773
0.039591
0.039801
0.040008
0.0402122
0.040414
0.0406137
0.0408115
0.0410078
0.0412029
0.0413972
0.0415921
0.0417981
0.0420221
0.0422423
0.0424588
0.0426725
0.042884
0.0430943
0.0433026
0.0435073
0.0437084
0.0439063
0.0441016
0.0442946
0.0444858
0.0446757
0.044865
0.0450543
0.0452437
0.0454336
0.0456242
0.0458159
0.0460088
0.0462031
0.046399
0.0465966
0.046796
0.0469973
0.0472006
0.0474058
0.0476129
0.0478219
0.048033
0.0482459
0.0484606
0.048677
0.0488951
0.0491149
0.0493363
0.0495593
0.0497838
0.0500097
0.0502366
0.0504642
0.0506898
0.0508958
0.0510923
0.0512844
0.0514715
0.0516533
0.0518294
0.0519991
0.0521662
0.0523356
0.0525073
0.0526816
0.0528584
0.053038
0.0532203
0.0534056
0.0535938
0.0537849
0.0539791
0.0541763
0.0543764
0.0545794
0.0547852
0.0549937
0.0552048
0.0554185
0.0556345
0.0558527
0.056073
0.0562956
0.0565189
0.056746
0.0569715
0.057197
0.0574728
0.0573621
0.014717
0.014712
0.0147074
0.0147033
0.0146997
0.0146965
0.0146938
0.0146916
0.01469
0.014689
0.0146888
0.014689
0.0146895
0.0208596
0.021044
0.0212311
0.021421
0.0216139
0.02181
0.0220098
0.0222135
0.0224216
0.0226345
0.0228528
0.023077
0.0233077
0.0235456
0.0237912
0.0240453
0.0243085
0.0245814
0.0248645
0.0251585
0.0254637
0.0257807
0.0261095
0.0264505
0.0268035
0.0271685
0.0275451
0.0279328
0.0283308
0.0287384
0.0291544
0.0295775
0.0300064
0.0304395
0.0308751
0.0313116
0.0317472
0.0321802
0.0326092
0.033033
0.0334503
0.0338598
0.0342604
0.0346512
0.0350315
0.0354005
0.0357579
0.0361033
0.0364368
0.0367583
0.0370682
0.0373666
0.037654
0.037931
0.0381982
0.0384563
0.0387058
0.0389474
0.0391818
0.0394097
0.0396315
0.039848
0.0400595
0.0402665
0.0404693
0.0406684
0.0408639
0.0410561
0.0412453
0.0414317
0.0416155
0.041797
0.0419765
0.0421546
0.042334
0.0425332
0.0427327
0.0429277
0.0431194
0.0433084
0.0434957
0.0436817
0.0438647
0.0440446
0.0442219
0.0443972
0.0445709
0.0447438
0.0449164
0.0450895
0.0452634
0.0454383
0.0456145
0.0457922
0.0459718
0.0461533
0.0463367
0.0465222
0.0467097
0.0468992
0.0470906
0.0472838
0.0474789
0.0476758
0.0478743
0.0480744
0.048276
0.0484791
0.0486836
0.0488893
0.0490962
0.0493043
0.0495133
0.0497226
0.049924
0.0501067
0.0502846
0.0504585
0.0506279
0.0507926
0.050952
0.0511085
0.0512674
0.0514293
0.0515942
0.0517621
0.0519332
0.0521074
0.0522848
0.0524654
0.0526492
0.052836
0.0530257
0.0532182
0.0534132
0.0536108
0.0538106
0.0540125
0.0542162
0.0544217
0.0546287
0.054837
0.0550464
0.0552567
0.0554675
0.0556787
0.05589
0.056101
0.0563115
0.0565211
0.0567295
0.0569363
0.0571411
0.0573435
0.057543
0.0577392
0.0579315
0.0581197
0.0583073
0.0584983
0.0586936
0.0588937
0.0590993
0.0593112
0.0595301
0.0597539
0.0599791
0.0602059
0.0604344
0.0606646
0.0608966
0.0611303
0.0613656
0.0616024
0.0618407
0.0620802
0.0623208
0.0625625
0.062805
0.063048
0.0632916
0.0635354
0.0637793
0.064023
0.0642664
0.064509
0.0647517
0.0649921
0.0652346
0.06547
0.0657078
0.0658808
0.0656283
0.0151465
0.0151249
0.0151051
0.0150873
0.0150714
0.0150575
0.0150456
0.0150359
0.0150284
0.0150235
0.015022
0.0150227
0.0150246
0.0150288
0.0331631
0.0335742
0.0339799
0.0343788
0.0347703
0.0351535
0.0355276
0.0358916
0.0362452
0.0365877
0.036919
0.0372389
0.0375475
0.037845
0.0381315
0.0384076
0.0386736
0.0389301
0.0391777
0.0394169
0.0396485
0.0398728
0.0400906
0.0403022
0.0405081
0.0407088
0.0409045
0.0410956
0.0412822
0.0414647
0.0416433
0.041818
0.0419893
0.0421574
0.0423226
0.0424853
0.042646
0.0428058
0.0429777
0.0431561
0.0433304
0.0435014
0.0436699
0.0438369
0.044003
0.0441679
0.0443306
0.0444915
0.0446512
0.0448102
0.0449692
0.0451287
0.0452893
0.0454512
0.0456145
0.0457794
0.0459462
0.0461148
0.0462853
0.0464576
0.0466317
0.0468077
0.0469853
0.0471645
0.0473451
0.0475272
0.0477106
0.0478952
0.0480811
0.0482681
0.0484561
0.0486451
0.0488351
0.049026
0.0492158
0.0493874
0.0495511
0.0497117
0.0498687
0.050022
0.0501713
0.0503169
0.050464
0.0506143
0.0507678
0.0509245
0.0510844
0.0512477
0.0514142
0.051584
0.0517569
0.0519328
0.0521116
0.0522931
0.0524771
0.0526634
0.052852
0.0530424
0.0532345
0.053428
0.0536227
0.0538183
0.0540145
0.054211
0.0544076
0.0546039
0.0547996
0.0549943
0.0551876
0.0553791
0.0555682
0.0557544
0.0559372
0.0561161
0.0562918
0.0564688
0.0566491
0.0568334
0.0570223
0.0572164
0.0574166
0.0576221
0.0578293
0.058038
0.0582484
0.0584604
0.0586741
0.0588893
0.059106
0.0593241
0.0595434
0.0597639
0.0599853
0.0602074
0.0604302
0.0606535
0.060877
0.0611008
0.0613246
0.0615484
0.061772
0.0619954
0.0622185
0.0624412
0.0626635
0.0628854
0.0631069
0.063328
0.0635487
0.0637693
0.0639898
0.0642104
0.0644313
0.064653
0.0648758
0.0651001
0.0653263
0.0655551
0.0657868
0.0660213
0.0662581
0.0664968
0.0667367
0.0669774
0.0672179
0.0674574
0.0676957
0.0679326
0.0681679
0.0684015
0.0686331
0.0688626
0.0690897
0.0693144
0.0695365
0.0697557
0.0699717
0.0701844
0.0703935
0.0705987
0.0707998
0.0709965
0.0711888
0.0713762
0.0715587
0.0717363
0.071908
0.0720769
0.0722373
0.0723919
0.0725024
0.0724697
0.0720408
0.0167767
0.0167032
0.0166362
0.0165761
0.0165232
0.0164775
0.0164393
0.0164089
0.0163876
0.0163789
0.0163806
0.0163872
0.016402
0.0164271
0.0428805
0.0430252
0.0431682
0.0433131
0.0434728
0.0436297
0.0437834
0.0439348
0.0440848
0.0442339
0.0443831
0.0445318
0.0446794
0.0448263
0.0449729
0.0451197
0.0452674
0.0454162
0.0455664
0.045718
0.0458713
0.0460263
0.0461829
0.0463411
0.0465009
0.0466622
0.0468248
0.0469889
0.0471542
0.0473208
0.0474885
0.0476572
0.0478271
0.047998
0.0481699
0.0483426
0.0485161
0.0486901
0.0488529
0.0490041
0.0491527
0.0492987
0.049442
0.0495825
0.0497197
0.0498563
0.0499959
0.0501387
0.0502847
0.0504338
0.0505862
0.0507417
0.0509003
0.0510618
0.051226
0.0513929
0.0515622
0.0517337
0.0519073
0.0520827
0.0522596
0.052438
0.0526174
0.0527977
0.0529786
0.0531597
0.0533409
0.0535217
0.0537018
0.0538807
0.0540582
0.0542336
0.0544064
0.0545762
0.0547429
0.0549088
0.0550775
0.0552497
0.0554257
0.0556063
0.0557921
0.0559836
0.0561777
0.0563734
0.0565707
0.0567698
0.0569704
0.0571725
0.057376
0.0575808
0.0577866
0.0579934
0.058201
0.0584092
0.0586177
0.0588266
0.0590355
0.0592443
0.0594529
0.0596611
0.0598688
0.0600759
0.0602824
0.0604882
0.0606933
0.0608979
0.0611019
0.0613057
0.0615093
0.0617132
0.0619175
0.0621229
0.0623299
0.0625392
0.0627514
0.0629668
0.0631854
0.0634068
0.0636305
0.0638561
0.064083
0.0643104
0.0645379
0.0647655
0.0649932
0.0652207
0.0654481
0.0656751
0.0659018
0.0661279
0.0663533
0.0665779
0.0668017
0.0670244
0.067246
0.0674664
0.0676856
0.0679034
0.06812
0.0683352
0.0685491
0.0687616
0.0689728
0.0691826
0.0693911
0.0695983
0.0698043
0.0700089
0.0702123
0.0704145
0.0706154
0.0708149
0.071013
0.0712092
0.0714035
0.0715953
0.0717844
0.07197
0.0721517
0.072329
0.0725011
0.0726677
0.0728282
0.0729821
0.0731288
0.0732677
0.0733984
0.0735204
0.0736332
0.0737364
0.0738294
0.0739118
0.0739839
0.0740486
0.0741063
0.0741569
0.0742002
0.0742364
0.074265
0.0742867
0.0743003
0.0743067
0.0743054
0.0742961
0.0742791
0.0742534
0.0742204
0.0741829
0.0741354
0.0740795
0.0739488
0.0737038
0.0732112
0.0214876
0.0213197
0.0211669
0.0210307
0.0209124
0.020813
0.0207319
0.0206707
0.0206418
0.0206451
0.0206624
0.0207018
0.0207674
0.0208615
0.0479336
0.0480913
0.0482498
0.0484066
0.0485479
0.048686
0.0488225
0.0489572
0.0490901
0.0492211
0.0493498
0.0494787
0.0496105
0.0497454
0.0498833
0.0500241
0.0501679
0.0503144
0.0504637
0.0506154
0.0507695
0.0509259
0.0510842
0.0512443
0.051406
0.0515692
0.0517334
0.0518986
0.0520644
0.0522305
0.0523967
0.0525627
0.052728
0.0528922
0.053055
0.0532158
0.0533742
0.0535301
0.0536843
0.0538403
0.0539994
0.0541617
0.0543279
0.0544985
0.0546744
0.0548545
0.0550364
0.0552203
0.0554059
0.0555934
0.0557825
0.0559732
0.0561652
0.0563585
0.0565529
0.0567482
0.0569442
0.0571407
0.0573377
0.0575348
0.057732
0.0579291
0.0581261
0.0583227
0.058519
0.0587149
0.0589103
0.0591055
0.0593004
0.0594954
0.0596905
0.0598862
0.060083
0.0602813
0.0604819
0.0606853
0.0608913
0.0610999
0.0613107
0.0615233
0.0617371
0.0619515
0.0621658
0.06238
0.0625941
0.0628079
0.0630214
0.0632345
0.0634471
0.0636591
0.0638705
0.0640813
0.0642913
0.0645007
0.0647093
0.0649172
0.0651245
0.0653311
0.0655372
0.0657429
0.0659481
0.0661531
0.066358
0.066563
0.0667681
0.0669735
0.0671793
0.0673857
0.0675926
0.0678
0.0680081
0.0682166
0.0684254
0.0686343
0.068843
0.0690511
0.0692582
0.0694641
0.0696683
0.0698707
0.0700711
0.0702694
0.0704655
0.0706592
0.0708504
0.071039
0.071225
0.0714082
0.0715885
0.0717657
0.0719397
0.0721103
0.0722772
0.0724403
0.0725994
0.0727543
0.0729048
0.0730505
0.0731914
0.0733271
0.0734573
0.0735813
0.0736988
0.0738091
0.0739119
0.0740065
0.0740924
0.074169
0.0742373
0.0742996
0.0743559
0.074406
0.0744495
0.0744864
0.0745162
0.0745389
0.0745541
0.0745616
0.0745614
0.0745533
0.0745366
0.0745114
0.0744774
0.0744348
0.0743866
0.0743342
0.0742782
0.0742196
0.0741591
0.0740979
0.074037
0.0739775
0.0739193
0.0738562
0.0737875
0.0737142
0.0736371
0.0735571
0.0734752
0.0733916
0.0733077
0.0732251
0.0731433
0.0730663
0.0729918
0.0729251
0.072868
0.0728155
0.0727707
0.0726912
0.0725551
0.0723077
0.07196
0.0301407
0.0299132
0.0297088
0.0295302
0.0293815
0.0292634
0.0291714
0.0291189
0.0291241
0.0291606
0.0292318
0.0293422
0.0294959
0.0522452
0.0523929
0.0525387
0.0526824
0.0528261
0.0529722
0.0531208
0.0532724
0.0534273
0.0535861
0.0537496
0.0539168
0.0540858
0.0542567
0.0544293
0.0546037
0.0547797
0.0549571
0.0551359
0.0553158
0.0554967
0.0556785
0.055861
0.056044
0.0562274
0.0564111
0.056595
0.0567788
0.0569627
0.0571465
0.0573303
0.0575142
0.0576982
0.0578826
0.0580677
0.0582538
0.0584414
0.0586311
0.0588234
0.0590186
0.0592165
0.0594168
0.0596193
0.0598236
0.060029
0.0602349
0.060441
0.0606473
0.0608536
0.0610598
0.061266
0.0614718
0.0616773
0.0618824
0.0620869
0.0622909
0.0624943
0.062697
0.0628991
0.0631006
0.0633016
0.0635021
0.0637022
0.0639019
0.0641015
0.064301
0.0645007
0.0647005
0.0649007
0.0651013
0.0653025
0.0655043
0.0657066
0.0659094
0.0661124
0.0663153
0.0665179
0.0667199
0.0669211
0.0671212
0.0673202
0.0675181
0.0677147
0.0679101
0.0681042
0.0682971
0.0684886
0.0686788
0.0688678
0.0690554
0.0692417
0.0694268
0.0696106
0.0697932
0.0699745
0.0701547
0.0703335
0.0705112
0.0706875
0.0708626
0.0710363
0.0712086
0.0713794
0.0715488
0.0717166
0.0718827
0.0720468
0.0722088
0.0723682
0.0725248
0.0726782
0.072828
0.072974
0.0731156
0.0732527
0.0733847
0.0735115
0.0736326
0.0737476
0.0738561
0.0739575
0.0740513
0.074137
0.0742141
0.074282
0.0743424
0.0743972
0.0744463
0.0744896
0.0745271
0.0745587
0.0745842
0.0746037
0.0746169
0.0746238
0.0746243
0.0746184
0.0746055
0.0745854
0.074558
0.0745229
0.0744823
0.0744382
0.0743911
0.074342
0.0742917
0.0742411
0.0741913
0.0741403
0.0740824
0.074018
0.0739476
0.0738718
0.0737911
0.0737063
0.0736183
0.0735276
0.0734354
0.0733428
0.0732509
0.0731611
0.0730749
0.0729942
0.0729196
0.072843
0.0727625
0.0726783
0.0725902
0.0724983
0.0724021
0.0723015
0.0721959
0.0720852
0.0719727
0.0718588
0.0717434
0.0716272
0.0715084
0.07139
0.0712677
0.0711462
0.0710209
0.070894
0.0707659
0.0706314
0.0704977
0.0703571
0.0702193
0.0700826
0.0699252
0.0697152
0.0694258
0.0692859
0.0391007
0.039013
0.0389406
0.0388854
0.0388508
0.0388377
0.0388427
0.0388777
0.0389424
0.0390304
0.0391443
0.0392891
0.0394672
0.0570707
0.0572483
0.0574287
0.0576117
0.0577974
0.0579856
0.0581759
0.0583681
0.0585616
0.0587559
0.0589507
0.059146
0.0593416
0.0595376
0.0597337
0.0599299
0.0601262
0.0603224
0.0605185
0.0607146
0.0609105
0.0611063
0.061302
0.0614976
0.0616932
0.0618888
0.0620846
0.0622807
0.0624772
0.0626742
0.0628717
0.06307
0.063269
0.0634688
0.0636692
0.0638701
0.0640713
0.0642725
0.0644734
0.0646738
0.0648734
0.0650721
0.0652697
0.0654662
0.0656617
0.0658559
0.066049
0.0662409
0.0664317
0.0666212
0.0668096
0.0669969
0.0671831
0.0673683
0.0675525
0.0677358
0.0679183
0.0681
0.068281
0.0684613
0.0686408
0.0688198
0.068998
0.0691755
0.0693522
0.0695281
0.0697029
0.0698767
0.0700492
0.0702202
0.0703897
0.0705573
0.0707231
0.0708868
0.0710483
0.0712076
0.0713646
0.0715194
0.0716719
0.0718222
0.0719702
0.0721161
0.0722597
0.072401
0.0725399
0.0726763
0.0728101
0.0729411
0.0730691
0.073194
0.0733155
0.0734334
0.0735472
0.0736568
0.0737618
0.0738616
0.0739556
0.0740434
0.0741243
0.0741977
0.074263
0.0743212
0.0743741
0.0744219
0.0744644
0.0745014
0.0745328
0.0745586
0.0745786
0.0745928
0.074601
0.0746034
0.0745999
0.0745901
0.0745738
0.0745509
0.0745212
0.0744863
0.0744483
0.074408
0.0743662
0.0743239
0.0742822
0.0742377
0.0741864
0.0741288
0.074065
0.0739956
0.073921
0.0738416
0.0737579
0.0736708
0.0735808
0.0734886
0.0733954
0.0733022
0.0732104
0.0731216
0.0730375
0.0729528
0.0728636
0.0727699
0.0726714
0.0725678
0.0724588
0.0723435
0.0722229
0.0720997
0.071974
0.071846
0.0717157
0.0715831
0.0714483
0.0713112
0.0711719
0.0710302
0.0708859
0.0707387
0.0705881
0.0704335
0.070274
0.0701091
0.0699426
0.0697754
0.0696071
0.0694377
0.069267
0.0690951
0.0689221
0.0687481
0.0685735
0.0683984
0.0682225
0.0680458
0.0678683
0.0676891
0.0675097
0.0673276
0.0671454
0.0669605
0.0667742
0.0665869
0.066396
0.0662062
0.0660142
0.0658284
0.0656429
0.0654474
0.0651997
0.0649516
0.065074
0.0430791
0.0430803
0.0430916
0.0431177
0.0431597
0.0432179
0.0432935
0.0433852
0.0434904
0.0436102
0.043746
0.0438952
0.0618789
0.062074
0.0622697
0.0624659
0.0626623
0.0628586
0.0630547
0.0632504
0.0634455
0.06364
0.0638339
0.0640271
0.0642196
0.0644114
0.0646024
0.0647926
0.0649822
0.065171
0.0653591
0.0655466
0.0657334
0.0659197
0.0661053
0.0662905
0.066475
0.0666591
0.0668426
0.0670255
0.0672077
0.0673893
0.0675701
0.06775
0.0679289
0.0681066
0.068283
0.068458
0.0686314
0.0688032
0.0689733
0.0691416
0.0693083
0.0694733
0.0696365
0.0697982
0.0699581
0.0701164
0.0702731
0.0704281
0.0705815
0.0707333
0.0708835
0.071032
0.0711788
0.071324
0.0714674
0.0716091
0.0717489
0.071887
0.0720231
0.0721572
0.0722895
0.0724197
0.0725478
0.0726736
0.072797
0.0729177
0.0730356
0.0731505
0.0732622
0.0733704
0.073475
0.0735756
0.0736722
0.0737643
0.0738517
0.0739338
0.0740103
0.0740806
0.0741442
0.0742007
0.0742511
0.0742971
0.0743388
0.0743759
0.0744085
0.0744364
0.0744596
0.074478
0.0744916
0.0745001
0.0745035
0.0745018
0.0744946
0.0744815
0.0744624
0.0744375
0.0744091
0.074378
0.0743452
0.0743114
0.0742778
0.0742424
0.0742004
0.074152
0.0740974
0.0740368
0.0739707
0.0738993
0.0738231
0.0737426
0.0736586
0.0735715
0.0734821
0.0733915
0.0733008
0.0732114
0.0731249
0.0730377
0.0729457
0.0728486
0.0727461
0.0726377
0.0725227
0.0724023
0.0722788
0.072152
0.0720221
0.071889
0.0717529
0.0716138
0.0714716
0.0713263
0.071178
0.0710264
0.0708714
0.0707125
0.0705494
0.0703811
0.0702069
0.0700291
0.0698496
0.0696682
0.069485
0.0692998
0.0691129
0.0689246
0.0687351
0.0685446
0.0683529
0.06816
0.0679659
0.0677703
0.0675735
0.0673751
0.0671754
0.0669741
0.0667715
0.0665675
0.0663623
0.0661559
0.0659488
0.0657412
0.0655334
0.0653252
0.0651165
0.064907
0.0646965
0.0644848
0.0642716
0.0640564
0.063839
0.0636188
0.0633954
0.0631685
0.0629377
0.0627024
0.062463
0.0622181
0.0619688
0.0617137
0.0614532
0.0611872
0.0609144
0.0606368
0.0603528
0.0600684
0.0597801
0.0594909
0.0591891
0.059012
0.05933
0.0464823
0.0464923
0.0465134
0.0465465
0.0465927
0.0466528
0.0467269
0.0468141
0.0469137
0.0470267
0.0663589
0.0665395
0.0667189
0.0668972
0.0670741
0.0672497
0.0674239
0.0675968
0.0677683
0.0679384
0.0681072
0.0682746
0.0684407
0.0686055
0.0687689
0.068931
0.0690918
0.0692514
0.0694097
0.0695666
0.0697223
0.0698766
0.0700295
0.0701809
0.0703308
0.0704791
0.0706256
0.0707704
0.0709133
0.0710543
0.0711932
0.0713299
0.0714644
0.0715967
0.0717266
0.0718542
0.0719794
0.0721023
0.0722229
0.0723413
0.0724575
0.0725716
0.0726836
0.0727934