/*--------------------------------*- C++ -*----------------------------------*\
| =========                 |                                                 |
| \\      /  F ield         | OpenFOAM: The Open Source CFD Toolbox           |
|  \\    /   O peration     | Version:  v1706                                 |
|   \\  /    A nd           | Web:      www.OpenFOAM.com                      |
|    \\/     M anipulation  |                                                 |
\*---------------------------------------------------------------------------*/
FoamFile
{
    version     2.0;
    format      ascii;
    class       volScalarField;
    location    "3e-06";
    object      Mach;
}
// * * * * * * * * * * * * * * * * * * * * * * * * * * * * * * * * * * * * * //

dimensions      [0 0 0 0 0 0 0];


internalField   nonuniform List<scalar> 
30104
(
11.2859
11.2859
11.2859
11.2859
11.2859
11.2859
11.2859
11.2859
11.2859
11.2859
11.2859
11.2859
11.2859
11.2859
11.2859
11.2859
11.2859
11.2859
11.2859
11.2859
11.2859
11.2859
11.2859
11.2859
11.2859
11.2859
11.2859
11.2859
11.2859
11.2859
11.2859
11.2859
11.2859
11.2858
11.2858
11.2858
11.2858
11.2858
11.2858
11.2858
11.2858
11.2858
11.2858
11.2858
11.2858
11.2858
11.2858
11.2858
11.2858
11.2858
11.2858
11.2858
11.2858
11.2858
11.2858
11.2858
11.2858
11.2858
11.2858
11.2858
11.2858
11.2858
11.2858
11.2858
11.2858
11.2858
11.2858
11.2858
11.2858
11.2858
11.2858
11.2858
11.2858
11.2858
11.2858
11.2858
11.2858
11.2858
11.2858
11.2858
11.2858
11.2858
11.2858
11.2858
11.2858
11.2858
11.2858
11.2858
11.2858
11.2858
11.2858
11.2858
11.2858
11.2858
11.2858
11.2858
11.2858
11.2858
11.2858
11.2858
11.2858
11.2858
11.2858
11.2858
11.2858
11.2858
11.2858
11.2858
11.2858
11.2858
11.2858
11.2858
11.2858
11.2858
11.2858
11.2858
11.2858
11.2858
11.2858
11.2858
11.2858
11.2857
11.2857
11.2857
11.2857
11.2857
11.2857
11.2857
11.2857
11.2857
11.2857
11.2857
11.2857
11.2857
11.2857
11.2857
11.2857
11.2857
11.2857
11.2857
11.2857
11.2857
11.2857
11.2857
11.2857
11.2857
11.2857
11.2856
11.2856
11.2856
11.2856
11.2856
11.2856
11.2856
11.2856
11.2856
11.2856
11.2855
11.2855
11.2855
11.2855
11.2855
11.2855
11.2855
11.2855
11.2854
11.2854
11.2854
11.2854
11.2854
11.2854
11.2854
11.2853
11.2853
11.2853
11.2853
11.2853
11.2853
11.2853
11.2852
11.2852
11.2852
11.2852
11.2852
11.2852
11.2851
11.2851
11.2851
11.2851
11.285
11.285
11.285
11.285
11.2849
11.2849
11.2849
11.2849
11.2848
11.2848
11.2848
11.2847
11.2847
11.2846
11.2846
11.2846
11.2845
11.2845
11.2844
11.2844
11.2845
11.2859
11.2859
11.2859
11.2859
11.2859
11.2859
11.2859
11.2859
11.2859
11.2859
11.2859
11.2859
11.2859
11.2859
11.2859
11.2859
11.2859
11.2858
11.2858
11.2858
11.2858
11.2858
11.2858
11.2858
11.2858
11.2858
11.2858
11.2858
11.2857
11.2857
11.2857
11.2857
11.2857
11.2857
11.2857
11.2857
11.2857
11.2857
11.2857
11.2857
11.2857
11.2857
11.2857
11.2857
11.2857
11.2857
11.2857
11.2857
11.2857
11.2856
11.2856
11.2856
11.2856
11.2856
11.2856
11.2856
11.2856
11.2856
11.2856
11.2856
11.2856
11.2856
11.2855
11.2855
11.2855
11.2855
11.2855
11.2855
11.2855
11.2855
11.2855
11.2854
11.2854
11.2854
11.2854
11.2854
11.2854
11.2854
11.2854
11.2853
11.2853
11.2853
11.2853
11.2853
11.2853
11.2852
11.2852
11.2852
11.2852
11.2852
11.2851
11.2851
11.2851
11.2851
11.2851
11.285
11.285
11.285
11.2849
11.2849
11.2849
11.2848
11.2848
11.2848
11.2847
11.2847
11.2847
11.2846
11.2846
11.2845
11.2845
11.2844
11.2844
11.2843
11.2843
11.2842
11.2842
11.2841
11.2841
11.284
11.2839
11.2839
11.2838
11.2837
11.2837
11.2836
11.2835
11.2835
11.2834
11.2833
11.2832
11.2831
11.283
11.283
11.2829
11.2828
11.2827
11.2826
11.2825
11.2823
11.2822
11.2821
11.282
11.2819
11.2817
11.2816
11.2814
11.2813
11.2811
11.281
11.2808
11.2806
11.2805
11.2803
11.2801
11.2799
11.2797
11.2795
11.2793
11.2791
11.2789
11.2787
11.2784
11.2782
11.278
11.2777
11.2775
11.2772
11.277
11.2767
11.2765
11.2762
11.2759
11.2757
11.2754
11.2751
11.2748
11.2745
11.2742
11.2739
11.2736
11.2732
11.2729
11.2725
11.2722
11.2718
11.2714
11.271
11.2706
11.2701
11.2697
11.2692
11.2686
11.2681
11.2675
11.267
11.2663
11.2657
11.265
11.2643
11.2635
11.2627
11.2619
11.261
11.2601
11.2592
11.2582
11.2571
11.2559
11.2574
11.2858
11.2858
11.2858
11.2858
11.2858
11.2858
11.2858
11.2858
11.2858
11.2858
11.2858
11.2858
11.2858
11.2858
11.2858
11.2858
11.2853
11.2853
11.2852
11.2852
11.2852
11.2852
11.2852
11.2851
11.2851
11.2851
11.2851
11.285
11.285
11.285
11.285
11.2849
11.2849
11.2849
11.2848
11.2848
11.2848
11.2847
11.2847
11.2847
11.2846
11.2846
11.2846
11.2845
11.2845
11.2844
11.2844
11.2843
11.2843
11.2842
11.2842
11.2841
11.2841
11.284
11.284
11.2839
11.2838
11.2838
11.2837
11.2836
11.2835
11.2835
11.2834
11.2833
11.2832
11.2831
11.283
11.2829
11.2828
11.2827
11.2826
11.2825
11.2824
11.2822
11.2821
11.282
11.2818
11.2817
11.2816
11.2814
11.2813
11.2811
11.2809
11.2808
11.2806
11.2804
11.2802
11.28
11.2798
11.2796
11.2794
11.2792
11.279
11.2787
11.2785
11.2783
11.278
11.2777
11.2774
11.2771
11.2768
11.2765
11.2762
11.2759
11.2755
11.2752
11.2748
11.2744
11.274
11.2736
11.2732
11.2727
11.2723
11.2718
11.2713
11.2709
11.2704
11.2698
11.2693
11.2688
11.2682
11.2676
11.2671
11.2665
11.2658
11.2652
11.2646
11.2639
11.2632
11.2625
11.2618
11.2611
11.2603
11.2595
11.2587
11.2578
11.2569
11.256
11.2551
11.2541
11.2531
11.252
11.2508
11.2497
11.2484
11.2471
11.2458
11.2443
11.2428
11.2413
11.2396
11.2379
11.2361
11.2342
11.2323
11.2302
11.2281
11.2259
11.2236
11.2212
11.2187
11.2161
11.2134
11.2106
11.2077
11.2048
11.2017
11.1986
11.1953
11.192
11.1886
11.1851
11.1815
11.1778
11.1741
11.1702
11.1663
11.1624
11.1583
11.1542
11.15
11.1458
11.1414
11.137
11.1325
11.1279
11.1232
11.1185
11.1136
11.1085
11.1033
11.098
11.0925
11.0868
11.0809
11.0747
11.0684
11.0617
11.0547
11.0475
11.0399
11.0319
11.0236
11.0149
11.0058
10.9962
10.9863
10.9732
10.9814
11.2857
11.2857
11.2857
11.2857
11.2857
11.2857
11.2857
11.2857
11.2857
11.2858
11.2858
11.2858
11.2858
11.2858
11.2858
11.2858
11.2822
11.2821
11.282
11.2818
11.2817
11.2815
11.2814
11.2812
11.2811
11.2809
11.2807
11.2806
11.2804
11.2802
11.28
11.2798
11.2795
11.2793
11.2791
11.2788
11.2786
11.2783
11.2781
11.2778
11.2775
11.2772
11.2769
11.2766
11.2763
11.2759
11.2756
11.2752
11.2748
11.2744
11.274
11.2736
11.2732
11.2727
11.2723
11.2718
11.2713
11.2708
11.2702
11.2697
11.2691
11.2685
11.2678
11.2672
11.2665
11.2658
11.2651
11.2644
11.2636
11.2628
11.262
11.2611
11.2602
11.2593
11.2584
11.2574
11.2565
11.2554
11.2544
11.2533
11.2522
11.2511
11.2499
11.2487
11.2474
11.2461
11.2448
11.2434
11.242
11.2406
11.239
11.2375
11.2358
11.2342
11.2324
11.2306
11.2287
11.2267
11.2246
11.2224
11.2202
11.2178
11.2153
11.2128
11.2101
11.2072
11.2043
11.2012
11.1979
11.1945
11.191
11.1873
11.1835
11.1795
11.1753
11.171
11.1665
11.1618
11.157
11.152
11.1469
11.1415
11.136
11.1304
11.1246
11.1186
11.1124
11.1061
11.0997
11.093
11.0863
11.0793
11.0722
11.065
11.0575
11.0499
11.0421
11.0341
11.0259
11.0174
11.0087
10.9997
10.9904
10.9808
10.9708
10.9605
10.9497
10.9385
10.9268
10.9145
10.9018
10.8885
10.8746
10.86
10.8449
10.829
10.8124
10.7951
10.7771
10.7582
10.7386
10.7181
10.6969
10.6749
10.6521
10.6285
10.6041
10.5791
10.5533
10.5269
10.4998
10.4722
10.4441
10.4155
10.3865
10.3572
10.3276
10.2978
10.2678
10.2376
10.2074
10.1771
10.1469
10.1166
10.0865
10.0563
10.0263
9.99636
9.96652
9.93675
9.90701
9.8773
9.84756
9.81776
9.78785
9.75778
9.72751
9.69694
9.66606
9.63472
9.60295
9.57051
9.53758
9.50358
9.4693
9.43312
9.3978
9.34605
9.37836
11.2852
11.2852
11.2852
11.2852
11.2853
11.2853
11.2853
11.2853
11.2853
11.2853
11.2853
11.2854
11.2853
11.2853
11.2853
11.2629
11.262
11.2612
11.2603
11.2593
11.2584
11.2574
11.2563
11.2552
11.2541
11.2529
11.2517
11.2505
11.2492
11.2479
11.2465
11.245
11.2435
11.242
11.2404
11.2388
11.2371
11.2353
11.2335
11.2317
11.2298
11.2278
11.2257
11.2236
11.2214
11.2192
11.2168
11.2144
11.2119
11.2093
11.2066
11.2039
11.201
11.198
11.1948
11.1916
11.1882
11.1846
11.1809
11.1771
11.1731
11.1689
11.1645
11.1599
11.1552
11.1502
11.145
11.1395
11.1339
11.128
11.1218
11.1154
11.1088
11.1019
11.0947
11.0873
11.0796
11.0717
11.0634
11.055
11.0462
11.0372
11.0279
11.0183
11.0085
10.9984
10.9881
10.9774
10.9665
10.9552
10.9437
10.9319
10.9197
10.9071
10.8942
10.8809
10.8672
10.853
10.8383
10.8231
10.8074
10.791
10.774
10.7563
10.7378
10.7186
10.6986
10.6777
10.6559
10.6333
10.6096
10.585
10.5595
10.5329
10.5053
10.4767
10.4471
10.4166
10.3851
10.3527
10.3194
10.2853
10.2504
10.2148
10.1786
10.1419
10.1047
10.0671
10.0291
9.99097
9.95263
9.91416
9.87562
9.83704
9.79847
9.75992
9.7214
9.68291
9.64444
9.60597
9.56746
9.52886
9.49011
9.45114
9.41188
9.37224
9.33215
9.2915
9.25023
9.20822
9.16538
9.1216
9.07676
9.03073
8.98339
8.93459
8.88418
8.83204
8.77804
8.72207
8.66402
8.6038
8.54135
8.47661
8.40955
8.34016
8.26848
8.19459
8.1186
8.04067
7.961
7.8798
7.79734
7.71396
7.62997
7.54566
7.46131
7.3772
7.29357
7.21069
7.1288
7.04811
6.96879
6.891
6.81482
6.74039
6.66779
6.59704
6.52815
6.46118
6.39608
6.33285
6.27143
6.21183
6.15393
6.09783
6.04321
5.99039
5.93879
5.88906
5.84002
5.79354
5.74616
5.7035
5.65668
5.61864
5.56314
5.55258
11.2824
11.2826
11.2827
11.2828
11.283
11.2831
11.2832
11.2832
11.2833
11.2833
11.2834
11.2834
11.2834
11.2834
11.2834
11.2833
11.1512
11.1463
11.1413
11.136
11.1305
11.1248
11.1188
11.1126
11.1062
11.0995
11.0925
11.0851
11.0775
11.0696
11.0614
11.0528
11.0439
11.0346
11.0249
11.0149
11.0045
10.9938
10.9826
10.9711
10.9592
10.9469
10.9342
10.9211
10.9076
10.8937
10.8794
10.8647
10.8495
10.834
10.8179
10.8015
10.7845
10.7671
10.7491
10.7306
10.7115
10.6918
10.6715
10.6505
10.6287
10.6062
10.5829
10.5587
10.5336
10.5076
10.4806
10.4526
10.4235
10.3933
10.3621
10.3297
10.2962
10.2616
10.2258
10.189
10.151
10.1121
10.0722
10.0313
9.98961
9.94712
9.90393
9.86012
9.81578
9.77099
9.72584
9.68041
9.63477
9.58899
9.54312
9.49721
9.45127
9.40534
9.35942
9.31348
9.26751
9.22146
9.17527
9.12888
9.08222
9.03518
8.98768
8.9396
8.89082
8.84123
8.79071
8.73913
8.68636
8.63231
8.57683
8.51983
8.4612
8.40083
8.33866
8.27463
8.20869
8.14081
8.07101
7.99929
7.92574
7.85042
7.77347
7.69507
7.61542
7.53476
7.45335
7.37148
7.28941
7.20747
7.12592
7.04505
6.96512
6.88634
6.8089
6.73298
6.65871
6.58624
6.51563
6.44695
6.38024
6.31552
6.25278
6.19196
6.13305
6.076
6.02075
5.96723
5.91542
5.86523
5.81659
5.76944
5.72368
5.67922
5.63597
5.59384
5.55271
5.51251
5.47314
5.43456
5.39668
5.35944
5.32277
5.28663
5.25094
5.21569
5.18081
5.14624
5.11199
5.07801
5.04428
5.01078
4.97746
4.94412
4.90924
4.8751
4.84234
4.81084
4.78051
4.75133
4.72323
4.69586
4.66892
4.6424
4.61632
4.59067
4.56547
4.54073
4.5164
4.49255
4.46919
4.44635
4.42404
4.40222
4.38089
4.36005
4.33972
4.31986
4.30051
4.2816
4.26321
4.2452
4.22777
4.21051
4.19408
4.17734
4.16243
4.1416
4.1479
11.2704
11.2711
11.2717
11.2722
11.2727
11.2731
11.2735
11.2738
11.274
11.2742
11.2743
11.2743
11.2743
10.5673
10.5429
10.5178
10.4919
10.4653
10.4378
10.4094
10.3801
10.35
10.3188
10.2866
10.2533
10.219
10.1836
10.147
10.1092
10.0703
10.0303
9.98908
9.94673
9.90326
9.85872
9.81316
9.76662
9.71918
9.67091
9.62189
9.57221
9.52196
9.47123
9.4201
9.36866
9.31698
9.26514
9.21318
9.16116
9.1091
9.05702
9.00492
8.95278
8.90057
8.84824
8.79574
8.743
8.68992
8.63642
8.5824
8.52775
8.47235
8.4161
8.35889
8.3006
8.24114
8.18041
8.11833
8.05485
7.98989
7.92345
7.8555
7.78606
7.71517
7.64289
7.56933
7.4946
7.41887
7.3423
7.26513
7.18755
7.10981
7.03216
6.95486
6.87817
6.80233
6.72756
6.65407
6.58206
6.51166
6.443
6.37617
6.31123
6.24824
6.18723
6.12818
6.07107
6.01587
5.96254
5.91098
5.86113
5.8129
5.7662
5.72094
5.67702
5.63436
5.59287
5.55245
5.51302
5.47449
5.43677
5.39982
5.36355
5.32788
5.29278
5.25817
5.224
5.19024
5.15685
5.12378
5.09103
5.0586
5.02647
4.99462
4.96307
4.93179
4.90079
4.86939
4.83731
4.80658
4.77719
4.74901
4.72201
4.69614
4.67113
4.64659
4.62249
4.59883
4.57563
4.55286
4.53048
4.50858
4.48716
4.46627
4.44586
4.42594
4.40651
4.38756
4.3691
4.35111
4.33358
4.31651
4.29986
4.28363
4.2678
4.25235
4.23727
4.22254
4.20815
4.19407
4.18029
4.1668
4.15359
4.14064
4.12792
4.11544
4.10318
4.09113
4.07929
4.06768
4.05637
4.04539
4.03374
4.0213
4.00802
3.9939
3.97891
3.96306
3.94683
3.9308
3.91494
3.89924
3.88368
3.86826
3.85297
3.83781
3.82277
3.80784
3.79302
3.77831
3.76369
3.74916
3.73471
3.72034
3.70602
3.69177
3.67754
3.66338
3.64919
3.63506
3.62087
3.60666
3.59247
3.57826
3.56274
3.56931
11.2174
11.2202
11.2227
11.2249
11.2269
11.2286
11.2301
11.2313
11.2321
11.2327
11.2327
11.2326
11.2323
8.68236
8.62589
8.56938
8.5128
8.45609
8.3992
8.34206
8.28459
8.22672
8.16834
8.10937
8.04973
7.98931
7.92804
7.86585
7.80267
7.73846
7.67317
7.6068
7.53936
7.47087
7.40138
7.33097
7.25976
7.18786
7.11544
7.04265
6.9697
6.89678
6.82411
6.7519
6.68038
6.60975
6.54021
6.47195
6.40514
6.33991
6.2764
6.21467
6.15476
6.09672
6.04056
5.98628
5.93384
5.88321
5.83434
5.78717
5.7416
5.69756
5.65495
5.61367
5.57362
5.53471
5.49686
5.45995
5.42391
5.38867
5.35413
5.32024
5.28693
5.25413
5.22181
5.18992
5.15843
5.12729
5.0965
5.06604
5.03587
5.00602
4.97647
4.94722
4.91827
4.88963
4.86131
4.83326
4.80424
4.77603
4.74915
4.72345
4.69887
4.67537
4.65283
4.63082
4.60921
4.58803
4.56726
4.54684
4.52684
4.50728
4.4882
4.46957
4.45135
4.43357
4.41621
4.39928
4.38276
4.36666
4.35095
4.33563
4.32069
4.30612
4.2919
4.27802
4.26447
4.25123
4.23827
4.22559
4.21317
4.201
4.18906
4.17734
4.16585
4.15459
4.14357
4.13292
4.12218
4.11063
4.09827
4.08507
4.07101
4.05608
4.04061
4.0253
4.01014
3.99512
3.98023
3.96546
3.95081
3.93627
3.92184
3.90753
3.89331
3.87919
3.86515
3.8512
3.83731
3.82349
3.80971
3.79595
3.78222
3.76848
3.75473
3.74095
3.72712
3.71322
3.69924
3.68516
3.67095
3.65661
3.6421
3.62742
3.61253
3.59742
3.58206
3.56643
3.55051
3.53428
3.51772
3.50108
3.48457
3.46824
3.45212
3.43623
3.42062
3.40534
3.39022
3.37502
3.35975
3.34442
3.32901
3.31355
3.29802
3.28242
3.26676
3.25103
3.23522
3.21935
3.20339
3.18735
3.17123
3.15503
3.13874
3.12237
3.10589
3.08934
3.0727
3.05594
3.03918
3.02207
3.00541
2.98794
2.97563
2.98716
10.9875
10.9987
11.009
11.0182
11.0265
11.0337
11.0399
11.0449
11.0488
11.0513
11.0519
11.0513
11.0502
11.0479
6.10083
6.0449
5.99074
5.93838
5.88778
5.83894
5.7918
5.74633
5.70247
5.66015
5.6193
5.57984
5.54167
5.5047
5.46883
5.43397
5.40003
5.36692
5.33455
5.30285
5.27176
5.2412
5.21113
5.1815
5.15227
5.1234
5.09488
5.06667
5.03876
5.01114
4.9838
4.95675
4.92998
4.90346
4.87725
4.8513
4.82565
4.80032
4.77454
4.74887
4.7244
4.70102
4.67865
4.65725
4.63676
4.61691
4.59744
4.57833
4.55958
4.54114
4.52309
4.50544
4.48823
4.47141
4.45498
4.43894
4.42329
4.40803
4.39316
4.37866
4.36454
4.35078
4.33737
4.32428
4.31151
4.29904
4.28687
4.27497
4.26332
4.25192
4.24074
4.22978
4.21904
4.20853
4.19826
4.18833
4.17777
4.16646
4.15437
4.1415
4.12782
4.11343
4.09903
4.0848
4.07069
4.05671
4.04285
4.02909
4.01543
4.00187
3.9884
3.975
3.96166
3.94839
3.93516
3.92196
3.90879
3.89563
3.88245
3.86926
3.85602
3.84273
3.82936
3.8159
3.80233
3.78862
3.77476
3.76072
3.74648
3.73202
3.71732
3.70235
3.6871
3.67153
3.65573
3.63998
3.62439
3.60898
3.59379
3.57886
3.56425
3.54986
3.5354
3.52085
3.50622
3.49152
3.47674
3.46188
3.44692
3.43188
3.41673
3.40148
3.38612
3.37065
3.35505
3.33932
3.32347
3.30747
3.29134
3.27506
3.25864
3.24208
3.22537
3.20853
3.19155
3.17444
3.15722
3.13989
3.12247
3.10497
3.08741
3.06981
3.05218
3.03456
3.01696
2.99942
2.98196
2.96461
2.94738
2.93027
2.91324
2.8963
2.87941
2.86256
2.84573
2.82888
2.81202
2.79513
2.77823
2.76131
2.74437
2.7274
2.71041
2.69339
2.67634
2.65926
2.64215
2.62502
2.60785
2.59066
2.57345
2.55621
2.53895
2.52167
2.50437
2.48704
2.46969
2.45227
2.43477
2.41775
2.40145
2.39372
2.41689
10.2118
10.2441
10.2737
10.3004
10.3239
10.3441
10.3611
10.3746
10.3837
10.3871
10.3852
10.3816
10.3746
10.3626
4.82396
4.80075
4.77779
4.75504
4.73159
4.70904
4.6875
4.66685
4.64705
4.62804
4.6098
4.59208
4.57468
4.55761
4.54082
4.52438
4.50829
4.49257
4.47723
4.46226
4.44765
4.43342
4.41955
4.40604
4.39286
4.38003
4.36753
4.35535
4.34347
4.33188
4.32056
4.3095
4.29869
4.28811
4.27775
4.26759
4.25763
4.24787
4.23847
4.22875
4.21837
4.20731
4.19557
4.18312
4.16995
4.15643
4.14307
4.12984
4.11673
4.10372
4.09082
4.07802
4.0653
4.05265
4.04006
4.02753
4.01505
4.00259
3.99014
3.97769
3.96523
3.95273
3.94017
3.92754
3.91482
3.90198
3.889
3.87587
3.86255
3.84903
3.83527
3.82127
3.80699
3.79241
3.77756
3.76262
3.74779
3.7331
3.71858
3.70427
3.69022
3.67645
3.66267
3.6488
3.63485
3.62083
3.60672
3.59252
3.57824
3.56386
3.54938
3.53479
3.52009
3.50527
3.49033
3.47526
3.46006
3.44473
3.42926
3.41366
3.39792
3.38205
3.36605
3.34993
3.3337
3.31736
3.30092
3.2844
3.26781
3.25116
3.23449
3.21781
3.20115
3.18453
3.16798
3.15149
3.13503
3.11859
3.10215
3.08568
3.06914
3.05252
3.0358
3.01898
3.00206
2.98506
2.96796
2.95078
2.93352
2.91618
2.89877
2.8813
2.86378
2.84621
2.8286
2.81096
2.79331
2.77565
2.75799
2.74035
2.72272
2.70512
2.68756
2.67005
2.65259
2.63519
2.61785
2.60058
2.58339
2.56626
2.5492
2.53221
2.51529
2.49843
2.48164
2.46489
2.44818
2.43149
2.41482
2.39815
2.38147
2.36478
2.34807
2.33133
2.31459
2.29784
2.2811
2.26436
2.24762
2.23089
2.21415
2.19741
2.18066
2.16385
2.14698
2.13004
2.11303
2.09592
2.07876
2.06147
2.04413
2.02665
2.00909
1.99142
1.97362
1.95573
1.93764
1.91939
1.90108
1.88375
1.86875
1.86251
1.89135
8.5112
8.56051
8.60576
8.64636
8.68176
8.7116
8.73579
8.75395
8.76179
8.75828
8.75008
8.73725
8.71557
8.68445
4.30718
4.29774
4.28844
4.27934
4.27051
4.2611
4.25113
4.24059
4.22947
4.21775
4.20542
4.19287
4.18045
4.16815
4.15596
4.14388
4.13188
4.11996
4.10811
4.09632
4.08458
4.07287
4.06117
4.04948
4.03777
4.02602
4.01423
4.00236
3.99039
3.97832
3.9661
3.95372
3.94116
3.92838
3.91538
3.90211
3.88855
3.87475
3.86078
3.84684
3.83299
3.81925
3.80565
3.79223
3.77905
3.766
3.75284
3.73958
3.72623
3.71278
3.69923
3.68557
3.6718
3.65791
3.6439
3.62976
3.61549
3.60109
3.58656
3.57189
3.55709
3.54215
3.52708
3.51189
3.49658
3.48116
3.46564
3.45004
3.43436
3.41863
3.40287
3.38709
3.37132
3.35559
3.33992
3.32432
3.30878
3.29327
3.27777
3.26226
3.2467
3.23107
3.21534
3.1995
3.18356
3.16752
3.15137
3.13511
3.11875
3.10229
3.08572
3.06905
3.05229
3.03544
3.0185
3.00149
2.9844
2.96725
2.95006
2.93282
2.91554
2.89825
2.88094
2.86363
2.84633
2.82905
2.81178
2.79455
2.77736
2.7602
2.74308
2.72601
2.70897
2.69195
2.67496
2.65798
2.64099
2.62401
2.60703
2.59005
2.57307
2.5561
2.53914
2.5222
2.50527
2.48836
2.47147
2.45461
2.43777
2.42096
2.40418
2.38744
2.37073
2.35407
2.33745
2.32087
2.30433
2.28784
2.27139
2.25498
2.23861
2.22228
2.20602
2.18981
2.17365
2.15755
2.14149
2.12547
2.10948
2.09346
2.07741
2.06131
2.04516
2.02894
2.01265
1.99628
1.9798
1.96323
1.94655
1.92974
1.91283
1.89578
1.87861
1.86132
1.84404
1.82684
1.80974
1.79274
1.77588
1.75919
1.74267
1.72635
1.71027
1.69451
1.67909
1.66404
1.6494
1.63513
1.62137
1.60793
1.59508
1.58261
1.57063
1.55929
1.54818
1.53787
1.52785
1.5179
1.50873
1.49891
1.49488
1.49638
1.52657
6.59273
6.6304
6.66424
6.69361
6.71767
6.73613
6.74994
6.75756
6.75238
6.73722
6.72267
6.70031
6.66884
3.98129
3.96882
3.95613
3.94323
3.93024
3.91729
3.90438
3.89155
3.87882
3.86624
3.85384
3.84151
3.82907
3.81652
3.80386
3.79109
3.77821
3.7652
3.75207
3.7388
3.7254
3.71185
3.69817
3.68434
3.67037
3.65626
3.64201
3.62762
3.61311
3.59849
3.58375
3.56893
3.55403
3.53907
3.52407
3.50906
3.49406
3.4791
3.46419
3.44933
3.4345
3.41968
3.40485
3.38999
3.37506
3.36004
3.34492
3.3297
3.31438
3.29896
3.28345
3.26784
3.25214
3.23635
3.22048
3.20453
3.18851
3.17242
3.15628
3.14007
3.12383
3.10754
3.09122
3.07488
3.05851
3.04213
3.02575
3.00936
2.99296
2.97657
2.96017
2.94376
2.92735
2.91091
2.89444
2.87793
2.86136
2.84474
2.82806
2.81133
2.79453
2.77768
2.7608
2.74387
2.72692
2.70994
2.69295
2.67595
2.65896
2.64197
2.62501
2.60807
2.59116
2.5743
2.55748
2.54072
2.52402
2.50739
2.49082
2.47431
2.45788
2.44151
2.42521
2.40897
2.39279
2.37665
2.36056
2.34452
2.32851
2.31253
2.29658
2.28065
2.26475
2.24886
2.23298
2.21712
2.20128
2.18545
2.16963
2.15385
2.1381
2.12239
2.10673
2.09112
2.07555
2.06001
2.04447
2.02893
2.01337
1.9978
1.98221
1.96658
1.95092
1.93522
1.91947
1.90366
1.88778
1.87182
1.85578
1.83964
1.8234
1.80713
1.79091
1.77475
1.75866
1.74266
1.72676
1.71097
1.69534
1.67994
1.66479
1.64991
1.63532
1.62105
1.60712
1.59356
1.58038
1.56761
1.55526
1.54336
1.53192
1.52096
1.5105
1.50051
1.49077
1.48126
1.47197
1.46291
1.45409
1.44549
1.43714
1.42901
1.42112
1.41344
1.40597
1.39869
1.39165
1.38473
1.37811
1.37153
1.3653
1.35912
1.35318
1.34748
1.34179
1.33649
1.33104
1.32579
1.32019
1.31541
1.31584
1.31935
1.34001
5.41703
5.42786
5.43598
5.44114
5.44287
5.44126
5.43701
5.42833
5.41319
5.39664
5.37736
5.35353
5.32601
3.59795
3.58382
3.56972
3.55564
3.54156
3.52747
3.51334
3.49916
3.4849
3.47054
3.45606
3.44148
3.42679
3.412
3.3971
3.38212
3.36704
3.35188
3.33664
3.32133
3.30596
3.29053
3.27506
3.25954
3.244
3.22843
3.21284
3.19725
3.18165
3.16604
3.15044
3.13484
3.11924
3.10363
3.08802
3.07237
3.05669
3.04097
3.02519
3.00935
2.99345
2.97749
2.96146
2.94538
2.92925
2.91307
2.89684
2.88057
2.86426
2.84792
2.83155
2.81516
2.79875
2.78233
2.7659
2.74946
2.73302
2.71658
2.70015
2.68373
2.66732
2.65093
2.63454
2.61818
2.60183
2.5855
2.56919
2.5529
2.53662
2.52037
2.50413
2.48792
2.47173
2.45557
2.43945
2.42337
2.40732
2.39133
2.37539
2.3595
2.34367
2.32789
2.31217
2.2965
2.28088
2.26532
2.24982
2.23437
2.21898
2.20363
2.18834
2.17309
2.15788
2.14272
2.1276
2.11252
2.09749
2.08251
2.06758
2.0527
2.03787
2.02307
2.00828
1.99348
1.97868
1.96387
1.94903
1.93417
1.91928
1.90436
1.88939
1.87437
1.8593
1.84416
1.82895
1.81365
1.79826
1.78283
1.76744
1.75208
1.73678
1.72154
1.70637
1.69132
1.67644
1.66175
1.64726
1.63299
1.61897
1.60521
1.59173
1.57856
1.56572
1.55322
1.54108
1.52934
1.51801
1.5071
1.49664
1.48647
1.47652
1.46678
1.45727
1.448
1.43897
1.43018
1.42163
1.41331
1.40522
1.39736
1.38971
1.38229
1.37509
1.36809
1.3613
1.35472
1.34834
1.34217
1.33619
1.33041
1.32482
1.31945
1.31437
1.30959
1.30511
1.30092
1.29702
1.2934
1.29006
1.28699
1.2842
1.28169
1.27945
1.27748
1.2758
1.27436
1.27324
1.27232
1.27175
1.27137
1.27128
1.27148
1.27182
1.27254
1.27321
1.27408
1.27419
1.27525
1.27853
1.28218
1.28791
4.81711
4.8183
4.81811
4.81604
4.81195
4.80576
4.79717
4.78601
4.77271
4.75739
4.73957
4.71988
3.22395
3.20899
3.19398
3.17893
3.16382
3.14866
3.13344
3.11816
3.10282
3.08744
3.072
3.05653
3.04102
3.02548
3.00991
2.99431
2.97869
2.96306
2.94741
2.93176
2.91609
2.90042
2.88474
2.86905
2.85336
2.83766
2.82196
2.80624
2.79051
2.77477
2.759
2.74322
2.72741
2.71157
2.6957
2.67981
2.66389
2.64795
2.63199
2.61602
2.60005
2.58407
2.5681
2.55214
2.53619
2.52027
2.50438
2.48852
2.4727
2.45693
2.44119
2.42551
2.40988
2.39431
2.3788
2.36334
2.34795
2.33261
2.31732
2.3021
2.28692
2.27179
2.2567
2.24166
2.22667
2.21171
2.1968
2.18193
2.1671
2.15231
2.13756
2.12285
2.10818
2.09356
2.07898
2.06446
2.04999
2.03559
2.02124
2.00697
1.99274
1.97854
1.96435
1.95019
1.93604
1.92189
1.90775
1.89359
1.87943
1.86524
1.85102
1.83676
1.82244
1.80807
1.79362
1.7791
1.76459
1.75009
1.73561
1.72116
1.70674
1.69239
1.67815
1.66404
1.65007
1.63627
1.62265
1.60923
1.59603
1.58307
1.57037
1.55795
1.54582
1.53401
1.52255
1.51145
1.50073
1.4903
1.48005
1.47002
1.46019
1.45059
1.44122
1.43208
1.42316
1.41446
1.40598
1.39773
1.38969
1.38187
1.37427
1.36688
1.3597
1.35273
1.34597
1.33942
1.33307
1.32692
1.32098
1.31531
1.30994
1.30486
1.30007
1.29556
1.29134
1.2874
1.28374
1.28036
1.27725
1.27442
1.27187
1.2696
1.26762
1.26592
1.2645
1.26337
1.26252
1.26196
1.26168
1.26168
1.26196
1.26252
1.26334
1.26442
1.26575
1.26731
1.26909
1.27108
1.27325
1.27559
1.27806
1.28064
1.28331
1.28604
1.28881
1.29158
1.29437
1.29709
1.29983
1.30244
1.30501
1.30748
1.30977
1.31202
1.31391
1.31572
1.31661
1.31792
1.31774
1.31732
1.31436
4.50585
4.50339
4.49986
4.49522
4.48936
4.48221
4.47381
4.46416
4.45328
4.44117
2.85893
2.84372
2.82848
2.81322
2.79793
2.78261
2.76728
2.75194
2.73658
2.72121
2.70584
2.69047
2.67509
2.65971
2.64434
2.62897
2.6136
2.59823
2.58288
2.56752
2.55218
2.53684
2.52151
2.5062
2.49089
2.4756
2.46032
2.44506
2.42983
2.41461
2.39942
2.38427
2.36915
2.35407
2.33903
2.32404
2.30911
2.29423
2.2794
2.26464
2.24993
2.23527
2.22067
2.20613
2.19164
2.17721
2.16283
2.1485
2.13422
2.11999
2.10581
2.09167
2.07758
2.06354
2.04955
2.03561
2.02172
2.0079
1.99413
1.98042
1.96674
1.95309
1.93947
1.92586
1.91227
1.8987
1.88512
1.87155
1.85798
1.84439
1.83079
1.81715
1.80347
1.78974
1.77599
1.76224
1.74852
1.73482
1.72115
1.70749
1.69389
1.68038
1.66696
1.65366
1.64048
1.62744
1.61455
1.60183
1.58929
1.57695
1.56484
1.55296
1.54135
1.53002
1.519
1.50828
1.49773
1.48736
1.47718
1.46718
1.45739
1.44781
1.43843
1.42925
1.42028
1.41152
1.40297
1.39463
1.38651
1.37858
1.37087
1.36336
1.35605
1.34894
1.34203
1.33531
1.32879
1.32251
1.31652
1.31081
1.30537
1.30021
1.29533
1.29071
1.28636
1.28228
1.27847
1.27494
1.27167
1.26868
1.26597
1.26354
1.26139
1.25952
1.25794
1.25665
1.25566
1.25495
1.25455
1.25443
1.25461
1.25508
1.25584
1.25687
1.25819
1.25977
1.26161
1.26371
1.26603
1.26857
1.27131
1.27422
1.27729
1.28047
1.28374
1.28708
1.29045
1.29382
1.29717
1.30047
1.30372
1.30688
1.30993
1.31286
1.31564
1.31826
1.32069
1.32293
1.32497
1.32682
1.32849
1.33001
1.33143
1.33279
1.33419
1.33569
1.3374
1.33922
1.34116
1.34311
1.34506
1.34692
1.34863
1.35023
1.35157
1.35279
1.35351
1.35402
1.35167
1.34703
1.34076
4.21458
4.21116
4.20686
4.20161
4.19536
4.18809
4.17976
4.17034
4.15991
2.50588
2.49106
2.47624
2.46144
2.44666
2.4319
2.41716
2.40245
2.38778
2.37314
2.35853
2.34396
2.32944
2.31496
2.30052
2.28613
2.27179
2.25749
2.24325
2.22905
2.21489
2.20078
2.18671
2.17268
2.1587
2.14477
2.13088
2.11704
2.10324
2.08948
2.07578
2.06212
2.04852
2.03497
2.02149
2.00806
1.99469
1.98139
1.96815
1.95497
1.94182
1.9287
1.91561
1.90255
1.88951
1.87648
1.86346
1.85045
1.83742
1.82438
1.81131
1.79821
1.7851
1.77201
1.75895
1.7459
1.73287
1.71987
1.70688
1.69396
1.68112
1.66836
1.6557
1.64315
1.63072
1.61842
1.60626
1.59427
1.58245
1.57082
1.5594
1.54821
1.53728
1.52656
1.51597
1.50552
1.49522
1.48508
1.47511
1.46532
1.4557
1.44625
1.43698
1.42789
1.41899
1.41028
1.40175
1.39342
1.38527
1.37731
1.36953
1.36194
1.35454
1.34732
1.34029
1.33352
1.327
1.32073
1.31472
1.30897
1.30346
1.29822
1.29322
1.28849
1.28401
1.27979
1.27584
1.27214
1.26872
1.26556
1.26267
1.26006
1.25773
1.25567
1.2539
1.25241
1.25122
1.25031
1.2497
1.24938
1.24936
1.24963
1.25019
1.25105
1.2522
1.25363
1.25534
1.25733
1.25959
1.2621
1.26485
1.26784
1.27103
1.27441
1.27795
1.28162
1.28539
1.28923
1.29311
1.29698
1.30083
1.30461
1.30831
1.31191
1.31539
1.31871
1.32187
1.32484
1.3276
1.33014
1.33245
1.33455
1.33644
1.33816
1.33976
1.34129
1.34283
1.3445
1.34636
1.34834
1.3504
1.35247
1.35449
1.3564
1.35817
1.35977
1.36118
1.3624
1.3634
1.36417
1.36468
1.36487
1.36466
1.36393
1.36255
1.36035
1.35738
1.35363
1.34907
1.34368
1.33746
1.33038
1.32239
1.31347
1.30359
1.29277
1.28072
1.26542
1.24803
1.23885
3.91215
3.90845
2.20655
2.19288
2.17926
2.16569
2.15216
2.13867
2.12523
2.11183
2.09848
2.08516
2.07189
2.05867
2.0455
2.03238
2.0193
2.00628
1.99331
1.9804
1.96755
1.95476
1.94201
1.92929
1.91661
1.90396
1.89133
1.87873
1.86614
1.85356
1.84098
1.8284
1.81579
1.8032
1.79064
1.77811
1.76561
1.75314
1.74069
1.72828
1.71588
1.70354
1.69126
1.67907
1.66696
1.65495
1.64303
1.63123
1.61956
1.60802
1.59663
1.58542
1.57439
1.56357
1.55288
1.5423
1.53183
1.52148
1.51126
1.50117
1.49124
1.48144
1.47179
1.46229
1.45294
1.44374
1.43471
1.42583
1.41711
1.40856
1.40017
1.39194
1.38387
1.37596
1.3682
1.36064
1.35329
1.34616
1.33926
1.33259
1.32615
1.31993
1.31394
1.30818
1.30266
1.29738
1.29233
1.28753
1.28297
1.27866
1.2746
1.27079
1.26725
1.26397
1.26095
1.2582
1.25572
1.25352
1.25159
1.24994
1.24856
1.24747
1.24666
1.24613
1.24589
1.24594
1.24628
1.2469
1.24782
1.24904
1.25054
1.25233
1.25441
1.25677
1.2594
1.26229
1.26543
1.26881
1.2724
1.27619
1.28015
1.28425
1.28846
1.29273
1.29704
1.30134
1.3056
1.30978
1.31386
1.31781
1.32162
1.32526
1.3287
1.33194
1.33494
1.3377
1.34021
1.34248
1.34453
1.34639
1.34811
1.34976
1.35145
1.35326
1.35525
1.35736
1.3595
1.36163
1.36366
1.36557
1.36731
1.36887
1.37025
1.37141
1.37236
1.37305
1.37343
1.37342
1.3729
1.37172
1.36971
1.36693
1.36338
1.35902
1.35386
1.34787
1.34102
1.33327
1.32457
1.31482
1.30395
1.29187
1.27848
1.26371
1.24746
1.22965
1.21023
1.18916
1.16637
1.14179
1.11543
1.08729
1.0574
1.02579
0.992462
0.957546
0.921127
0.883626
0.844993
0.804937
0.768558
0.768092
1.95099
1.93865
1.92634
1.91407
1.90182
1.8896
1.8774
1.86521
1.85303
1.84084
1.82865
1.81649
1.80436
1.79227
1.78021
1.76819
1.7562
1.74424
1.73231
1.72041
1.70858
1.69682
1.68514
1.67354
1.66205
1.65065
1.63937
1.62822
1.6172
1.60634
1.59566
1.58508
1.57458
1.56417
1.55385
1.54363
1.53352
1.52352
1.51364
1.50387
1.49423
1.48471
1.47531
1.46604
1.4569
1.44789
1.43902
1.43027
1.42167
1.41319
1.40484
1.39663
1.38858
1.38071
1.37303
1.36554
1.35824
1.35114
1.34423
1.33752
1.33101
1.32471
1.31861
1.31273
1.30706
1.3016
1.29637
1.29136
1.28658
1.28203
1.27772
1.27366
1.26984
1.26626
1.26294
1.25988
1.25707
1.25452
1.25223
1.25021
1.24844
1.24695
1.24573
1.24478
1.2441
1.2437
1.24359
1.24375
1.2442
1.24494
1.24596
1.24728
1.24889
1.25079
1.25297
1.25544
1.25819
1.26122
1.2645
1.26803
1.2718
1.27578
1.27995
1.28429
1.28875
1.29332
1.29795
1.30261
1.30724
1.31182
1.3163
1.32067
1.32488
1.32893
1.33278
1.33641
1.33981
1.34296
1.34584
1.34845
1.3508
1.35293
1.35486
1.35666
1.35841
1.36023
1.36221
1.36433
1.36651
1.36869
1.3708
1.37279
1.37462
1.37627
1.37773
1.379
1.38004
1.38084
1.38132
1.38142
1.38099
1.37986
1.3779
1.3752
1.37172
1.36747
1.36242
1.35656
1.34984
1.34221
1.33359
1.32388
1.31299
1.3008
1.28721
1.27213
1.25547
1.23718
1.21722
1.19548
1.17189
1.14645
1.11915
1.08998
1.05895
1.02608
0.991416
0.955011
0.916961
0.877388
0.836423
0.794224
0.751028
0.7071
0.662744
0.618272
0.574031
0.530358
0.487628
0.446152
0.40625
0.368192
0.332172
0.298405
0.266991
0.238141