/*--------------------------------*- C++ -*----------------------------------*\
| =========                 |                                                 |
| \\      /  F ield         | OpenFOAM: The Open Source CFD Toolbox           |
|  \\    /   O peration     | Version:  v1706                                 |
|   \\  /    A nd           | Web:      www.OpenFOAM.com                      |
|    \\/     M anipulation  |                                                 |
\*---------------------------------------------------------------------------*/
FoamFile
{
    version     2.0;
    format      ascii;
    class       volScalarField;
    location    "3e-06";
    object      mu;
}
// * * * * * * * * * * * * * * * * * * * * * * * * * * * * * * * * * * * * * //

dimensions      [1 -1 -1 0 0 0 0];


internalField   nonuniform List<scalar> 
30104
(
1.0351e-05
1.0351e-05
1.0351e-05
1.0351e-05
1.0351e-05
1.0351e-05
1.0351e-05
1.0351e-05
1.0351e-05
1.0351e-05
1.0351e-05
1.0351e-05
1.0351e-05
1.0351e-05
1.0351e-05
1.0351e-05
1.0351e-05
1.0351e-05
1.0351e-05
1.0351e-05
1.0351e-05
1.0351e-05
1.0351e-05
1.0351e-05
1.0351e-05
1.0351e-05
1.0351e-05
1.0351e-05
1.0351e-05
1.0351e-05
1.0351e-05
1.0351e-05
1.0351e-05
1.0351e-05
1.0351e-05
1.0351e-05
1.0351e-05
1.0351e-05
1.0351e-05
1.0351e-05
1.0351e-05
1.0351e-05
1.0351e-05
1.0351e-05
1.0351e-05
1.0351e-05
1.0351e-05
1.0351e-05
1.0351e-05
1.0351e-05
1.0351e-05
1.0351e-05
1.0351e-05
1.0351e-05
1.0351e-05
1.0351e-05
1.0351e-05
1.0351e-05
1.0351e-05
1.0351e-05
1.0351e-05
1.0351e-05
1.0351e-05
1.0351e-05
1.0351e-05
1.0351e-05
1.0351e-05
1.0351e-05
1.0351e-05
1.0351e-05
1.0351e-05
1.0351e-05
1.0351e-05
1.0351e-05
1.0351e-05
1.0351e-05
1.0351e-05
1.0351e-05
1.0351e-05
1.0351e-05
1.0351e-05
1.0351e-05
1.0351e-05
1.0351e-05
1.0351e-05
1.0351e-05
1.03511e-05
1.03511e-05
1.03511e-05
1.03511e-05
1.03511e-05
1.03511e-05
1.03511e-05
1.03511e-05
1.03511e-05
1.03511e-05
1.03511e-05
1.03511e-05
1.03511e-05
1.03511e-05
1.03511e-05
1.03511e-05
1.03511e-05
1.03511e-05
1.03511e-05
1.03511e-05
1.03511e-05
1.03511e-05
1.03511e-05
1.03511e-05
1.03511e-05
1.03511e-05
1.03511e-05
1.03511e-05
1.03511e-05
1.03511e-05
1.03511e-05
1.03511e-05
1.03511e-05
1.03511e-05
1.03511e-05
1.03511e-05
1.03511e-05
1.03511e-05
1.03512e-05
1.03512e-05
1.03512e-05
1.03512e-05
1.03512e-05
1.03512e-05
1.03512e-05
1.03512e-05
1.03512e-05
1.03512e-05
1.03512e-05
1.03512e-05
1.03512e-05
1.03512e-05
1.03512e-05
1.03512e-05
1.03512e-05
1.03513e-05
1.03513e-05
1.03513e-05
1.03513e-05
1.03513e-05
1.03513e-05
1.03513e-05
1.03513e-05
1.03513e-05
1.03513e-05
1.03514e-05
1.03514e-05
1.03514e-05
1.03514e-05
1.03514e-05
1.03514e-05
1.03514e-05
1.03514e-05
1.03514e-05
1.03515e-05
1.03515e-05
1.03515e-05
1.03515e-05
1.03515e-05
1.03515e-05
1.03515e-05
1.03516e-05
1.03516e-05
1.03516e-05
1.03516e-05
1.03516e-05
1.03516e-05
1.03516e-05
1.03517e-05
1.03517e-05
1.03517e-05
1.03517e-05
1.03517e-05
1.03518e-05
1.03518e-05
1.03518e-05
1.03518e-05
1.03519e-05
1.03519e-05
1.03519e-05
1.03519e-05
1.0352e-05
1.0352e-05
1.0352e-05
1.03521e-05
1.03521e-05
1.03521e-05
1.03522e-05
1.03522e-05
1.03522e-05
1.03523e-05
1.03523e-05
1.03524e-05
1.03524e-05
1.03524e-05
1.03525e-05
1.03525e-05
1.03526e-05
1.03526e-05
1.03527e-05
1.03527e-05
1.03528e-05
1.03528e-05
1.03526e-05
1.0351e-05
1.0351e-05
1.0351e-05
1.0351e-05
1.0351e-05
1.0351e-05
1.0351e-05
1.0351e-05
1.0351e-05
1.0351e-05
1.0351e-05
1.0351e-05
1.0351e-05
1.0351e-05
1.0351e-05
1.0351e-05
1.0351e-05
1.03511e-05
1.03511e-05
1.03511e-05
1.03511e-05
1.03511e-05
1.03511e-05
1.03511e-05
1.03511e-05
1.03511e-05
1.03511e-05
1.03511e-05
1.03511e-05
1.03511e-05
1.03511e-05
1.03512e-05
1.03512e-05
1.03512e-05
1.03512e-05
1.03512e-05
1.03512e-05
1.03512e-05
1.03512e-05
1.03512e-05
1.03512e-05
1.03512e-05
1.03512e-05
1.03512e-05
1.03512e-05
1.03512e-05
1.03512e-05
1.03512e-05
1.03513e-05
1.03513e-05
1.03513e-05
1.03513e-05
1.03513e-05
1.03513e-05
1.03513e-05
1.03513e-05
1.03513e-05
1.03513e-05
1.03513e-05
1.03514e-05
1.03514e-05
1.03514e-05
1.03514e-05
1.03514e-05
1.03514e-05
1.03514e-05
1.03514e-05
1.03515e-05
1.03515e-05
1.03515e-05
1.03515e-05
1.03515e-05
1.03515e-05
1.03515e-05
1.03516e-05
1.03516e-05
1.03516e-05
1.03516e-05
1.03516e-05
1.03517e-05
1.03517e-05
1.03517e-05
1.03517e-05
1.03517e-05
1.03518e-05
1.03518e-05
1.03518e-05
1.03518e-05
1.03519e-05
1.03519e-05
1.03519e-05
1.0352e-05
1.0352e-05
1.0352e-05
1.03521e-05
1.03521e-05
1.03521e-05
1.03522e-05
1.03522e-05
1.03523e-05
1.03523e-05
1.03523e-05
1.03524e-05
1.03524e-05
1.03525e-05
1.03525e-05
1.03526e-05
1.03526e-05
1.03527e-05
1.03527e-05
1.03528e-05
1.03528e-05
1.03529e-05
1.0353e-05
1.0353e-05
1.03531e-05
1.03532e-05
1.03532e-05
1.03533e-05
1.03534e-05
1.03534e-05
1.03535e-05
1.03536e-05
1.03537e-05
1.03538e-05
1.03538e-05
1.03539e-05
1.0354e-05
1.03541e-05
1.03542e-05
1.03543e-05
1.03544e-05
1.03545e-05
1.03546e-05
1.03548e-05
1.03549e-05
1.0355e-05
1.03551e-05
1.03553e-05
1.03554e-05
1.03556e-05
1.03557e-05
1.03559e-05
1.0356e-05
1.03562e-05
1.03564e-05
1.03566e-05
1.03568e-05
1.0357e-05
1.03572e-05
1.03574e-05
1.03576e-05
1.03578e-05
1.0358e-05
1.03583e-05
1.03585e-05
1.03587e-05
1.0359e-05
1.03592e-05
1.03595e-05
1.03598e-05
1.03601e-05
1.03603e-05
1.03606e-05
1.03609e-05
1.03612e-05
1.03616e-05
1.03619e-05
1.03622e-05
1.03625e-05
1.03629e-05
1.03633e-05
1.03636e-05
1.0364e-05
1.03644e-05
1.03648e-05
1.03652e-05
1.03656e-05
1.03661e-05
1.03666e-05
1.0367e-05
1.03675e-05
1.0368e-05
1.03686e-05
1.03691e-05
1.03697e-05
1.03703e-05
1.03709e-05
1.03716e-05
1.03722e-05
1.03729e-05
1.03737e-05
1.03744e-05
1.03752e-05
1.03761e-05
1.03769e-05
1.03778e-05
1.03787e-05
1.03797e-05
1.03807e-05
1.03818e-05
1.03829e-05
1.0384e-05
1.03852e-05
1.03864e-05
1.03877e-05
1.0389e-05
1.03904e-05
1.0392e-05
1.039e-05
1.0351e-05
1.0351e-05
1.0351e-05
1.0351e-05
1.0351e-05
1.0351e-05
1.0351e-05
1.0351e-05
1.0351e-05
1.0351e-05
1.0351e-05
1.0351e-05
1.0351e-05
1.0351e-05
1.0351e-05
1.0351e-05
1.03517e-05
1.03517e-05
1.03518e-05
1.03518e-05
1.03518e-05
1.03518e-05
1.03519e-05
1.03519e-05
1.03519e-05
1.0352e-05
1.0352e-05
1.0352e-05
1.03521e-05
1.03521e-05
1.03521e-05
1.03522e-05
1.03522e-05
1.03522e-05
1.03523e-05
1.03523e-05
1.03524e-05
1.03524e-05
1.03524e-05
1.03525e-05
1.03525e-05
1.03526e-05
1.03526e-05
1.03527e-05
1.03528e-05
1.03528e-05
1.03529e-05
1.03529e-05
1.0353e-05
1.03531e-05
1.03531e-05
1.03532e-05
1.03533e-05
1.03534e-05
1.03534e-05
1.03535e-05
1.03536e-05
1.03537e-05
1.03538e-05
1.03539e-05
1.0354e-05
1.03541e-05
1.03542e-05
1.03543e-05
1.03544e-05
1.03545e-05
1.03547e-05
1.03548e-05
1.03549e-05
1.03551e-05
1.03552e-05
1.03553e-05
1.03555e-05
1.03556e-05
1.03558e-05
1.03559e-05
1.03561e-05
1.03563e-05
1.03564e-05
1.03566e-05
1.03568e-05
1.0357e-05
1.03572e-05
1.03574e-05
1.03576e-05
1.03578e-05
1.03581e-05
1.03583e-05
1.03585e-05
1.03588e-05
1.03591e-05
1.03593e-05
1.03596e-05
1.03599e-05
1.03602e-05
1.03605e-05
1.03609e-05
1.03612e-05
1.03616e-05
1.03619e-05
1.03623e-05
1.03627e-05
1.03631e-05
1.03636e-05
1.0364e-05
1.03644e-05
1.03649e-05
1.03654e-05
1.03659e-05
1.03664e-05
1.0367e-05
1.03675e-05
1.03681e-05
1.03687e-05
1.03693e-05
1.03699e-05
1.03705e-05
1.03712e-05
1.03718e-05
1.03725e-05
1.03733e-05
1.0374e-05
1.03748e-05
1.03755e-05
1.03764e-05
1.03772e-05
1.03781e-05
1.0379e-05
1.03799e-05
1.03808e-05
1.03818e-05
1.03829e-05
1.03839e-05
1.0385e-05
1.03862e-05
1.03874e-05
1.03887e-05
1.039e-05
1.03913e-05
1.03927e-05
1.03942e-05
1.03958e-05
1.03974e-05
1.03991e-05
1.04008e-05
1.04027e-05
1.04046e-05
1.04066e-05
1.04086e-05
1.04108e-05
1.04131e-05
1.04154e-05
1.04179e-05
1.04204e-05
1.04231e-05
1.04258e-05
1.04286e-05
1.04316e-05
1.04346e-05
1.04378e-05
1.0441e-05
1.04444e-05
1.04479e-05
1.04515e-05
1.04551e-05
1.04589e-05
1.04628e-05
1.04668e-05
1.04709e-05
1.0475e-05
1.04793e-05
1.04837e-05
1.04881e-05
1.04926e-05
1.04973e-05
1.0502e-05
1.05068e-05
1.05117e-05
1.05167e-05
1.05218e-05
1.0527e-05
1.05324e-05
1.05378e-05
1.05434e-05
1.05491e-05
1.0555e-05
1.0561e-05
1.05673e-05
1.05737e-05
1.05804e-05
1.05872e-05
1.05944e-05
1.06018e-05
1.06095e-05
1.06176e-05
1.0626e-05
1.06347e-05
1.06439e-05
1.06534e-05
1.06635e-05
1.06739e-05
1.06849e-05
1.06964e-05
1.07085e-05
1.07211e-05
1.07344e-05
1.07481e-05
1.07664e-05
1.0755e-05
1.03512e-05
1.03512e-05
1.03512e-05
1.03512e-05
1.03512e-05
1.03512e-05
1.03511e-05
1.03511e-05
1.03511e-05
1.03511e-05
1.03511e-05
1.03511e-05
1.03511e-05
1.03511e-05
1.03511e-05
1.03511e-05
1.03557e-05
1.03558e-05
1.0356e-05
1.03562e-05
1.03563e-05
1.03565e-05
1.03567e-05
1.03569e-05
1.03571e-05
1.03573e-05
1.03576e-05
1.03578e-05
1.0358e-05
1.03583e-05
1.03585e-05
1.03588e-05
1.03591e-05
1.03593e-05
1.03596e-05
1.03599e-05
1.03602e-05
1.03605e-05
1.03609e-05
1.03612e-05
1.03616e-05
1.03619e-05
1.03623e-05
1.03627e-05
1.03631e-05
1.03635e-05
1.03639e-05
1.03644e-05
1.03649e-05
1.03653e-05
1.03658e-05
1.03664e-05
1.03669e-05
1.03675e-05
1.03681e-05
1.03687e-05
1.03693e-05
1.037e-05
1.03706e-05
1.03713e-05
1.03721e-05
1.03728e-05
1.03736e-05
1.03745e-05
1.03753e-05
1.03762e-05
1.03771e-05
1.0378e-05
1.0379e-05
1.038e-05
1.0381e-05
1.03821e-05
1.03832e-05
1.03844e-05
1.03856e-05
1.03868e-05
1.0388e-05
1.03893e-05
1.03907e-05
1.03921e-05
1.03935e-05
1.0395e-05
1.03965e-05
1.03981e-05
1.03998e-05
1.04015e-05
1.04032e-05
1.04051e-05
1.0407e-05
1.04089e-05
1.0411e-05
1.04131e-05
1.04154e-05
1.04177e-05
1.04201e-05
1.04226e-05
1.04253e-05
1.0428e-05
1.04309e-05
1.04339e-05
1.0437e-05
1.04403e-05
1.04437e-05
1.04473e-05
1.0451e-05
1.04548e-05
1.04589e-05
1.04631e-05
1.04675e-05
1.0472e-05
1.04768e-05
1.04817e-05
1.04868e-05
1.04921e-05
1.04977e-05
1.05033e-05
1.05092e-05
1.05153e-05
1.05216e-05
1.05281e-05
1.05347e-05
1.05416e-05
1.05486e-05
1.05559e-05
1.05633e-05
1.05709e-05
1.05788e-05
1.05868e-05
1.0595e-05
1.06033e-05
1.06119e-05
1.06208e-05
1.06298e-05
1.06391e-05
1.06486e-05
1.06584e-05
1.06685e-05
1.06789e-05
1.06896e-05
1.07007e-05
1.07122e-05
1.07242e-05
1.07366e-05
1.07496e-05
1.07631e-05
1.07772e-05
1.07919e-05
1.08074e-05
1.08235e-05
1.08405e-05
1.08582e-05
1.08768e-05
1.08964e-05
1.09168e-05
1.09382e-05
1.09607e-05
1.09842e-05
1.10089e-05
1.10347e-05
1.10617e-05
1.109e-05
1.11196e-05
1.11504e-05
1.11826e-05
1.1216e-05
1.12508e-05
1.12869e-05
1.13243e-05
1.13629e-05
1.14028e-05
1.14438e-05
1.1486e-05
1.15293e-05
1.15736e-05
1.16189e-05
1.1665e-05
1.1712e-05
1.17597e-05
1.18081e-05
1.18571e-05
1.19066e-05
1.19565e-05
1.20069e-05
1.20577e-05
1.21088e-05
1.21603e-05
1.2212e-05
1.22641e-05
1.23166e-05
1.23695e-05
1.24229e-05
1.24768e-05
1.25314e-05
1.25867e-05
1.26428e-05
1.27e-05
1.27583e-05
1.2818e-05
1.2879e-05
1.29419e-05
1.30065e-05
1.30734e-05
1.31423e-05
1.32143e-05
1.32883e-05
1.33669e-05
1.3446e-05
1.35585e-05
1.35119e-05
1.03519e-05
1.03519e-05
1.03518e-05
1.03518e-05
1.03518e-05
1.03517e-05
1.03517e-05
1.03517e-05
1.03517e-05
1.03517e-05
1.03516e-05
1.03516e-05
1.03516e-05
1.03516e-05
1.03517e-05
1.03799e-05
1.0381e-05
1.03821e-05
1.03832e-05
1.03844e-05
1.03856e-05
1.03869e-05
1.03882e-05
1.03895e-05
1.0391e-05
1.03924e-05
1.0394e-05
1.03955e-05
1.03972e-05
1.03989e-05
1.04006e-05
1.04025e-05
1.04043e-05
1.04063e-05
1.04083e-05
1.04104e-05
1.04126e-05
1.04148e-05
1.04171e-05
1.04195e-05
1.0422e-05
1.04246e-05
1.04272e-05
1.043e-05
1.04328e-05
1.04358e-05
1.04389e-05
1.04421e-05
1.04454e-05
1.04488e-05
1.04524e-05
1.04562e-05
1.04601e-05
1.04641e-05
1.04684e-05
1.04728e-05
1.04774e-05
1.04822e-05
1.04873e-05
1.04925e-05
1.0498e-05
1.05037e-05
1.05097e-05
1.05159e-05
1.05224e-05
1.05292e-05
1.05363e-05
1.05436e-05
1.05512e-05
1.05592e-05
1.05674e-05
1.0576e-05
1.05849e-05
1.05941e-05
1.06036e-05
1.06135e-05
1.06237e-05
1.06342e-05
1.0645e-05
1.06561e-05
1.06676e-05
1.06794e-05
1.06916e-05
1.07041e-05
1.07169e-05
1.07301e-05
1.07437e-05
1.07576e-05
1.0772e-05
1.07867e-05
1.08019e-05
1.08176e-05
1.08337e-05
1.08504e-05
1.08677e-05
1.08856e-05
1.09042e-05
1.09236e-05
1.09437e-05
1.09646e-05
1.09865e-05
1.10093e-05
1.10332e-05
1.10582e-05
1.10844e-05
1.11118e-05
1.11406e-05
1.11708e-05
1.12024e-05
1.12355e-05
1.12702e-05
1.13065e-05
1.13445e-05
1.13843e-05
1.14258e-05
1.14691e-05
1.15142e-05
1.15611e-05
1.16098e-05
1.16603e-05
1.17126e-05
1.17666e-05
1.18223e-05
1.18795e-05
1.19383e-05
1.19985e-05
1.20601e-05
1.21228e-05
1.21867e-05
1.22516e-05
1.23174e-05
1.23841e-05
1.24516e-05
1.25197e-05
1.25886e-05
1.26581e-05
1.27282e-05
1.2799e-05
1.28705e-05
1.29428e-05
1.30159e-05
1.30899e-05
1.31651e-05
1.32416e-05
1.33196e-05
1.33993e-05
1.3481e-05
1.35649e-05
1.36512e-05
1.37404e-05
1.38326e-05
1.39282e-05
1.40277e-05
1.41313e-05
1.42395e-05
1.43529e-05
1.44718e-05
1.45968e-05
1.47284e-05
1.4867e-05
1.50132e-05
1.51674e-05
1.533e-05
1.55016e-05
1.56825e-05
1.5873e-05
1.60734e-05
1.6284e-05
1.65046e-05
1.67354e-05
1.69759e-05
1.72261e-05
1.74853e-05
1.7753e-05
1.80284e-05
1.83108e-05
1.85994e-05
1.88931e-05
1.91911e-05
1.94923e-05
1.97957e-05
2.01001e-05
2.04045e-05
2.07081e-05
2.10098e-05
2.13086e-05
2.16039e-05
2.18949e-05
2.2181e-05
2.24616e-05
2.27363e-05
2.30047e-05
2.32665e-05
2.35216e-05
2.37698e-05
2.40107e-05
2.4245e-05
2.44718e-05
2.46922e-05
2.49052e-05
2.51125e-05
2.53118e-05
2.55076e-05
2.56928e-05
2.58804e-05
2.60455e-05
2.62919e-05
2.62541e-05
1.03554e-05
1.03552e-05
1.0355e-05
1.03548e-05
1.03547e-05
1.03545e-05
1.03544e-05
1.03543e-05
1.03542e-05
1.03542e-05
1.03541e-05
1.03541e-05
1.03541e-05
1.03541e-05
1.03541e-05
1.03542e-05
1.05243e-05
1.05309e-05
1.05377e-05
1.05448e-05
1.05523e-05
1.056e-05
1.05681e-05
1.05765e-05
1.05853e-05
1.05945e-05
1.0604e-05
1.0614e-05
1.06244e-05
1.06352e-05
1.06464e-05
1.06581e-05
1.06703e-05
1.06829e-05
1.0696e-05
1.07096e-05
1.07237e-05
1.07383e-05
1.07534e-05
1.0769e-05
1.07852e-05
1.08018e-05
1.0819e-05
1.08367e-05
1.08549e-05
1.08737e-05
1.0893e-05
1.0913e-05
1.09335e-05
1.09547e-05
1.09765e-05
1.0999e-05
1.10222e-05
1.10462e-05
1.1071e-05
1.10967e-05
1.11233e-05
1.11509e-05
1.11796e-05
1.12094e-05
1.12405e-05
1.12729e-05
1.13067e-05
1.13419e-05
1.13788e-05
1.14173e-05
1.14575e-05
1.14996e-05
1.15436e-05
1.15896e-05
1.16377e-05
1.16879e-05
1.17403e-05
1.17948e-05
1.18517e-05
1.19108e-05
1.19722e-05
1.20358e-05
1.21017e-05
1.21697e-05
1.22399e-05
1.23122e-05
1.23864e-05
1.24625e-05
1.25403e-05
1.26198e-05
1.27008e-05
1.27832e-05
1.2867e-05
1.29519e-05
1.3038e-05
1.31251e-05
1.32133e-05
1.33024e-05
1.33925e-05
1.34837e-05
1.35759e-05
1.36694e-05
1.37643e-05
1.38606e-05
1.39588e-05
1.40589e-05
1.41613e-05
1.42663e-05
1.43743e-05
1.44857e-05
1.46008e-05
1.47201e-05
1.4844e-05
1.49731e-05
1.51079e-05
1.52487e-05
1.53963e-05
1.55511e-05
1.57136e-05
1.58843e-05
1.60637e-05
1.62522e-05
1.64503e-05
1.66583e-05
1.68765e-05
1.7105e-05
1.73439e-05
1.75931e-05
1.78523e-05
1.81212e-05
1.8399e-05
1.86852e-05
1.89788e-05
1.92789e-05
1.95845e-05
1.98944e-05
2.02076e-05
2.05229e-05
2.08392e-05
2.11552e-05
2.14699e-05
2.17821e-05
2.20909e-05
2.23952e-05
2.26942e-05
2.29872e-05
2.32735e-05
2.35527e-05
2.38244e-05
2.40881e-05
2.43439e-05
2.45914e-05
2.48307e-05
2.50617e-05
2.52846e-05
2.54996e-05
2.57069e-05
2.59069e-05
2.61001e-05
2.62868e-05
2.64676e-05
2.66429e-05
2.68133e-05
2.6979e-05
2.71407e-05
2.72987e-05
2.74536e-05
2.76056e-05
2.77552e-05
2.79028e-05
2.80487e-05
2.81934e-05
2.83372e-05
2.84804e-05
2.86233e-05
2.87664e-05
2.89104e-05
2.90581e-05
2.92245e-05
2.93935e-05
2.95603e-05
2.97255e-05
2.98896e-05
3.00532e-05
3.02166e-05
3.03788e-05
3.05387e-05
3.06962e-05
3.08515e-05
3.10048e-05
3.11561e-05
3.13058e-05
3.1454e-05
3.16009e-05
3.1747e-05
3.18925e-05
3.20377e-05
3.21828e-05
3.23279e-05
3.24733e-05
3.26191e-05
3.27656e-05
3.29127e-05
3.30608e-05
3.32097e-05
3.33597e-05
3.35107e-05
3.3663e-05
3.38162e-05
3.39719e-05
3.41201e-05
3.43442e-05
3.43088e-05
1.03707e-05
1.03699e-05
1.03691e-05
1.03684e-05
1.03678e-05
1.03672e-05
1.03667e-05
1.03663e-05
1.0366e-05
1.03658e-05
1.03656e-05
1.03656e-05
1.03657e-05
1.13346e-05
1.13699e-05
1.14065e-05
1.14444e-05
1.14837e-05
1.15245e-05
1.15669e-05
1.1611e-05
1.16568e-05
1.17045e-05
1.17541e-05
1.18059e-05
1.18598e-05
1.19159e-05
1.19744e-05
1.20353e-05
1.20987e-05
1.21646e-05
1.22332e-05
1.23044e-05
1.23783e-05
1.24548e-05
1.2534e-05
1.26158e-05
1.27003e-05
1.27872e-05
1.28765e-05
1.29682e-05
1.30621e-05
1.31581e-05
1.32561e-05
1.33559e-05
1.34575e-05
1.35607e-05
1.36655e-05
1.37717e-05
1.38794e-05
1.39885e-05
1.4099e-05
1.42109e-05
1.43245e-05
1.44397e-05
1.45567e-05
1.46758e-05
1.47972e-05
1.49212e-05
1.50481e-05
1.51783e-05
1.53121e-05
1.54501e-05
1.55927e-05
1.57403e-05
1.58934e-05
1.60526e-05
1.62184e-05
1.63913e-05
1.65717e-05
1.67602e-05
1.69571e-05
1.7163e-05
1.7378e-05
1.76026e-05
1.78368e-05
1.80807e-05
1.83342e-05
1.85972e-05
1.88693e-05
1.915e-05
1.94388e-05
1.97347e-05
2.00369e-05
2.03442e-05
2.06557e-05
2.09699e-05
2.12857e-05
2.1602e-05
2.19175e-05
2.22313e-05
2.25421e-05
2.28488e-05
2.31506e-05
2.34465e-05
2.37358e-05
2.40179e-05
2.42922e-05
2.45583e-05
2.48159e-05
2.5065e-05
2.53055e-05
2.55375e-05
2.57611e-05
2.59767e-05
2.61845e-05
2.63849e-05
2.65783e-05
2.67652e-05
2.6946e-05
2.71214e-05
2.72916e-05
2.74572e-05
2.76186e-05
2.77764e-05
2.79308e-05
2.80824e-05
2.82314e-05
2.83782e-05
2.8523e-05
2.86661e-05
2.88078e-05
2.89481e-05
2.90873e-05
2.92257e-05
2.93636e-05
2.95018e-05
2.96479e-05
2.98068e-05
2.9963e-05
3.01166e-05
3.02681e-05
3.04182e-05
3.05673e-05
3.07151e-05
3.08603e-05
3.10029e-05
3.11433e-05
3.12818e-05
3.14187e-05
3.15543e-05
3.1689e-05
3.18233e-05
3.19575e-05
3.20919e-05
3.22266e-05
3.23618e-05
3.24978e-05
3.26346e-05
3.27724e-05
3.29114e-05
3.30516e-05
3.3193e-05
3.33358e-05
3.348e-05
3.36255e-05
3.37724e-05
3.39207e-05
3.40704e-05
3.42214e-05
3.43737e-05
3.45272e-05
3.46819e-05
3.48378e-05
3.49949e-05
3.51531e-05
3.53123e-05
3.54725e-05
3.56335e-05
3.57949e-05
3.59549e-05
3.6101e-05
3.62404e-05
3.63767e-05
3.65094e-05
3.66383e-05
3.67632e-05
3.68836e-05
3.70021e-05
3.71223e-05
3.72441e-05
3.73677e-05
3.74931e-05
3.76205e-05
3.77498e-05
3.78812e-05
3.80147e-05
3.81503e-05
3.82881e-05
3.84279e-05
3.85699e-05
3.87139e-05
3.88598e-05
3.90077e-05
3.91575e-05
3.9309e-05
3.94622e-05
3.9617e-05
3.97733e-05
3.99311e-05
4.00896e-05
4.02507e-05
4.04106e-05
4.05705e-05
4.07662e-05
4.06877e-05
1.04389e-05
1.04354e-05
1.04321e-05
1.04292e-05
1.04266e-05
1.04244e-05
1.04225e-05
1.0421e-05
1.04198e-05
1.04191e-05
1.0419e-05
1.04191e-05
1.04195e-05
1.4796e-05
1.49268e-05
1.50595e-05
1.51942e-05
1.5331e-05
1.54701e-05
1.56118e-05
1.57563e-05
1.59039e-05
1.60549e-05
1.62098e-05
1.63688e-05
1.65324e-05
1.67012e-05
1.68754e-05
1.70557e-05
1.72423e-05
1.74359e-05
1.76367e-05
1.78452e-05
1.80618e-05
1.82866e-05
1.85198e-05
1.87617e-05
1.90121e-05
1.9271e-05
1.95381e-05
1.98131e-05
2.00954e-05
2.03845e-05
2.06796e-05
2.09797e-05
2.12839e-05
2.15911e-05
2.19001e-05
2.22097e-05
2.25187e-05
2.28258e-05
2.31301e-05
2.34307e-05
2.37267e-05
2.40172e-05
2.43014e-05
2.45786e-05
2.48483e-05
2.511e-05
2.53635e-05
2.56086e-05
2.58451e-05
2.60732e-05
2.62929e-05
2.65046e-05
2.67085e-05
2.69049e-05
2.70945e-05
2.72775e-05
2.74545e-05
2.76259e-05
2.77922e-05
2.79538e-05
2.81112e-05
2.82647e-05
2.84147e-05
2.85615e-05
2.87054e-05
2.88466e-05
2.89853e-05
2.91216e-05
2.92558e-05
2.9388e-05
2.95184e-05
2.96471e-05
2.97744e-05
2.99008e-05
3.00281e-05
3.01693e-05
3.03108e-05
3.04492e-05
3.05851e-05
3.07192e-05
3.0852e-05
3.09839e-05
3.11138e-05
3.12414e-05
3.13671e-05
3.14915e-05
3.16147e-05
3.17373e-05
3.18598e-05
3.19826e-05
3.21059e-05
3.22299e-05
3.23549e-05
3.2481e-05
3.26084e-05
3.27371e-05
3.28672e-05
3.29988e-05
3.31318e-05
3.32662e-05
3.34019e-05
3.3539e-05
3.36774e-05
3.3817e-05
3.39578e-05
3.40998e-05
3.42428e-05
3.43868e-05
3.45319e-05
3.46778e-05
3.48246e-05
3.49721e-05
3.51204e-05
3.52689e-05
3.54117e-05
3.55413e-05
3.56675e-05
3.57908e-05
3.5911e-05
3.60278e-05
3.61409e-05
3.62519e-05
3.63646e-05
3.64795e-05
3.65964e-05
3.67155e-05
3.68368e-05
3.69604e-05
3.70863e-05
3.72144e-05
3.73447e-05
3.74772e-05
3.76118e-05
3.77483e-05
3.78867e-05
3.80268e-05
3.81685e-05
3.83117e-05
3.84563e-05
3.8602e-05
3.87488e-05
3.88966e-05
3.90451e-05
3.91942e-05
3.93438e-05
3.94936e-05
3.96435e-05
3.97932e-05
3.99425e-05
4.00911e-05
4.02389e-05
4.03856e-05
4.05309e-05
4.06744e-05
4.0816e-05
4.09551e-05
4.10915e-05
4.1225e-05
4.13581e-05
4.14936e-05
4.16321e-05
4.17741e-05
4.19199e-05
4.20702e-05
4.22254e-05
4.23842e-05
4.25439e-05
4.27048e-05
4.28669e-05
4.30302e-05
4.31947e-05
4.33605e-05
4.35274e-05
4.36954e-05
4.38644e-05
4.40342e-05
4.4205e-05
4.43763e-05
4.45483e-05
4.47208e-05
4.48935e-05
4.50665e-05
4.52394e-05
4.54123e-05
4.5585e-05
4.5757e-05
4.59292e-05
4.60997e-05
4.62717e-05
4.64387e-05
4.66074e-05
4.67301e-05
4.6551e-05
1.07436e-05
1.07283e-05
1.07142e-05
1.07016e-05
1.06903e-05
1.06805e-05
1.06721e-05
1.06651e-05
1.06598e-05
1.06563e-05
1.06553e-05
1.06558e-05
1.06571e-05
1.06601e-05
2.3523e-05
2.38146e-05
2.41023e-05
2.43853e-05
2.4663e-05
2.49348e-05
2.52001e-05
2.54584e-05
2.57091e-05
2.59521e-05
2.61871e-05
2.6414e-05
2.66329e-05
2.68439e-05
2.70472e-05
2.7243e-05
2.74317e-05
2.76136e-05
2.77892e-05
2.79589e-05
2.81232e-05
2.82823e-05
2.84368e-05
2.85868e-05
2.87329e-05
2.88753e-05
2.90141e-05
2.91496e-05
2.9282e-05
2.94115e-05
2.95381e-05
2.96621e-05
2.97836e-05
2.99028e-05
3.00199e-05
3.01354e-05
3.02493e-05
3.03627e-05
3.04846e-05
3.06112e-05
3.07348e-05
3.08561e-05
3.09756e-05
3.1094e-05
3.12119e-05
3.13289e-05
3.14442e-05
3.15584e-05
3.16717e-05
3.17844e-05
3.18972e-05
3.20104e-05
3.21243e-05
3.22391e-05
3.23549e-05
3.24719e-05
3.25902e-05
3.27098e-05
3.28307e-05
3.29529e-05
3.30765e-05
3.32013e-05
3.33273e-05
3.34544e-05
3.35825e-05
3.37116e-05
3.38417e-05
3.39727e-05
3.41045e-05
3.42371e-05
3.43705e-05
3.45046e-05
3.46394e-05
3.47748e-05
3.49094e-05
3.50311e-05
3.51472e-05
3.52611e-05
3.53725e-05
3.54812e-05
3.55871e-05
3.56904e-05
3.57948e-05
3.59014e-05
3.60102e-05
3.61214e-05
3.62348e-05
3.63506e-05
3.64687e-05
3.65892e-05
3.67118e-05
3.68366e-05
3.69634e-05
3.70921e-05
3.72226e-05
3.73548e-05
3.74886e-05
3.76236e-05
3.77599e-05
3.78971e-05
3.80352e-05
3.8174e-05
3.83131e-05
3.84526e-05
3.8592e-05
3.87313e-05
3.88701e-05
3.90082e-05
3.91453e-05
3.92811e-05
3.94152e-05
3.95473e-05
3.9677e-05
3.98039e-05
3.99285e-05
4.0054e-05
4.01819e-05
4.03127e-05
4.04466e-05
4.05843e-05
4.07263e-05
4.08721e-05
4.10191e-05
4.11671e-05
4.13163e-05
4.14667e-05
4.16182e-05
4.17709e-05
4.19246e-05
4.20793e-05
4.22349e-05
4.23912e-05
4.25483e-05
4.27059e-05
4.28639e-05
4.30223e-05
4.31809e-05
4.33396e-05
4.34983e-05
4.3657e-05
4.38157e-05
4.39741e-05
4.41324e-05
4.42903e-05
4.4448e-05
4.46054e-05
4.47625e-05
4.49193e-05
4.50759e-05
4.52324e-05
4.53887e-05
4.55452e-05
4.5702e-05
4.58592e-05
4.60172e-05
4.61763e-05
4.63368e-05
4.64991e-05
4.66634e-05
4.68297e-05
4.69977e-05
4.7167e-05
4.73372e-05
4.75079e-05
4.76785e-05
4.78484e-05
4.80174e-05
4.81854e-05
4.83524e-05
4.8518e-05
4.86823e-05
4.88451e-05
4.90062e-05
4.91656e-05
4.93231e-05
4.94786e-05
4.96318e-05
4.97827e-05
4.9931e-05
5.00765e-05
5.02192e-05
5.03587e-05
5.04951e-05
5.0628e-05
5.07575e-05
5.08835e-05
5.10052e-05
5.1125e-05
5.12388e-05
5.13485e-05
5.14268e-05
5.14036e-05
5.10995e-05
1.18999e-05
1.18478e-05
1.18003e-05
1.17576e-05
1.17201e-05
1.16877e-05
1.16606e-05
1.1639e-05
1.16239e-05
1.16178e-05
1.16189e-05
1.16236e-05
1.16341e-05
1.16519e-05
3.04157e-05
3.05183e-05
3.06197e-05
3.07225e-05
3.08358e-05
3.09471e-05
3.10561e-05
3.11635e-05
3.12699e-05
3.13757e-05
3.14815e-05
3.1587e-05
3.16916e-05
3.17958e-05
3.18998e-05
3.2004e-05
3.21088e-05
3.22143e-05
3.23208e-05
3.24284e-05
3.25371e-05
3.2647e-05
3.27581e-05
3.28703e-05
3.29837e-05
3.3098e-05
3.32135e-05
3.33298e-05
3.34471e-05
3.35652e-05
3.36842e-05
3.38039e-05
3.39244e-05
3.40456e-05
3.41675e-05
3.429e-05
3.44131e-05
3.45365e-05
3.46519e-05
3.47592e-05
3.48646e-05
3.49682e-05
3.50698e-05
3.51695e-05
3.52668e-05
3.53637e-05
3.54627e-05
3.5564e-05
3.56675e-05
3.57733e-05
3.58814e-05
3.59917e-05
3.61042e-05
3.62188e-05
3.63353e-05
3.64536e-05
3.65737e-05
3.66954e-05
3.68185e-05
3.69429e-05
3.70684e-05
3.71949e-05
3.73222e-05
3.74501e-05
3.75784e-05
3.77069e-05
3.78354e-05
3.79636e-05
3.80913e-05
3.82183e-05
3.83441e-05
3.84685e-05
3.85912e-05
3.87116e-05
3.88298e-05
3.89475e-05
3.90672e-05
3.91893e-05
3.93142e-05
3.94422e-05
3.9574e-05
3.97099e-05
3.98475e-05
3.99863e-05
4.01263e-05
4.02675e-05
4.04098e-05
4.05532e-05
4.06975e-05
4.08428e-05
4.09888e-05
4.11355e-05
4.12827e-05
4.14303e-05
4.15783e-05
4.17264e-05
4.18746e-05
4.20227e-05
4.21707e-05
4.23184e-05
4.24657e-05
4.26126e-05
4.2759e-05
4.2905e-05
4.30505e-05
4.31956e-05
4.33404e-05
4.34849e-05
4.36293e-05
4.37739e-05
4.39189e-05
4.40646e-05
4.42114e-05
4.43598e-05
4.45103e-05
4.46632e-05
4.48182e-05
4.49752e-05
4.51339e-05
4.5294e-05
4.54549e-05
4.56162e-05
4.57775e-05
4.5939e-05
4.61005e-05
4.62619e-05
4.64231e-05
4.65842e-05
4.67449e-05
4.69053e-05
4.70652e-05
4.72246e-05
4.73833e-05
4.75413e-05
4.76984e-05
4.78548e-05
4.80102e-05
4.81647e-05
4.83184e-05
4.8471e-05
4.86227e-05
4.87735e-05
4.89233e-05
4.90721e-05
4.922e-05
4.9367e-05
4.9513e-05
4.96582e-05
4.98025e-05
4.99459e-05
5.00884e-05
5.02299e-05
5.03704e-05
5.05096e-05
5.06474e-05
5.07835e-05
5.09175e-05
5.10492e-05
5.11781e-05
5.13038e-05
5.14259e-05
5.15441e-05
5.1658e-05
5.17671e-05
5.18712e-05
5.19697e-05
5.20624e-05
5.2149e-05
5.2229e-05
5.23021e-05
5.23681e-05
5.24266e-05
5.24777e-05
5.25236e-05
5.25645e-05
5.26004e-05
5.26311e-05
5.26568e-05
5.26771e-05
5.26925e-05
5.27021e-05
5.27067e-05
5.27057e-05
5.26992e-05
5.26871e-05
5.26689e-05
5.26455e-05
5.26188e-05
5.25852e-05
5.25455e-05
5.24528e-05
5.2279e-05
5.19296e-05
1.52414e-05
1.51223e-05
1.5014e-05
1.49173e-05
1.48335e-05
1.47629e-05
1.47054e-05
1.4662e-05
1.46415e-05
1.46438e-05
1.46561e-05
1.4684e-05
1.47306e-05
1.47973e-05
3.39999e-05
3.41118e-05
3.42242e-05
3.43354e-05
3.44357e-05
3.45336e-05
3.46304e-05
3.4726e-05
3.48202e-05
3.49131e-05
3.50044e-05
3.50958e-05
3.51893e-05
3.5285e-05
3.53828e-05
3.54827e-05
3.55847e-05
3.56887e-05
3.57945e-05
3.59022e-05
3.60115e-05
3.61224e-05
3.62347e-05
3.63482e-05
3.6463e-05
3.65786e-05
3.66952e-05
3.68123e-05
3.69299e-05
3.70478e-05
3.71657e-05
3.72834e-05
3.74006e-05
3.75171e-05
3.76326e-05
3.77467e-05
3.7859e-05
3.79696e-05
3.80789e-05
3.81896e-05
3.83024e-05
3.84176e-05
3.85355e-05
3.86565e-05
3.87812e-05
3.8909e-05
3.9038e-05
3.91684e-05
3.93001e-05
3.94331e-05
3.95672e-05
3.97025e-05
3.98387e-05
3.99758e-05
4.01137e-05
4.02522e-05
4.03912e-05
4.05306e-05
4.06703e-05
4.08102e-05
4.095e-05
4.10899e-05
4.12296e-05
4.1369e-05
4.15083e-05
4.16472e-05
4.17858e-05
4.19243e-05
4.20626e-05
4.22008e-05
4.23392e-05
4.24781e-05
4.26176e-05
4.27583e-05
4.29006e-05
4.30448e-05
4.3191e-05
4.3339e-05
4.34885e-05
4.36393e-05
4.37909e-05
4.3943e-05
4.4095e-05
4.42469e-05
4.43988e-05
4.45504e-05
4.47019e-05
4.4853e-05
4.50038e-05
4.51542e-05
4.53042e-05
4.54536e-05
4.56026e-05
4.57511e-05
4.58991e-05
4.60466e-05
4.61936e-05
4.63402e-05
4.64864e-05
4.66322e-05
4.67778e-05
4.69232e-05
4.70686e-05
4.72139e-05
4.73594e-05
4.75051e-05
4.76511e-05
4.77975e-05
4.79442e-05
4.80914e-05
4.8239e-05
4.83869e-05
4.8535e-05
4.86832e-05
4.88312e-05
4.89788e-05
4.91257e-05
4.92717e-05
4.94166e-05
4.95602e-05
4.97023e-05
4.9843e-05
4.99821e-05
5.01195e-05
5.02551e-05
5.03888e-05
5.05208e-05
5.06507e-05
5.07786e-05
5.09043e-05
5.10277e-05
5.11487e-05
5.12671e-05
5.13828e-05
5.14957e-05
5.16055e-05
5.17123e-05
5.18157e-05
5.19156e-05
5.20118e-05
5.21042e-05
5.21921e-05
5.22755e-05
5.23537e-05
5.24266e-05
5.24937e-05
5.25547e-05
5.2609e-05
5.26574e-05
5.27017e-05
5.27416e-05
5.27771e-05
5.2808e-05
5.28341e-05
5.28553e-05
5.28714e-05
5.28821e-05
5.28875e-05
5.28873e-05
5.28816e-05
5.28697e-05
5.28519e-05
5.28278e-05
5.27976e-05
5.27634e-05
5.27262e-05
5.26865e-05
5.26449e-05
5.2602e-05
5.25586e-05
5.25154e-05
5.24732e-05
5.24319e-05
5.23871e-05
5.23384e-05
5.22864e-05
5.22317e-05
5.2175e-05
5.21169e-05
5.20576e-05
5.19981e-05
5.19395e-05
5.18815e-05
5.18268e-05
5.1774e-05
5.17267e-05
5.16862e-05
5.16489e-05
5.16172e-05
5.15608e-05
5.14643e-05
5.12888e-05
5.10421e-05
2.13792e-05
2.12178e-05
2.10728e-05
2.09462e-05
2.08406e-05
2.07569e-05
2.06916e-05
2.06544e-05
2.06581e-05
2.0684e-05
2.07345e-05
2.08128e-05
2.09218e-05
3.70582e-05
3.7163e-05
3.72664e-05
3.73683e-05
3.74702e-05
3.75738e-05
3.76793e-05
3.77868e-05
3.78966e-05
3.80093e-05
3.81253e-05
3.82438e-05
3.83637e-05
3.84849e-05
3.86074e-05
3.87311e-05
3.88559e-05
3.89818e-05
3.91086e-05
3.92362e-05
3.93645e-05
3.94935e-05
3.96229e-05
3.97527e-05
3.98828e-05
4.00131e-05
4.01435e-05
4.02739e-05
4.04044e-05
4.05347e-05
4.06651e-05
4.07955e-05
4.09261e-05
4.10568e-05
4.11881e-05
4.13201e-05
4.14532e-05
4.15878e-05
4.17242e-05
4.18627e-05
4.2003e-05
4.21451e-05
4.22887e-05
4.24336e-05
4.25793e-05
4.27253e-05
4.28716e-05
4.30179e-05
4.31642e-05
4.33105e-05
4.34567e-05
4.36027e-05
4.37485e-05
4.38939e-05
4.4039e-05
4.41837e-05
4.4328e-05
4.44718e-05
4.46151e-05
4.47581e-05
4.49006e-05
4.50428e-05
4.51847e-05
4.53264e-05
4.5468e-05
4.56095e-05
4.57511e-05
4.58929e-05
4.60349e-05
4.61772e-05
4.63199e-05
4.6463e-05
4.66065e-05
4.67503e-05
4.68943e-05
4.70383e-05
4.7182e-05
4.73252e-05
4.74679e-05
4.76099e-05
4.77511e-05
4.78914e-05
4.80309e-05
4.81695e-05
4.83072e-05
4.8444e-05
4.85798e-05
4.87148e-05
4.88488e-05
4.89819e-05
4.9114e-05
4.92453e-05
4.93757e-05
4.95052e-05
4.96338e-05
4.97616e-05
4.98885e-05
5.00145e-05
5.01396e-05
5.02637e-05
5.03869e-05
5.05091e-05
5.06303e-05
5.07504e-05
5.08695e-05
5.09873e-05
5.11037e-05
5.12186e-05
5.13317e-05
5.14427e-05
5.15515e-05
5.16578e-05
5.17614e-05
5.18618e-05
5.1959e-05
5.20527e-05
5.21426e-05
5.22285e-05
5.23101e-05
5.23871e-05
5.2459e-05
5.25255e-05
5.25863e-05
5.2641e-05
5.26891e-05
5.2732e-05
5.27709e-05
5.28057e-05
5.28364e-05
5.2863e-05
5.28854e-05
5.29035e-05
5.29173e-05
5.29267e-05
5.29316e-05
5.29319e-05
5.29278e-05
5.29186e-05
5.29044e-05
5.28849e-05
5.28601e-05
5.28312e-05
5.27999e-05
5.27666e-05
5.27317e-05
5.2696e-05
5.26601e-05
5.26248e-05
5.25886e-05
5.25476e-05
5.25019e-05
5.2452e-05
5.23982e-05
5.23409e-05
5.22808e-05
5.22184e-05