/*--------------------------------*- C++ -*----------------------------------*\
| =========                 |                                                 |
| \\      /  F ield         | OpenFOAM: The Open Source CFD Toolbox           |
|  \\    /   O peration     | Version:  v1706                                 |
|   \\  /    A nd           | Web:      www.OpenFOAM.com                      |
|    \\/     M anipulation  |                                                 |
\*---------------------------------------------------------------------------*/
FoamFile
{
    version     2.0;
    format      ascii;
    class       volScalarField;
    location    "3e-06";
    object      p;
}
// * * * * * * * * * * * * * * * * * * * * * * * * * * * * * * * * * * * * * //

dimensions      [1 -1 -2 0 0 0 0];


internalField   nonuniform List<scalar> 
30104
(
21.9139
21.9139
21.9139
21.9139
21.9139
21.9139
21.9139
21.9139
21.9139
21.9139
21.9139
21.9139
21.9139
21.9139
21.9139
21.9139
21.9139
21.9139
21.9139
21.9139
21.9139
21.9139
21.9139
21.9139
21.9139
21.9139
21.9139
21.9139
21.9139
21.9139
21.9139
21.9139
21.9139
21.9139
21.9139
21.9139
21.9139
21.9139
21.9139
21.9139
21.9139
21.9139
21.9139
21.9139
21.914
21.914
21.914
21.914
21.914
21.914
21.914
21.914
21.914
21.914
21.914
21.914
21.914
21.914
21.914
21.914
21.914
21.914
21.914
21.914
21.914
21.914
21.914
21.914
21.914
21.914
21.914
21.914
21.914
21.914
21.914
21.914
21.914
21.914
21.914
21.914
21.914
21.914
21.9141
21.9141
21.9141
21.9141
21.9141
21.9141
21.9141
21.9141
21.9141
21.9141
21.9141
21.9141
21.9141
21.9141
21.9141
21.9141
21.9141
21.9141
21.9142
21.9142
21.9142
21.9142
21.9142
21.9142
21.9142
21.9142
21.9142
21.9142
21.9142
21.9142
21.9143
21.9143
21.9143
21.9143
21.9143
21.9143
21.9143
21.9143
21.9143
21.9143
21.9144
21.9144
21.9144
21.9144
21.9144
21.9144
21.9144
21.9145
21.9145
21.9145
21.9145
21.9145
21.9146
21.9146
21.9146
21.9146
21.9147
21.9147
21.9147
21.9148
21.9148
21.9148
21.9149
21.9149
21.915
21.915
21.915
21.9151
21.9151
21.9152
21.9152
21.9153
21.9153
21.9154
21.9154
21.9155
21.9155
21.9156
21.9156
21.9157
21.9157
21.9158
21.9158
21.9159
21.9159
21.9159
21.916
21.916
21.9161
21.9161
21.9162
21.9162
21.9163
21.9163
21.9164
21.9164
21.9165
21.9165
21.9166
21.9167
21.9168
21.9168
21.9169
21.917
21.9171
21.9172
21.9173
21.9174
21.9175
21.9176
21.9177
21.9178
21.9179
21.9181
21.9182
21.9183
21.9185
21.9186
21.9188
21.9189
21.9191
21.9192
21.9194
21.9196
21.9198
21.9199
21.9201
21.9195
21.9139
21.9139
21.9139
21.9139
21.9139
21.9139
21.9139
21.9139
21.9139
21.9139
21.9139
21.9139
21.9139
21.9139
21.9139
21.9139
21.9139
21.9143
21.9143
21.9143
21.9143
21.9143
21.9143
21.9143
21.9143
21.9144
21.9144
21.9144
21.9144
21.9144
21.9144
21.9144
21.9145
21.9145
21.9145
21.9145
21.9145
21.9145
21.9146
21.9146
21.9146
21.9146
21.9146
21.9147
21.9147
21.9147
21.9147
21.9148
21.9148
21.9148
21.9148
21.9149
21.9149
21.9149
21.915
21.915
21.915
21.9151
21.9151
21.9151
21.9152
21.9152
21.9152
21.9153
21.9153
21.9154
21.9154
21.9154
21.9155
21.9155
21.9156
21.9156
21.9157
21.9158
21.9158
21.9159
21.9159
21.916
21.9161
21.9161
21.9162
21.9163
21.9164
21.9165
21.9165
21.9166
21.9167
21.9168
21.9169
21.917
21.9172
21.9173
21.9174
21.9175
21.9176
21.9178
21.9179
21.9181
21.9182
21.9184
21.9185
21.9187
21.9189
21.919
21.9192
21.9194
21.9196
21.9198
21.92
21.9202
21.9204
21.9206
21.9208
21.9211
21.9213
21.9215
21.9218
21.922
21.9222
21.9225
21.9227
21.923
21.9233
21.9235
21.9238
21.9241
21.9244
21.9247
21.925
21.9254
21.9257
21.926
21.9264
21.9268
21.9272
21.9276
21.928
21.9285
21.9289
21.9294
21.9299
21.9304
21.9309
21.9315
21.932
21.9326
21.9332
21.9339
21.9345
21.9352
21.9358
21.9365
21.9372
21.938
21.9387
21.9395
21.9403
21.9411
21.9419
21.9427
21.9436
21.9445
21.9454
21.9463
21.9473
21.9483
21.9493
21.9503
21.9514
21.9525
21.9536
21.9548
21.956
21.9573
21.9586
21.96
21.9614
21.9629
21.9644
21.9661
21.9677
21.9695
21.9713
21.9733
21.9753
21.9774
21.9796
21.9818
21.9842
21.9867
21.9893
21.992
21.9949
21.9978
22.0009
22.0041
22.0075
22.011
22.0146
22.0184
22.0223
22.0264
22.0306
22.0351
22.0396
22.0444
22.0493
22.0544
22.0603
22.0557
21.914
21.914
21.914
21.914
21.914
21.914
21.914
21.914
21.914
21.914
21.914
21.914
21.914
21.914
21.914
21.914
21.9164
21.9165
21.9166
21.9167
21.9167
21.9168
21.9169
21.917
21.9171
21.9172
21.9173
21.9174
21.9175
21.9176
21.9178
21.9179
21.918
21.9181
21.9183
21.9184
21.9186
21.9187
21.9189
21.919
21.9192
21.9194
21.9196
21.9198
21.92
21.9202
21.9204
21.9206
21.9209
21.9211
21.9214
21.9216
21.9219
21.9222
21.9225
21.9228
21.9231
21.9235
21.9238
21.9242
21.9246
21.9249
21.9253
21.9257
21.9262
21.9266
21.9271
21.9275
21.928
21.9285
21.929
21.9295
21.93
21.9306
21.9311
21.9317
21.9323
21.9329
21.9335
21.9341
21.9348
21.9354
21.9361
21.9368
21.9375
21.9383
21.939
21.9398
21.9407
21.9415
21.9424
21.9434
21.9443
21.9453
21.9463
21.9474
21.9485
21.9497
21.9509
21.9521
21.9534
21.9547
21.9561
21.9575
21.959
21.9605
21.962
21.9637
21.9653
21.967
21.9688
21.9706
21.9725
21.9744
21.9764
21.9784
21.9805
21.9827
21.9849
21.9872
21.9896
21.9921
21.9946
21.9972
22
22.0028
22.0057
22.0088
22.012
22.0153
22.0188
22.0224
22.0261
22.0301
22.0342
22.0385
22.043
22.0477
22.0526
22.0577
22.0631
22.0687
22.0746
22.0808
22.0872
22.094
22.101
22.1084
22.116
22.1241
22.1324
22.1411
22.1502
22.1596
22.1694
22.1795
22.1901
22.201
22.2123
22.224
22.2361
22.2485
22.2614
22.2746
22.2881
22.302
22.3163
22.3308
22.3456
22.3608
22.3762
22.3918
22.4078
22.4239
22.4403
22.4569
22.4738
22.4908
22.5082
22.5257
22.5436
22.5618
22.5803
22.5991
22.6184
22.6382
22.6585
22.6794
22.701
22.7233
22.7465
22.7705
22.7955
22.8215
22.8487
22.8771
22.9068
22.9378
22.9703
23.0044
23.04
23.0774
23.1165
23.1575
23.2003
23.2454
23.292
23.3523
23.3246
21.9146
21.9145
21.9145
21.9145
21.9144
21.9144
21.9144
21.9144
21.9144
21.9144
21.9144
21.9144
21.9144
21.9144
21.9144
21.9144
21.9302
21.9308
21.9314
21.932
21.9327
21.9334
21.9341
21.9348
21.9355
21.9363
21.9371
21.938
21.9388
21.9397
21.9406
21.9416
21.9426
21.9436
21.9446
21.9457
21.9468
21.9479
21.949
21.9502
21.9515
21.9527
21.954
21.9554
21.9568
21.9582
21.9597
21.9612
21.9628
21.9645
21.9662
21.968
21.9698
21.9717
21.9737
21.9757
21.9779
21.9801
21.9824
21.9848
21.9873
21.9898
21.9925
21.9952
21.9981
22.001
22.0041
22.0072
22.0105
22.0138
22.0173
22.0209
22.0246
22.0284
22.0324
22.0365
22.0407
22.0451
22.0496
22.0543
22.0591
22.0642
22.0694
22.0748
22.0804
22.0863
22.0924
22.0988
22.1054
22.1123
22.1196
22.1272
22.1351
22.1433
22.152
22.1611
22.1705
22.1805
22.1908
22.2017
22.2131
22.225
22.2374
22.2504
22.2639
22.2781
22.2929
22.3083
22.3244
22.3411
22.3585
22.3766
22.3954
22.4149
22.4351
22.456
22.4775
22.4998
22.5228
22.5464
22.5707
22.5956
22.6212
22.6474
22.6742
22.7016
22.7297
22.7582
22.7874
22.8172
22.8476
22.8786
22.9103
22.9427
22.9759
23.01
23.045
23.081
23.1182
23.1565
23.1963
23.2376
23.2805
23.3251
23.3718
23.4205
23.4715
23.525
23.581
23.6397
23.7013
23.7658
23.8335
23.9044
23.9787
24.0565
24.1381
24.2235
24.3129
24.4065
24.5043
24.6064
24.7129
24.8239
24.9393
25.0593
25.1837
25.3127
25.4462
25.584
25.7261
25.8725
26.023
26.1774
26.3358
26.4982
26.6643
26.8341
27.0073
27.184
27.3642
27.5479
27.7352
27.9261
28.1208
28.3197
28.523
28.731
28.9447
29.1644
29.3907
29.6244
29.8664
30.1178
30.3797
30.6533
30.9399
31.2412
31.5584
31.8941
32.2488
32.6268
33.0266
33.4573
33.9097
34.405
34.9187
35.5705
35.7953
21.9171
21.9169
21.9168
21.9167
21.9166
21.9165
21.9164
21.9163
21.9162
21.9162
21.9162
21.9161
21.9161
21.9162
21.9162
22.0147
22.0182
22.0219
22.0257
22.0297
22.0338
22.0381
22.0426
22.0472
22.0519
22.0569
22.062
22.0674
22.0729
22.0786
22.0845
22.0906
22.097
22.1036
22.1104
22.1174
22.1247
22.1323
22.1401
22.1482
22.1566
22.1654
22.1745
22.1839
22.1938
22.204
22.2147
22.2258
22.2373
22.2494
22.2621
22.2753
22.2891
22.3035
22.3186
22.3344
22.3509
22.3682
22.3863
22.4052
22.425
22.4457
22.4673
22.4899
22.5134
22.538
22.5637
22.5904
22.6182
22.6472
22.6773
22.7085
22.7409
22.7744
22.8091
22.845
22.882
22.9202
22.9596
23.0001
23.0417
23.0845
23.1284
23.1735
23.2197
23.267
23.3156
23.3654
23.4166
23.4691
23.5231
23.5786
23.6359
23.6949
23.756
23.8192
23.8848
23.9529
24.0238
24.0977
24.1749
24.2555
24.3398
24.4281
24.5207
24.6177
24.7195
24.8263
24.9383
25.0558
25.1789
25.3079
25.443
25.5844
25.7322
25.8865
26.0474
26.2151
26.3895
26.5707
26.7588
26.9537
27.1553
27.3636
27.5783
27.7994
28.0268
28.2602
28.4998
28.7453
28.9968
29.2543
29.5181
29.7882
30.065
30.3489
30.6405
30.9403
31.2492
31.568
31.898
32.2405
32.5969
32.9689
33.3586
33.7679
34.1992
34.655
35.1379
35.6509
36.1971
36.7799
37.4031
38.0707
38.7874
39.5579
40.3877
41.2824
42.2477
43.2897
44.4149
45.6299
46.9413
48.3561
49.8815
51.5248
53.2928
55.1924
57.2296
59.4102
61.7394
64.2217
66.8604
69.6591
72.6216
75.7486
79.0392
82.4918
86.1032
89.8682
93.7804
97.8317
102.013
106.314
110.724
115.23
119.817
124.475
129.189
133.944
138.729
143.53
148.336
153.133
157.911
162.657
167.37
172.027
176.638
181.177
185.662
190.052
194.406
198.607
202.857
206.764
211.562
213.801
21.9292
21.9285
21.9279
21.9273
21.9268
21.9264
21.9259
21.9256
21.9253
21.9251
21.9249
21.9248
21.9248
21.9248
21.9249
21.925
22.5097
22.5328
22.557
22.5823
22.6087
22.6364
22.6653
22.6955
22.7271
22.7601
22.7945
22.8305
22.868
22.9071
22.9479
22.9903
23.0345
23.0804
23.1281
23.1775
23.2288
23.282
23.337
23.3938
23.4526
23.5132
23.5757
23.6401
23.7064
23.7747
23.845
23.9174
23.9918
24.0685
24.1474
24.2288
24.3127
24.3993
24.4889
24.5815
24.6776
24.7772
24.8807
24.9884
25.1006
25.2176
25.3398
25.4675
25.601
25.7407
25.887
26.0401
26.2005
26.3685
26.5443
26.7282
26.9206
27.1215
27.3314
27.5502
27.7783
28.0155
28.2622
28.5182
28.7836
29.0583
29.3423
29.6355
29.938
30.2496
30.5702
30.9
31.239
31.5874
31.9454
32.3135
32.6921
33.082
33.484
33.8991
34.3287
34.7742
35.2374
35.7203
36.2252
36.7547
37.3117
37.8995
38.5216
39.1821
39.8853
40.6358
41.4388
42.2998
43.2248
44.2201
45.2927
46.4499
47.6993
49.0489
50.5071
52.0826
53.7843
55.6213
57.6028
59.7378
62.0353
64.5029
67.1474
69.9749
72.99
76.1965
79.5959
83.1882
86.9728
90.9515
95.1221
99.4791
104.015
108.721
113.585
118.595
123.735
128.99
134.342
139.773
145.265
150.8
156.359
161.925
167.48
173.008
178.491
183.915
189.265
194.53
199.702
204.773
209.736
214.59
219.333
223.963
228.478
232.877
237.162
241.332
245.391
249.337
253.171
256.898
260.521
264.046
267.476
270.818
274.075
277.26
280.396
283.564
287.242
290.99
294.587
298.04
301.359
304.549
307.62
310.561
313.353
316
318.506
320.881
323.133
325.274
327.314
329.265
331.143
332.96
334.73
336.465
338.173
339.864
341.55
343.238
344.935
346.65
348.385
350.145
351.941
353.754
355.621
357.508
359.33
362.226
360.833
21.9825
21.9795
21.9768
21.9743
21.9721
21.9701
21.9684
21.967
21.9658
21.965
21.9645
21.9644
21.9645
25.4474
25.5779
25.7132
25.8534
25.9989
26.1502
26.3075
26.4712
26.6418
26.8197
27.0053
27.199
27.4013
27.6126
27.8333
28.0639
28.3047
28.5561
28.8185
29.0921
29.3772
29.6741
29.983
30.3041
30.6374
30.983
31.3411
31.7117
32.0948
32.4905
32.8989
33.3202
33.7545
34.2022
34.6638
35.1398
35.6309
36.1381
36.6627
37.206
37.7698
38.356
38.967
39.6054
40.2742
40.9769
41.7173
42.4995
43.3284
44.2089
45.1469
46.1484
47.22
48.3687
49.6024
50.929
52.3571
53.8958
55.5547
57.3434
59.2721
61.351
63.5902
65.9999
68.5896
71.3682
74.3439
77.5239
80.9142
84.5187
88.3395
92.3769
96.629
101.092
105.759
110.626
115.69
120.938
126.356
131.931
137.643
143.473
149.403
155.409
161.47
167.563
173.665
179.757
185.819
191.83
197.774
203.637
209.406
215.066
220.61
226.03
231.321
236.476
241.491
246.365
251.097
255.684
260.13
264.432
268.594
272.619
276.508
280.262
283.886
287.384
290.762
294.029
297.196
300.296
303.538
307.24
310.77
314.118
317.295
320.313
323.184
325.91
328.475
330.883
333.146
335.279
337.298
339.215
341.05
342.822
344.547
346.24
347.911
349.573
351.239
352.917
354.617
356.347
358.11
359.91
361.75
363.633
365.557
367.521
369.526
371.573
373.658
375.776
377.922
380.095
382.292
384.508
386.741
388.985
391.23
393.466
395.674
397.768
399.113
400.069
400.927
401.67
402.296
402.801
403.18
403.474
403.76
404.05
404.352
404.673
405.023
405.406
405.83
406.297
406.811
407.374
407.988
408.651
409.362
410.121
410.925
411.77
412.656
413.572
414.525
415.49
416.501
417.473
418.55
419.476
420.54
421.988
417.556
22.2219
22.2095
22.1981
22.1878
22.1786
22.1706
22.1638
22.1582
22.1539
22.151
22.1501
22.1504
22.1515
39.9517
40.6205
41.315
42.0376
42.7907
43.5774
44.4009
45.2652
46.1744
47.1333
48.147
49.2213
50.3624
51.5772
52.873
54.2577
55.7397
57.3279
59.0318
60.8614
62.827
64.9391
67.2085
69.6459
72.262
75.067
78.0707
81.2821
84.709
88.358
92.234
96.3401
100.677
105.244
110.037
115.05
120.273
125.694
131.305
137.098
143.057
149.165
155.4
161.74
168.162
174.641
181.153
187.673
194.176
200.639
207.042
213.363
219.584
225.69
231.669
237.508
243.197
248.73
254.1
259.304
264.337
269.197
273.883
278.396
282.734
286.899
290.893
294.72
298.381
301.885
305.236
308.445
311.523
314.488
317.405
320.746
324.079
327.206
330.143
332.906
335.513
337.976
340.286
342.445
344.47
346.38
348.192
349.928
351.61
353.257
354.887
356.511
358.142
359.792
361.469
363.181
364.933
366.728
368.568
370.452
372.381
374.352
376.363
378.411
380.491
382.6
384.734
386.886
389.051
391.223
393.397
395.565
397.717
399.829
401.66
402.666
403.543
404.326
405.002
405.569
406.025
406.393
406.757
407.14
407.545
407.982
408.455
408.97
409.531
410.139
410.795
411.497
412.242
413.029
413.853
414.711
415.598
416.507
417.432
418.366
419.299
420.225
421.133
422.016
422.865
423.671
424.424
425.113
425.729
426.261
426.699
427.033
427.255
427.353
427.317
427.139
426.81
426.331
425.785
425.298
424.889
424.569
424.35
424.246
424.272
424.414
424.627
424.906
425.246
425.646
426.099
426.602
427.147
427.73
428.343
428.982
429.641
430.311
430.99
431.668
432.343
433.005
433.653
434.274
434.876
435.427
435.979
436.422
436.941
437.238
437.592
437.071
428.425
23.2808
23.2264
23.1767
23.1317
23.0916
23.0565
23.0263
23.0013
22.9818
22.9687
22.9638
22.9644
22.9687
22.978
132.764
138.544
144.51
150.644
156.937
163.374
169.933
176.59
183.32
190.096
196.892
203.682
210.44
217.142
223.763
230.283
236.68
242.94
249.046
254.987
260.752
266.333
271.722
276.915
281.909
286.698
291.283
295.663
299.839
303.815
307.591
311.176
314.577
317.803
320.866
323.78
326.562
329.243
332.148
335.22
338.088
340.763
343.264
345.612
347.825
349.912
351.867
353.709
355.458
357.134
358.76
360.357
361.944
363.533
365.137
366.765
368.427
370.127
371.869
373.654
375.484
377.356
379.27
381.219
383.201
385.21
387.244
389.295
391.356
393.422
395.486
397.542
399.581
401.594
403.524
404.749
405.612
406.404
407.106
407.717
408.236
408.668
409.083
409.526
410.002
410.518
411.08
411.692
412.358
413.078
413.849
414.669
415.535
416.442
417.383
418.353
419.343
420.343
421.347
422.343
423.322
424.273
425.185
426.046
426.846
427.571
428.21
428.749
429.177
429.478
429.642
429.654
429.504
429.181
428.705
428.204
427.751
427.355
427.027
426.78
426.633
426.586
426.593
426.645
426.737
426.866
427.027
427.214
427.421
427.644
427.876
428.112
428.347
428.578
428.8
429.011
429.209
429.391
429.554
429.699
429.823
429.925
430.006
430.068
430.113
430.145
430.165
430.179
430.19
430.205
430.229
430.27
430.336
430.435
430.576
430.768
431.021
431.344
431.741
432.204
432.722
433.284
433.878
434.491
435.106
435.71
436.292
436.847
437.368
437.851
438.288
438.675
439.005
439.275
439.48
439.617
439.68
439.668
439.575
439.4
439.142
438.794
438.368
437.842
437.237
436.556
435.749
434.962
433.968
432.97
431.313
428.002
413.914
27.6507
27.4426
27.2527
27.0818
26.931
26.8002
26.6902
26.6015
26.536
26.5034
26.5016
26.5162
26.5512
26.6127
333.469
336.077
338.56
340.997
343.804
346.466
348.936
351.237
353.388
355.41
357.325
359.145
360.869
362.518
364.111
365.668
367.211
368.754
370.31
371.891
373.503
375.151
376.84
378.569
380.339
382.147
383.99
385.866
387.768
389.693
391.633
393.58
395.532
397.479
399.414
401.327
403.213
405.051
406.463
407.327
408.116
408.84
409.489
410.068
410.574
411.036
411.524
412.052
412.623
413.243
413.915
414.64
415.416
416.241
417.111
418.021
418.964
419.933
420.92
421.916
422.912
423.897
424.861
425.793
426.682
427.516
428.283
428.971
429.567
430.057
430.429
430.67
430.768
430.708
430.491
430.188
429.917
429.695
429.529
429.431
429.415
429.492
429.63
429.802
430.004
430.229
430.471
430.722
430.975
431.223
431.46
431.678
431.87
432.032
432.157
432.24
432.276
432.263
432.198
432.08
431.908
431.683
431.408
431.087
430.724
430.326
429.9
429.457
429.006
428.561
428.135
427.745
427.406
427.138
426.955
426.861
426.849
426.912
427.041
427.227
427.459
427.723
428.012
428.323
428.653
428.999
429.358
429.727
430.103
430.485
430.868
431.253
431.635
432.016
432.394
432.767
433.137
433.502
433.86
434.212
434.554
434.888
435.211
435.523
435.823
436.11
436.383
436.638
436.875
437.092
437.287
437.456
437.597
437.705
437.775
437.801
437.777
437.695
437.546
437.323
437.02
436.632
436.154
435.581
434.905
434.122
433.229
432.227
431.113
429.889
428.554
427.111
425.567
423.95
422.27
420.535
418.744
416.92
415.038
413.152
411.212
409.277
407.328
405.356
403.434
401.462
399.566
397.757
395.84
394.318
391.372
386.67
372.56
42.7328
42.1061
41.5389
41.0345
40.5958
40.2264
39.9218
39.6818
39.5519
39.5338
39.5732
39.6856
39.8818
40.1748
402.462
404.227
405.951
407.576
408.535
409.328
410.08
410.779
411.426
412.023
412.569
413.093
413.651
414.253
414.902
415.599
416.344
417.137
417.973
418.847
419.753
420.685
421.633
422.591
423.547
424.494
425.419
426.312
427.163
427.959
428.688
429.34
429.901
430.358
430.699
430.911
430.984
430.917
430.74
430.567
430.441
430.364
430.346
430.398
430.534
430.751
431.011
431.303
431.62
431.956
432.304
432.654
432.999
433.333
433.647
433.935
434.189
434.404
434.575
434.696
434.764
434.776
434.731
434.629
434.469
434.255
433.991
433.683
433.336
432.962
432.571
432.175
431.789
431.43
431.114
430.853
430.641
430.472
430.339
430.234
430.145
430.06
429.968
429.865
429.752
429.625
429.486
429.334
429.17
428.994
428.81
428.619
428.425
428.23
428.038
427.854
427.681
427.526
427.392
427.285
427.208
427.167
427.166
427.207
427.295
427.432
427.618
427.855
428.142
428.478
428.86
429.285
429.747
430.241
430.758
431.288
431.824
432.36
432.888
433.404
433.902
434.379
434.832
435.255
435.646
436
436.316
436.589
436.817
436.996
437.123
437.197
437.213
437.171
437.069
436.905
436.677
436.384
436.024
435.595
435.096
434.52
433.864
433.123
432.296
431.38
430.372
429.271
428.086
426.839
425.533
424.169
422.75
421.276
419.751
418.178
416.56
414.901
413.208
411.488
409.742
407.98
406.206
404.431
402.689
401.003
399.383
397.842
396.392
395.045
393.812
392.706
391.729
390.84
390.033
389.311
388.69
388.156
387.744
387.419
387.218
387.145
387.148
387.357
387.606
388.063
388.712
389.388
390.56
391.1
390.97
388.063
376.086
94.8629
92.5725
90.5288
88.7387
87.2286
86.0077
85.0045
84.2447
83.9414
84.0253
84.3666
84.9614
85.8866
430.906
431.102
431.174
431.124
431.018
430.942
430.904
430.908
430.96
431.071
431.255
431.506
431.792
432.102
432.431
432.771
433.117
433.459
433.79
434.105
434.396
434.657
434.883
435.07
435.214
435.312
435.362
435.365
435.32
435.232
435.102
434.938
434.746
434.536
434.317
434.103
433.908
433.748
433.635
433.567
433.538
433.541
433.568
433.607
433.646
433.672
433.675
433.652
433.601
433.519
433.405
433.256
433.073
432.856
432.606
432.324
432.013
431.677
431.319
430.944
430.557
430.162
429.766
429.375
428.994
428.63
428.288
427.973
427.688
427.439
427.226
427.053
426.918
426.819
426.754
426.717
426.703
426.712
426.739
426.783
426.843
426.921
427.017
427.133
427.268
427.424
427.602
427.801
428.023
428.268
428.535
428.824
429.135
429.466
429.816
430.184
430.566
430.961
431.365
431.776
432.19
432.602
433.01
433.408
433.794
434.163
434.509
434.827
435.111
435.357
435.559
435.711
435.809
435.847
435.822
435.729
435.566
435.329
435.017
434.625
434.146
433.578
432.918
432.165
431.317
430.387
429.394
428.34
427.228
426.06
424.839
423.568
422.251
420.892
419.495
418.065
416.609
415.127
413.625
412.107
410.577
409.062
407.587
406.163
404.802
403.514
402.311
401.206
400.191
399.225
398.312
397.459
396.672
395.957
395.32
394.769
394.306
393.939
393.673
393.517
393.476
393.559
393.775
394.129
394.559
395.042
395.577
396.16
396.789
397.459
398.167
398.904
399.67
400.484
401.356
402.275
403.27
404.281
405.416
406.52
407.779
409.023
410.343
411.786
413.145
414.744
416.257
418.041
420.039
421.868
422.795
419.264
408.354
257.518
254.78
252.287
250.073
248.229
246.773
245.66
245.23
245.53
246.384
247.864
250.11
253.291
434.417
434.332
434.295
434.301
434.344
434.418
434.515
434.627
434.742
434.847
434.934
435.001
435.045
435.063
435.054
435.017
434.95
434.854
434.73
434.578
434.402
434.203
433.984
433.748
433.501
433.244
432.984
432.722
432.464
432.213
431.97
431.739
431.52
431.313
431.116
430.925
430.734
430.54
430.338
430.126
429.9
429.661
429.409
429.146
428.874
428.597
428.317
428.039
427.765
427.498
427.244
427.006
426.787
426.592
426.423
426.283
426.176
426.104
426.068
426.069
426.108
426.186
426.302
426.454
426.641
426.86
427.11
427.387
427.687
428.008
428.344
428.694
429.052
429.417
429.784
430.152
430.519
430.88
431.236
431.583
431.919
432.243
432.552
432.844
433.116
433.365
433.588
433.783
433.946
434.074
434.162
434.208
434.207
434.157
434.052
433.889
433.66
433.359
432.981
432.523
431.981
431.36
430.68
429.941
429.144
428.289
427.378
426.414
425.399
424.335
423.227
422.077
420.893
419.676
418.43
417.16
415.869
414.577
413.312
412.086
410.91
409.795
408.755
407.773
406.819
405.897
405.015
404.177
403.39
402.66
401.991
401.391
400.866
400.419
400.059
399.795
399.633
399.584
399.657
399.819
400.027
400.28
400.576
400.907
401.269
401.657
402.067
402.526
403.03
403.581
404.179
404.824
405.517
406.257
407.046
407.883
408.769
409.701
410.68
411.7
412.758
413.85
415.005
416.235
417.54
418.919
420.375
421.908
423.524
425.222
427.012
428.892
430.866
432.925
435.087
437.31
439.66
442.035
444.551
447.085
449.706
452.409
455.086
457.917
460.694
463.774
466.984
470.593
471.639
467.848
459.667
340.667
341.756
343.057
344.605
346.394
348.431
350.748
353.287
355.947
358.8
361.884
364.977
433.581
433.527
433.471
433.407
433.331
433.239
433.128
432.994
432.838
432.66
432.461
432.242
432.006
431.753
431.487
431.209
430.923
430.631
430.335
430.038
429.743
429.453
429.17
428.896
428.633
428.383
428.146
427.925
427.719
427.529
427.354
427.194
427.05
426.919
426.803
426.7
426.611
426.538
426.481
426.442
426.424
426.427
426.453
426.503
426.578
426.679
426.805
426.957
427.134
427.335
427.56
427.806
428.072
428.357
428.656
428.968
429.29
429.618
429.95
430.281
430.61
430.933
431.247
431.548
431.834
432.1
432.342
432.558
432.744
432.896
433.012
433.088
433.122
433.111
433.051
432.936
432.761
432.523
432.219
431.846
431.41
430.928
430.4
429.826
429.207
428.544
427.837
427.088
426.297
425.468
424.6
423.698
422.762
421.793
420.793
419.769
418.745
417.738
416.756
415.811
414.915
414.061
413.216
412.381
411.563
410.768
410.002
409.27
408.579
407.935
407.345
406.814
406.35
405.959
405.651
405.435
405.323
405.291
405.3
405.346
405.425
405.533
405.659
405.811
406.004
406.237
406.509
406.82
407.17
407.558
407.984
408.45
408.953
409.494
410.072
410.685
411.33
412.004
412.7
413.436
414.228
415.079
415.99
416.96
417.994
419.096
420.27
421.522
422.85
424.257
425.744
427.311
428.961
430.693
432.509
434.408
436.391
438.457
440.604
442.832
445.138
447.521
449.979
452.502
455.082
457.706
460.361
463.028
465.691
468.325
470.908
473.412
475.81
478.075
480.184
482.101
483.831
485.312
486.581
487.563
488.285
488.716
488.814
488.64
488.113
487.461
486.66
486.175
484.158
478.897
471.916
380.044
381.686
383.534
385.569
387.786
390.205
392.807
395.509
398.251
401.111
430.201
429.991
429.772
429.545
429.312
429.074
428.834
428.594
428.358
428.127
427.904
427.691
427.491
427.306
427.139
426.99
426.861
426.754
426.67
426.61
426.574
426.561
426.573
426.609
426.667
426.748
426.85
426.972
427.113
427.271
427.444
427.632
427.832
428.043
428.264
428.492
428.727
428.966
429.209
429.454
429.699
429.944
430.187
430.426
430.659
430.882
431.095
431.293
431.475
431.638
431.778
431.893
431.979
432.032
432.045
432.014
431.936
431.806
431.619
431.372
431.08
430.749
430.379
429.968
429.518
429.028
428.5
427.934
427.331
426.693
426.021
425.318
424.581
423.813
423.023
422.232
421.45
420.684
419.945
419.243
418.568
417.892
417.217
416.547
415.888
415.244
414.619
414.019
413.448
412.912
412.417
411.968
411.573
411.24
410.981
410.799
410.656
410.54
410.448
410.376
410.317
410.272
410.259
410.281
410.335
410.422
410.543
410.697
410.883
411.103
411.355
411.639
411.953
412.297
412.666
413.057
413.464
413.896
414.374
414.898
415.467
416.086
416.755
417.48
418.262
419.102
420.001
420.959
421.977
423.057
424.201
425.411
426.688
428.034
429.454
430.948
432.519
434.172
435.909
437.736
439.651
441.655
443.747
445.921
448.177
450.505
452.897
455.343
457.829
460.34
462.859
465.363
467.832
470.238
472.557
474.758
476.815
478.699
480.388
481.858
483.092
484.069
484.771
485.181
485.281
485.056
484.496
483.593
482.346
480.759
478.848
476.632
474.144
471.424
468.524
465.494
462.397
459.225
455.987
452.645
449.193
445.605
441.857
437.976
433.931
429.854
425.769
422.187
418.518
412.927
406.49
401.99
404.034
406.183
408.444
410.838
413.34
415.873
418.389
420.984
427.182
427.137
427.109
427.099
427.107
427.134
427.18
427.245
427.329
427.431
427.551
427.687
427.838
428.002
428.178
428.365
428.559
428.76
428.965
429.171
429.379
429.585
429.79
429.989
430.182
430.366
430.54
430.701
430.847
430.977
431.089
431.179
431.242
431.276
431.279
431.246
431.175
431.061
430.901
430.705
430.481
430.228
429.947
429.636
429.295
428.924
428.524
428.093
427.631
427.139
426.617
426.062
425.486
424.903
424.319
423.741
423.176
422.633
422.122
421.614
421.099
420.58
420.06
419.544
419.035
418.538
418.056
417.595
417.16
416.757
416.392
416.074
415.813
415.603
415.416
415.246
415.093
414.951
414.815
414.688
414.584
414.505
414.451
414.421
414.417
414.437
414.482
414.551
414.645
414.76
414.897
415.052
415.223
415.403
415.591
415.804
416.048
416.324
416.633
416.98
417.367
417.798
418.273
418.793
419.359
419.971
420.63
421.339
422.097
422.906
423.769
424.686
425.661
426.697
427.797
428.966
430.21
431.532
432.935
434.422
435.993
437.65
439.392
441.218
443.127
445.115
447.181
449.318
451.522
453.783
456.091
458.435
460.8
463.167
465.515
467.822
470.06
472.2
474.212
476.065
477.729
479.18
480.393
481.35
482.031
482.418
482.494
482.243
481.655
480.722
479.442
477.822
475.875
473.623
471.101
468.351
465.426
462.386
459.284
456.123
452.889
449.56
446.112
442.525
438.787
434.897
430.853
426.66
422.319
417.826
413.172
408.336
403.28
397.954
392.287
386.2
379.679
372.733
365.36
357.584
349.421
340.898
332.031
322.85
313.406
303.801
294.326
285.288
275.45
271.259
407.721
409.765
429.119
429.27
429.422
429.574
429.725
429.874
430.018
430.157
430.288
430.411
430.524
430.621
430.701
430.761
430.798
430.809
430.791
430.741
430.653
430.528
430.376
430.201
430.004
429.783
429.538
429.27
428.976
428.658
428.314
427.943
427.544
427.125
426.697
426.264
425.83
425.401
424.983
424.585
424.214
423.854
423.485
423.111
422.735
422.358
421.984
421.616
421.259
420.915
420.59
420.291
420.024
419.801
419.607
419.425
419.255
419.095
418.943
418.794
418.641
418.497
418.369
418.258
418.164
418.087
418.027
417.985
417.96
417.952
417.959
417.981
418.014
418.057
418.102
418.151
418.22
418.308
418.416
418.547
418.703
418.888
419.103
419.35
419.629
419.94
420.285
420.663
421.076
421.524
422.008
422.529
423.089
423.689
424.331
425.02
425.76
426.555
427.408
428.322
429.3
430.344
431.457
432.641
433.898
435.23
436.639
438.128
439.697
441.347
443.08
444.894
446.788
448.76
450.805
452.916
455.086
457.303
459.554
461.819
464.079
466.307
468.475
470.554
472.511
474.313
475.929
477.33
478.492
479.394
480.017
480.345
480.36
480.049
479.398
478.403
477.06
475.377
473.368
471.058
468.483
465.69
462.736
459.684
456.584
453.426
450.194
446.861
443.404
439.805
436.06
432.166
428.125
423.941
419.611
415.124
410.46
405.581
400.431
394.933
389.001
382.627
375.814
368.569
360.91
352.857
344.426
335.63
326.476
316.972
307.121
296.931
286.409
275.57
264.441
253.059
241.483
229.785
218.024
206.252
194.548
182.976
171.601
160.485
149.671
139.228
129.199
119.692
110.758
102.732
96.1202
97.1367
430.372
430.25
430.11
429.954
429.779
429.586
429.374
429.141
428.886
428.607
428.305
427.99
427.666
427.336
427.004
426.673
426.349
426.039
425.75
425.487
425.225
424.958
424.686
424.414
424.144
423.879
423.62
423.374
423.146
422.941
422.77
422.62
422.478
422.344
422.219
422.1
421.986
421.871
421.75
421.629
421.517
421.416
421.324
421.243
421.173
421.112
421.062
421.022
420.989
420.962
420.938
420.911
420.887
420.874
420.873
420.882
420.903
420.938
420.99
421.062
421.155
421.269
421.405
421.563
421.743
421.945
422.171
422.419
422.692
422.989
423.312
423.663
424.044
424.459
424.911
425.403
425.937
426.516
427.141
427.814
428.538
429.314
430.145
431.034
431.982
432.994
434.071
435.217
436.435
437.728
439.099
440.55
442.084
443.701
445.403
447.186
449.047
450.982
452.984
455.043
457.149
459.285
461.437
463.583
465.699
467.759
469.733
471.589
473.293
474.814
476.122
477.188
477.994
478.518
478.743
478.653
478.232
477.469
476.357
474.897
473.098
470.977
468.565
465.903
463.044
460.053
456.994
453.891
450.726
447.476
444.112
440.617
436.981
433.2
429.278
425.216
421.011
416.653
412.117
407.364
402.328
396.928
391.079
384.785
378.046
370.873
363.283
355.291
346.907
338.134
328.975
319.427
309.492
299.17
288.471
277.413
266.027
254.371
242.52
230.53
218.464
206.401
194.413
182.567
170.929
159.557
148.506
137.83
127.576
117.789
108.509
99.7719
91.6017
84.016
77.0222
70.6155
64.7853
59.5126
54.7769
50.5474
46.7925
43.4772
40.5623
38.0142
35.7951
33.8774
32.2219
30.841
29.9163
30.6152
426.506
426.316
426.122
425.927
425.733
425.541
425.355
425.179
425.019
424.88
424.769
424.667
424.572
424.483
424.401
424.326
424.254
424.184
424.111
424.029
423.949