/*--------------------------------*- C++ -*----------------------------------*\
| =========                 |                                                 |
| \\      /  F ield         | OpenFOAM: The Open Source CFD Toolbox           |
|  \\    /   O peration     | Version:  v1706                                 |
|   \\  /    A nd           | Web:      www.OpenFOAM.com                      |
|    \\/     M anipulation  |                                                 |
\*---------------------------------------------------------------------------*/
FoamFile
{
    version     2.0;
    format      ascii;
    class       volScalarField;
    location    "3e-06";
    object      rho;
}
// * * * * * * * * * * * * * * * * * * * * * * * * * * * * * * * * * * * * * //

dimensions      [1 -3 0 0 0 0 0];


internalField   nonuniform List<scalar> 
30104
(
0.000511309
0.000511309
0.000511309
0.000511309
0.000511309
0.000511309
0.000511309
0.000511309
0.000511309
0.000511309
0.000511309
0.000511309
0.000511309
0.000511309
0.000511309
0.000511309
0.000511309
0.000511309
0.000511309
0.000511309
0.000511309
0.000511309
0.000511309
0.000511309
0.000511309
0.000511309
0.000511309
0.000511309
0.000511309
0.000511309
0.000511309
0.000511309
0.000511309
0.000511309
0.000511309
0.000511309
0.000511309
0.000511309
0.000511309
0.00051131
0.00051131
0.00051131
0.00051131
0.00051131
0.00051131
0.00051131
0.00051131
0.00051131
0.00051131
0.00051131
0.00051131
0.00051131
0.00051131
0.00051131
0.00051131
0.00051131
0.00051131
0.00051131
0.00051131
0.00051131
0.00051131
0.00051131
0.00051131
0.00051131
0.00051131
0.00051131
0.00051131
0.00051131
0.00051131
0.00051131
0.00051131
0.00051131
0.00051131
0.00051131
0.00051131
0.00051131
0.00051131
0.00051131
0.00051131
0.00051131
0.00051131
0.00051131
0.00051131
0.00051131
0.00051131
0.00051131
0.00051131
0.00051131
0.00051131
0.00051131
0.00051131
0.00051131
0.00051131
0.00051131
0.00051131
0.00051131
0.00051131
0.00051131
0.00051131
0.00051131
0.00051131
0.00051131
0.00051131
0.00051131
0.00051131
0.00051131
0.00051131
0.00051131
0.00051131
0.00051131
0.00051131
0.000511311
0.000511311
0.000511311
0.000511311
0.000511311
0.000511311
0.000511311
0.000511311
0.000511311
0.000511311
0.000511311
0.000511311
0.000511311
0.000511311
0.000511311
0.000511311
0.000511311
0.000511311
0.000511311
0.000511311
0.000511311
0.000511311
0.000511311
0.000511312
0.000511312
0.000511312
0.000511312
0.000511312
0.000511312
0.000511313
0.000511313
0.000511313
0.000511313
0.000511314
0.000511314
0.000511314
0.000511315
0.000511315
0.000511315
0.000511316
0.000511316
0.000511316
0.000511317
0.000511317
0.000511318
0.000511318
0.000511318
0.000511318
0.000511319
0.000511319
0.000511319
0.000511319
0.00051132
0.00051132
0.00051132
0.00051132
0.00051132
0.00051132
0.00051132
0.00051132
0.00051132
0.00051132
0.00051132
0.00051132
0.00051132
0.00051132
0.00051132
0.000511321
0.000511321
0.000511321
0.000511321
0.000511321
0.000511321
0.000511321
0.000511322
0.000511322
0.000511322
0.000511322
0.000511323
0.000511323
0.000511323
0.000511324
0.000511324
0.000511324
0.000511325
0.000511325
0.000511326
0.000511326
0.000511327
0.000511327
0.000511328
0.000511328
0.000511329
0.000511329
0.00051133
0.00051133
0.000511331
0.000511332
0.000511331
0.000511309
0.000511309
0.000511309
0.000511309
0.000511309
0.000511309
0.000511309
0.000511309
0.000511309
0.000511309
0.000511309
0.000511309
0.000511309
0.000511309
0.000511309
0.000511309
0.000511309
0.000511311
0.000511311
0.000511311
0.000511311
0.000511311
0.000511311
0.000511311
0.000511311
0.000511312
0.000511312
0.000511312
0.000511312
0.000511312
0.000511312
0.000511312
0.000511312
0.000511312
0.000511312
0.000511312
0.000511312
0.000511312
0.000511312
0.000511313
0.000511313
0.000511313
0.000511313
0.000511313
0.000511313
0.000511313
0.000511313
0.000511313
0.000511313
0.000511313
0.000511313
0.000511314
0.000511314
0.000511314
0.000511314
0.000511314
0.000511314
0.000511314
0.000511314
0.000511314
0.000511314
0.000511315
0.000511315
0.000511315
0.000511315
0.000511315
0.000511315
0.000511315
0.000511316
0.000511316
0.000511316
0.000511316
0.000511316
0.000511316
0.000511317
0.000511317
0.000511317
0.000511317
0.000511318
0.000511318
0.000511318
0.000511319
0.000511319
0.00051132
0.00051132
0.000511321
0.000511321
0.000511322
0.000511322
0.000511323
0.000511323
0.000511324
0.000511325
0.000511325
0.000511326
0.000511327
0.000511328
0.000511329
0.00051133
0.00051133
0.000511331
0.000511332
0.000511333
0.000511334
0.000511335
0.000511337
0.000511338
0.000511339
0.00051134
0.000511341
0.000511342
0.000511343
0.000511345
0.000511346
0.000511347
0.000511348
0.000511349
0.00051135
0.000511351
0.000511353
0.000511354
0.000511355
0.000511356
0.000511357
0.000511358
0.000511359
0.00051136
0.000511361
0.000511362
0.000511363
0.000511364
0.000511366
0.000511367
0.000511368
0.00051137
0.000511371
0.000511372
0.000511374
0.000511376
0.000511377
0.000511379
0.000511381
0.000511383
0.000511384
0.000511386
0.000511388
0.00051139
0.000511392
0.000511394
0.000511396
0.000511398
0.0005114
0.000511402
0.000511404
0.000511406
0.000511409
0.000511411
0.000511413
0.000511415
0.000511417
0.000511419
0.000511421
0.000511423
0.000511426
0.000511428
0.00051143
0.000511433
0.000511436
0.000511439
0.000511442
0.000511445
0.000511449
0.000511453
0.000511457
0.000511462
0.000511467
0.000511473
0.000511479
0.000511485
0.000511492
0.0005115
0.000511508
0.000511517
0.000511526
0.000511536
0.000511547
0.000511558
0.00051157
0.000511582
0.000511596
0.00051161
0.000511624
0.00051164
0.000511656
0.000511673
0.00051169
0.000511709
0.000511728
0.000511748
0.000511769
0.000511791
0.000511813
0.000511837
0.000511861
0.000511886
0.000511912
0.000511939
0.000511966
0.000511999
0.000512023
0.00051131
0.00051131
0.00051131
0.00051131
0.00051131
0.00051131
0.00051131
0.00051131
0.00051131
0.00051131
0.00051131
0.00051131
0.00051131
0.00051131
0.00051131
0.00051131
0.00051132
0.00051132
0.000511321
0.000511321
0.000511321
0.000511322
0.000511322
0.000511322
0.000511323
0.000511323
0.000511323
0.000511324
0.000511324
0.000511325
0.000511325
0.000511326
0.000511326
0.000511327
0.000511327
0.000511328
0.000511328
0.000511329
0.00051133
0.00051133
0.000511331
0.000511332
0.000511333
0.000511334
0.000511335
0.000511336
0.000511337
0.000511338
0.000511339
0.00051134
0.000511342
0.000511343
0.000511345
0.000511346
0.000511348
0.000511349
0.000511351
0.000511353
0.000511355
0.000511357
0.000511359
0.000511361
0.000511363
0.000511366
0.000511368
0.00051137
0.000511373
0.000511375
0.000511378
0.000511381
0.000511383
0.000511386
0.000511389
0.000511391
0.000511394
0.000511397
0.0005114
0.000511402
0.000511405
0.000511408
0.00051141
0.000511413
0.000511416
0.000511419
0.000511422
0.000511424
0.000511427
0.00051143
0.000511433
0.000511436
0.00051144
0.000511443
0.000511446
0.00051145
0.000511454
0.000511458
0.000511462
0.000511466
0.00051147
0.000511474
0.000511479
0.000511483
0.000511488
0.000511493
0.000511498
0.000511503
0.000511508
0.000511513
0.000511519
0.000511524
0.00051153
0.000511535
0.000511541
0.000511547
0.000511553
0.00051156
0.000511566
0.000511573
0.00051158
0.000511587
0.000511595
0.000511603
0.000511612
0.000511621
0.000511631
0.000511641
0.000511652
0.000511664
0.000511677
0.00051169
0.000511705
0.00051172
0.000511737
0.000511755
0.000511773
0.000511793
0.000511815
0.000511837
0.000511861
0.000511887
0.000511914
0.000511942
0.000511972
0.000512003
0.000512036
0.000512071
0.000512108
0.000512146
0.000512186
0.000512228
0.000512272
0.000512318
0.000512366
0.000512415
0.000512467
0.000512521
0.000512576
0.000512634
0.000512694
0.000512755
0.000512818
0.000512883
0.000512949
0.000513017
0.000513086
0.000513156
0.000513226
0.000513298
0.00051337
0.000513442
0.000513513
0.000513585
0.000513656
0.000513727
0.000513796
0.000513865
0.000513933
0.000514
0.000514066
0.000514131
0.000514195
0.000514259
0.000514322
0.000514385
0.000514448
0.000514511
0.000514576
0.000514642
0.00051471
0.00051478
0.000514853
0.000514929
0.000515009
0.000515093
0.000515181
0.000515273
0.00051537
0.000515472
0.00051558
0.000515692
0.000515809
0.000515932
0.000516059
0.000516192
0.000516328
0.000516472
0.000516616
0.000516772
0.000516897
0.000511312
0.000511312
0.000511312
0.000511312
0.000511312
0.000511312
0.000511312
0.000511312
0.000511311
0.000511311
0.000511311
0.000511311
0.000511311
0.000511311
0.000511311
0.000511311
0.00051138
0.000511383
0.000511386
0.000511389
0.000511393
0.000511396
0.0005114
0.000511404
0.000511408
0.000511412
0.000511416
0.00051142
0.000511424
0.000511429
0.000511434
0.000511438
0.000511443
0.000511448
0.000511453
0.000511458
0.000511463
0.000511468
0.000511474
0.000511479
0.000511484
0.00051149
0.000511495
0.000511501
0.000511506
0.000511512
0.000511518
0.000511524
0.00051153
0.000511536
0.000511543
0.00051155
0.000511556
0.000511563
0.000511571
0.000511578
0.000511586
0.000511594
0.000511603
0.000511611
0.00051162
0.000511629
0.000511639
0.000511649
0.000511659
0.000511669
0.000511679
0.00051169
0.000511701
0.000511713
0.000511725
0.000511737
0.000511749
0.000511762
0.000511776
0.00051179
0.000511804
0.000511819
0.000511835
0.000511852
0.000511869
0.000511888
0.000511907
0.000511928
0.00051195
0.000511973
0.000511998
0.000512024
0.000512052
0.000512082
0.000512113
0.000512147
0.000512183
0.000512221
0.000512261
0.000512304
0.000512349
0.000512397
0.000512447
0.0005125
0.000512556
0.000512614
0.000512676
0.00051274
0.000512808
0.000512879
0.000512952
0.00051303
0.00051311
0.000513194
0.000513281
0.000513371
0.000513465
0.000513562
0.000513662
0.000513765
0.00051387
0.000513979
0.00051409
0.000514204
0.000514319
0.000514436
0.000514555
0.000514675
0.000514797
0.000514919
0.000515041
0.000515164
0.000515287
0.00051541
0.000515534
0.000515657
0.00051578
0.000515904
0.000516029
0.000516154
0.000516281
0.00051641
0.000516542
0.000516676
0.000516814
0.000516957
0.000517105
0.000517258
0.000517418
0.000517585
0.000517759
0.000517942
0.000518132
0.000518331
0.000518539
0.000518756
0.000518981
0.000519216
0.000519459
0.00051971
0.000519971
0.00052024
0.000520517
0.000520803
0.000521096
0.000521398
0.000521706
0.000522022
0.000522345
0.000522675
0.000523012
0.000523355
0.000523706
0.000524064
0.000524429
0.000524803
0.000525185
0.000525576
0.00052598
0.0005264
0.000526835
0.000527287
0.000527759
0.000528253
0.000528772
0.000529319
0.000529899
0.000530514
0.00053117
0.000531871
0.000532623
0.000533432
0.000534308
0.000535255
0.000536281
0.000537393
0.000538602
0.000539917
0.000541349
0.00054291
0.00054461
0.000546466
0.000548487
0.000550697
0.000553097
0.000555726
0.000558564
0.000561697
0.000565028
0.000568749
0.000572676
0.000576857
0.000583224
0.000511324
0.000511323
0.000511322
0.000511322
0.000511321
0.000511321
0.00051132
0.00051132
0.00051132
0.000511319
0.000511319
0.000511319
0.000511319
0.000511319
0.000511319
0.000511739
0.000511752
0.000511765
0.000511779
0.000511794
0.000511809
0.000511824
0.00051184
0.000511857
0.000511874
0.000511892
0.00051191
0.000511929
0.000511948
0.000511968
0.000511989
0.00051201
0.000512033
0.000512056
0.00051208
0.000512105
0.000512131
0.000512158
0.000512186
0.000512216
0.000512247
0.000512279
0.000512314
0.00051235
0.000512388
0.000512429
0.000512472
0.000512517
0.000512565
0.000512616
0.00051267
0.000512727
0.000512788
0.000512852
0.00051292
0.000512991
0.000513067
0.000513147
0.000513231
0.000513319
0.000513412
0.000513509
0.000513611
0.000513718
0.00051383
0.000513947
0.000514068
0.000514195
0.000514327
0.000514464
0.000514607
0.000514754
0.000514906
0.000515063
0.000515225
0.000515391
0.000515561
0.000515736
0.000515914
0.000516096
0.00051628
0.000516468
0.000516659
0.000516852
0.000517047
0.000517244
0.000517444
0.000517645
0.000517849
0.000518055
0.000518263
0.000518475
0.00051869
0.000518909
0.000519133
0.000519362
0.000519598
0.000519841
0.000520091
0.00052035
0.000520619
0.000520898
0.000521189
0.000521491
0.000521805
0.000522132
0.000522472
0.000522827
0.000523194
0.000523576
0.000523973
0.000524383
0.000524808
0.000525247
0.000525701
0.000526169
0.000526652
0.000527149
0.000527661
0.000528188
0.000528731
0.000529291
0.000529869
0.000530465
0.000531081
0.00053172
0.000532383
0.000533072
0.000533791
0.000534544
0.000535334
0.000536166
0.000537045
0.000537978
0.00053897
0.000540028
0.000541162
0.000542378
0.000543687
0.000545098
0.000546624
0.000548276
0.000550067
0.000552013
0.000554129
0.000556432
0.00055894
0.000561672
0.000564649
0.00056789
0.000571418
0.000575255
0.000579425
0.000583954
0.000588866
0.00059419
0.000599955
0.000606189
0.000612919
0.000620171
0.000627969
0.000636338
0.000645297
0.000654865
0.000665057
0.000675889
0.000687369
0.000699502
0.000712288
0.000725723
0.000739802
0.000754515
0.000769845
0.000785792
0.000802358
0.000819519
0.000837245
0.000855504
0.000874259
0.000893466
0.000913081
0.000933052
0.000953327
0.00097385
0.000994566
0.00101541
0.00103632
0.00105726
0.00107815
0.00109894
0.00111959
0.00114004
0.00116025
0.00118019
0.00119981
0.00121907
0.00123797
0.00125644
0.00127452
0.00129212
0.00130929
0.00132596
0.00134222
0.00135784
0.00137327
0.0013877
0.00140189
0.00141944
0.000511377
0.000511374
0.000511372
0.000511369
0.000511367
0.000511365
0.000511363
0.000511362
0.00051136
0.000511359
0.000511358
0.000511357
0.000511357
0.000511357
0.000511357
0.000511357
0.000513621
0.00051372
0.000513824
0.000513933
0.000514049
0.000514171
0.000514298
0.000514433
0.000514574
0.000514722
0.000514877
0.000515038
0.000515208
0.000515384
0.000515568
0.00051576
0.000515959
0.000516165
0.000516379
0.0005166
0.000516829
0.000517064
0.000517307
0.000517556
0.000517812
0.000518074
0.000518343
0.000518617
0.000518896
0.000519181
0.000519471
0.000519766
0.000520067
0.000520372
0.000520684
0.000521
0.000521323
0.000521652
0.000521989
0.000522333
0.000522687
0.000523049
0.000523422
0.000523807
0.000524204
0.000524614
0.000525039
0.000525479
0.000525936
0.00052641
0.000526902
0.000527412
0.000527942
0.000528492
0.000529063
0.000529655
0.000530268
0.000530903
0.000531561
0.000532242
0.000532947
0.000533677
0.000534432
0.000535214
0.000536024
0.000536865
0.000537738
0.000538646
0.000539591
0.000540578
0.000541611
0.000542695
0.000543834
0.000545035
0.000546305
0.000547651
0.000549082
0.000550608
0.00055224
0.000553987
0.000555865
0.000557885
0.000560063
0.000562416
0.000564962
0.000567719
0.000570708
0.000573951
0.000577472
0.000581296
0.000585451
0.000589964
0.000594866
0.000600187
0.000605959
0.000612215
0.000618988
0.000626314
0.000634225
0.000642755
0.000651934
0.000661792
0.000672358
0.000683658
0.000695715
0.000708547
0.000722172
0.000736597
0.000751821
0.000767841
0.000784648
0.000802226
0.000820552
0.000839596
0.000859334
0.000879766
0.000900868
0.000922595
0.000944896
0.000967714
0.000990983
0.00101464
0.00103861
0.00106282
0.00108718
0.00111161
0.00113604
0.0011604
0.00118459
0.00120855
0.00123222
0.00125553
0.0012784
0.00130078
0.00132263
0.00134388
0.00136453
0.00138453
0.00140386
0.00142252
0.0014405
0.00145779
0.00147438
0.00149026
0.00150544
0.0015199
0.00153366
0.00154671
0.00155905
0.00157068
0.00158162
0.0015919
0.00160152
0.0016105
0.00161888
0.00162669
0.00163403
0.0016412
0.00164983
0.00165836
0.00166605
0.00167291
0.00167898
0.00168428
0.00168883
0.00169266
0.00169578
0.00169823
0.00170004
0.00170126
0.00170194
0.00170214
0.0017019
0.00170129
0.00170035
0.00169913
0.00169771
0.00169611
0.00169438
0.00169255
0.00169068
0.00168878
0.00168688
0.00168502
0.0016832
0.00168143
0.00167977
0.00167812
0.00167666
0.00167512
0.00167379
0.00167241
0.0016683
0.000511599
0.000511586
0.000511574
0.000511563
0.000511553
0.000511544
0.000511536
0.00051153
0.000511524
0.00051152
0.000511517
0.000511516
0.000511516
0.000525541
0.000526028
0.000526528
0.000527041
0.000527569
0.000528112
0.000528672
0.00052925
0.000529847
0.000530463
0.000531101
0.000531762
0.000532446
0.000533155
0.000533889
0.000534651
0.00053544
0.000536259
0.000537108
0.000537988
0.000538901
0.000539847
0.00054083
0.00054185
0.000542909
0.000544011
0.000545157
0.000546351
0.000547597
0.000548899
0.000550263
0.000551693
0.000553197
0.000554782
0.000556455
0.000558227
0.000560107
0.000562107
0.000564238
0.000566516
0.000568953
0.000571568
0.000574378
0.000577402
0.000580662
0.000584179
0.000587978
0.000592086
0.000596529
0.000601337
0.000606542
0.000612175
0.000618272
0.000624868
0.000631999
0.000639703
0.000648018
0.000656981
0.00066663
0.000677003
0.000688134
0.000700056
0.0007128
0.000726392
0.000740854
0.000756201
0.000772445
0.00078959
0.000807637
0.000826573
0.00084638
0.000867031
0.000888495
0.000910731
0.000933693
0.000957351
0.00098169
0.00100664
0.00103214
0.0010581
0.00108443
0.00111105
0.00113787
0.00116479
0.00119169
0.0012185
0.0012451
0.00127141
0.00129734
0.0013228
0.00134774
0.00137207
0.00139575
0.00141871
0.00144092
0.00146234
0.00148295
0.00150271
0.00152161
0.00153964
0.00155678
0.00157303
0.0015884
0.00160288
0.00161647
0.00162921
0.0016411
0.00165214
0.00166238
0.00167183
0.00168053
0.00168853
0.00169589
0.00170274
0.00170983
0.00171821
0.00172568
0.00173224
0.0017379
0.00174273
0.00174675
0.00175001
0.00175255
0.00175441
0.00175563
0.00175629
0.00175644
0.00175616
0.00175552
0.00175457
0.00175339
0.00175204
0.00175056
0.001749
0.0017474
0.00174581
0.00174426
0.00174278
0.00174138
0.00174006
0.00173885
0.00173774
0.00173673
0.00173581
0.00173498
0.00173424
0.00173358
0.00173298
0.00173242
0.00173189
0.00173137
0.00173086
0.00173033
0.00172977
0.00172915
0.00172842
0.00172753
0.00172621
0.00172247
0.0017176
0.00171255
0.00170727
0.00170178
0.00169606
0.00169015
0.00168406
0.0016779
0.00167169
0.00166547
0.00165927
0.00165312
0.00164704
0.00164104
0.00163515
0.00162937
0.0016237
0.00161816
0.00161274
0.00160744
0.00160226
0.00159719
0.00159221
0.00158733
0.00158252
0.0015778
0.00157309
0.0015685
0.00156377
0.00155933
0.00155443
0.00155008
0.00154532
0.00153307
0.00051263
0.000512579
0.00051253
0.000512486
0.000512445
0.000512409
0.000512377
0.00051235
0.000512327
0.000512309
0.000512297
0.000512295
0.000512297
0.000576189
0.000578913
0.000581816
0.000584915
0.00058823
0.00059178
0.000595589
0.000599679
0.000604076
0.000608807
0.000613902
0.000619391
0.000625306
0.000631683
0.000638556
0.000645963
0.000653943
0.000662535
0.00067178
0.000681718
0.000692389
0.000703834
0.00071609
0.000729193
0.000743176
0.000758067
0.000773892
0.000790669
0.00080841
0.000827121
0.0008468
0.000867435
0.000889008
0.000911491
0.000934844
0.000959021
0.000983964
0.00100961
0.00103591
0.00106283
0.00109031
0.00111824
0.00114652
0.00117506
0.00120374
0.00123245
0.00126108
0.0012895
0.00131762
0.00134532
0.0013725
0.00139908
0.00142496
0.00145007
0.00147435
0.00149776
0.00152023
0.00154173
0.00156224
0.00158174
0.00160021
0.00161763
0.00163402
0.00164938
0.00166372
0.00167703
0.00168937
0.00170074
0.00171118
0.00172073
0.00172943
0.00173735
0.00174453
0.00175107
0.00175722
0.0017646
0.00177166
0.00177775
0.00178292
0.00178722
0.00179072
0.00179348
0.00179554
0.00179694
0.00179776
0.00179807
0.00179795
0.00179747
0.00179673
0.00179579
0.00179472
0.00179356
0.00179237
0.00179119
0.00179005
0.00178899
0.00178801
0.00178714
0.00178637
0.00178571
0.00178516
0.00178471
0.00178434
0.00178405
0.00178382
0.00178363
0.00178346
0.00178329
0.0017831
0.00178287
0.00178257
0.00178218
0.00178166
0.00178093
0.00177922
0.00177486
0.0017702
0.00176535
0.00176029
0.00175501
0.00174952
0.00174387
0.00173813
0.00173238
0.00172663
0.00172092
0.00171526
0.00170968
0.00170418
0.00169879
0.00169349
0.0016883
0.00168319
0.00167818
0.00167324
0.00166837
0.00166356
0.00165879
0.00165404
0.00164928
0.00164451
0.00163968
0.00163478
0.00162979
0.00162468
0.00161944
0.00161403
0.00160843
0.00160262
0.00159658
0.00159028
0.00158371
0.00157685
0.00156968
0.00156219
0.00155435
0.00154617
0.00153766
0.00152903
0.00152055
0.00151228
0.00150422
0.00149639
0.00148883
0.00148154
0.00147455
0.00146781
0.0014613
0.001455
0.00144891
0.00144299
0.00143723
0.00143162
0.00142613
0.00142075
0.00141545
0.00141023
0.00140506
0.00139994
0.00139484
0.00138975
0.00138466
0.00137957
0.00137444
0.0013693
0.00136407
0.00135888
0.00135346
0.00134826
0.00134261
0.00133712
0.00133077
0.00131122
0.000516672
0.000516458
0.00051626
0.00051608
0.000515918
0.000515775
0.000515648
0.00051554
0.000515452
0.000515387
0.00051535
0.000515335
0.000515343
0.000515363
0.00102389
0.00105076
0.00107829
0.0011064
0.00113503
0.00116413
0.00119359
0.00122329
0.00125311
0.00128292
0.00131261
0.00134204
0.0013711
0.00139967
0.00142764
0.0014549
0.00148135
0.00150693
0.00153156
0.00155518
0.00157774
0.00159921
0.00161955
0.00163876
0.00165681
0.0016737
0.00168943
0.00170403
0.00171752
0.00172991
0.00174124
0.00175156
0.00176092
0.00176937
0.00177698
0.00178382
0.00178997
0.00179557
0.00180175
0.00180823
0.00181376
0.00181838
0.00182216
0.00182517
0.00182748
0.00182916
0.00183025
0.00183083
0.00183098
0.00183079
0.00183034
0.00182971
0.00182897
0.00182817
0.00182736
0.00182658
0.00182587
0.00182524
0.00182471
0.0018243
0.00182399
0.00182378
0.00182367
0.00182365
0.00182368
0.00182377
0.00182388
0.00182399
0.00182408
0.00182412
0.00182408
0.00182394
0.00182366
0.00182321
0.0018224
0.00181924
0.00181495
0.00181054
0.00180594
0.00180114
0.00179616
0.00179101
0.00178579
0.00178056
0.00177536
0.00177022
0.00176516
0.0017602
0.00175535
0.0017506
0.00174597
0.00174144
0.001737
0.00173264
0.00172834
0.00172408
0.00171984
0.00171559
0.0017113
0.00170696
0.00170253
0.00169798
0.00169327
0.00168839
0.0016833
0.00167797
0.00167236
0.00166645
0.00166021
0.00165361
0.00164662
0.00163922
0.0016314
0.00162313
0.00161448
0.00160578
0.0015972
0.00158874
0.00158043
0.0015723
0.00156438
0.00155668
0.00154917
0.00154184
0.00153465
0.0015276
0.00152066
0.00151382
0.00150705
0.00150035
0.0014937
0.00148707
0.00148048
0.00147389
0.00146731
0.00146073
0.00145415
0.00144757
0.00144098
0.00143438
0.00142778
0.00142116
0.00141454
0.00140793
0.00140132
0.00139474
0.00138819
0.00138168
0.00137523
0.00136885
0.00136256
0.00135636
0.00135028
0.00134434
0.00133854
0.00133291
0.00132745
0.00132219
0.00131712
0.00131221
0.00130744
0.00130279
0.00129824
0.00129376
0.00128933
0.00128492
0.00128052
0.0012761
0.00127166
0.00126718
0.00126266
0.00125807
0.00125342
0.00124869
0.00124388
0.00123898
0.00123398
0.00122888
0.00122368
0.00121838
0.00121298
0.00120747
0.00120189
0.00119618
0.0011904
0.00118455
0.00117854
0.00117267
0.00116647
0.00116041
0.00115357
0.0011454
0.0011166
0.00053476
0.000533887
0.000533074
0.00053233
0.000531658
0.000531058
0.000530543
0.000530111
0.000529742
0.000529486
0.000529386
0.000529399
0.000529466
0.000529613
0.0018143
0.00182016
0.00182539
0.00183028
0.00183624
0.00184144
0.00184575
0.00184925
0.00185201
0.00185411
0.00185564
0.00185667
0.00185725
0.00185747
0.00185741
0.00185715
0.00185677
0.00185632
0.00185587
0.00185544
0.00185508
0.0018548
0.00185462
0.00185455
0.00185457
0.0018547
0.0018549
0.00185518
0.0018555
0.00185585
0.00185619
0.0018565
0.00185676
0.00185693
0.00185697
0.00185687
0.00185658
0.00185603
0.001854
0.00185017
0.00184617
0.00184202
0.00183771
0.00183324
0.00182864
0.00182393
0.00181922
0.00181456
0.00180997
0.00180546
0.00180105
0.00179675
0.00179255
0.00178845
0.00178444
0.0017805
0.00177661
0.00177275
0.0017689
0.00176502
0.0017611
0.0017571
0.00175298
0.00174872
0.00174429
0.00173965
0.00173478
0.00172963
0.00172418
0.00171839
0.00171224
0.0017057
0.00169875
0.00169136
0.00168354
0.00167549
0.00166751
0.00165965
0.00165191
0.00164431
0.00163687
0.00162961
0.00162253
0.00161557
0.00160872
0.00160194
0.00159522
0.00158853
0.00158185
0.00157516
0.00156844
0.00156168
0.00155485
0.00154794
0.00154094
0.00153385
0.00152664
0.00151932
0.00151189
0.00150434
0.00149669
0.00148894
0.00148111
0.0014732
0.00146523
0.00145723
0.00144922
0.00144122
0.00143326
0.00142539
0.00141762
0.00141
0.00140257
0.00139536
0.0013884
0.00138169
0.0013752
0.00136892
0.00136283
0.00135692
0.00135116
0.00134554
0.00134003
0.00133464
0.00132934
0.00132414
0.00131903
0.00131399
0.00130903
0.00130414
0.0012993
0.00129453
0.00128981
0.00128515
0.00128054
0.00127599
0.00127149
0.00126704
0.00126263
0.00125827
0.00125395
0.00124967
0.00124542
0.0012412
0.00123701
0.00123284
0.00122869
0.00122455
0.00122042
0.00121628
0.00121214
0.00120799
0.00120382
0.00119963
0.0011954
0.00119114
0.00118683
0.00118246
0.00117803
0.00117352
0.00116893
0.00116426
0.00115951
0.00115467
0.00114974
0.00114471
0.0011396
0.00113439
0.00112911
0.00112375
0.00111834
0.00111287
0.00110737
0.00110185
0.00109631
0.00109079
0.00108527
0.00107982
0.00107437
0.00106906
0.00106376
0.00105862
0.00105359
0.00104865
0.00104398
0.00103935
0.00103505
0.00103106
0.00102697
0.00102406
0.00101883
0.00101111
0.000983091
0.00059194
0.000589482
0.000587229
0.000585192
0.000583379
0.000581821
0.000580484
0.000579327
0.000578568
0.000578197
0.00057814
0.000578322
0.000578737
0.000579475
0.0018836
0.00188347
0.00188311
0.00188232
0.00187925
0.00187567
0.00187201
0.00186822
0.0018643
0.00186028
0.00185617
0.001852
0.00184786
0.00184378
0.00183979
0.00183589
0.00183207
0.00182835
0.00182471
0.00182113
0.0018176
0.00181409
0.00181057
0.00180703
0.00180343
0.00179974
0.00179593
0.00179196
0.00178782
0.00178345
0.00177883
0.00177393
0.00176872
0.00176316
0.00175723
0.00175091
0.00174417
0.00173702
0.00172956
0.00172211
0.00171477
0.00170753
0.00170042
0.00169346
0.00168666
0.00168003
0.00167354
0.00166715
0.00166083
0.00165456
0.00164831
0.00164206
0.00163578
0.00162946
0.00162307
0.00161659
0.00161002
0.00160333
0.00159652
0.00158957
0.00158248
0.00157525
0.00156787
0.00156036
0.00155271
0.00154495
0.00153708
0.00152913
0.00152113
0.00151308
0.00150504
0.00149702
0.00148907
0.00148122
0.00147351
0.00146596
0.00145855
0.00145126
0.00144408
0.00143699
0.00142997
0.001423
0.00141607
0.00140916
0.00140227
0.00139541
0.00138857
0.00138176
0.00137497
0.00136822
0.00136152
0.00135486
0.00134826
0.00134173
0.00133529
0.00132893
0.00132268
0.00131655
0.00131054
0.00130467
0.00129895
0.00129339
0.00128798
0.00128275
0.00127769
0.0012728
0.00126808
0.00126354
0.00125915
0.00125493
0.00125086
0.00124693
0.00124312
0.00123943
0.00123583
0.00123231
0.00122886
0.00122545
0.00122208
0.00121874
0.00121542
0.00121211
0.00120881
0.0012055
0.00120217
0.00119883
0.00119545
0.00119205
0.0011886
0.00118512
0.00118158
0.00117799
0.00117435
0.00117065
0.00116691
0.0011631
0.00115924
0.00115533
0.00115136
0.00114734
0.00114327
0.00113915
0.00113496
0.00113072
0.00112642
0.00112208
0.00111769
0.00111325
0.00110879
0.00110429
0.00109977
0.00109524
0.0010907
0.00108616
0.00108163
0.00107712
0.00107264
0.00106821
0.00106384
0.00105955
0.00105536
0.00105129
0.00104735
0.00104356
0.00103997
0.00103659
0.00103345
0.00103056
0.00102793
0.00102558
0.00102352
0.00102176
0.0010203
0.00101915
0.00101832
0.00101779
0.0010176
0.00101769
0.00101814
0.00101886
0.0010199
0.00102127
0.00102283
0.00102484
0.00102693
0.00102942
0.00103225
0.00103506
0.00103903
0.001042
0.00104429
0.00104132
0.00101578
0.000831915
0.000820209
0.000809597
0.000800111
0.000791916
0.000785124
0.000779303
0.000774285
0.000771347
0.00077085
0.000771471
0.000773006
0.000775975
0.00179499
0.00178896
0.00178254
0.00177575
0.00176879
0.00176191
0.0017551
0.00174839
0.00174176
0.00173526
0.00172889
0.00172266
0.00171652
0.00171046
0.00170443
0.00169842
0.0016924
0.00168635
0.00168026
0.00167409
0.00166783
0.00166148
0.001655
0.00164841
0.00164169
0.00163483
0.00162784
0.00162073
0.00161349
0.00160615
0.00159872
0.00159121
0.00158365
0.00157607
0.0015685
0.00156096
0.0015535
0.00154614
0.00153892
0.00153181
0.0015248
0.00151787
0.00151101
0.00150418
0.00149736
0.00149053
0.00148367
0.00147678
0.00146984
0.00146285
0.00145581
0.00144873
0.00144159
0.00143441
0.0014272
0.00141996
0.00141269
0.00140542
0.00139816
0.00139091
0.00138369
0.00137653
0.00136942
0.00136239
0.00135546
0.00134863
0.00134191
0.00133533
0.00132888
0.00132257
0.00131641
0.0013104
0.00130454
0.00129882
0.00129323
0.00128777
0.00128243
0.0012772
0.00127209
0.00126709
0.0012622
0.00125743
0.00125278
0.00124824
0.00124382
0.00123952
0.00123535
0.00123129
0.00122736
0.00122355
0.00121986
0.00121628
0.00121281
0.00120945
0.0012062
0.00120304
0.00119996
0.00119697
0.00119405
0.00119119
0.00118839
0.00118563
0.00118291
0.00118021
0.00117752
0.00117483
0.00117214
0.00116944
0.00116671
0.00116396
0.00116117
0.00115834
0.00115546
0.00115252
0.00114953
0.00114648
0.00114337
0.00114019
0.00113696
0.00113367
0.0011303
0.00112687
0.00112339
0.00111984
0.00111624
0.0011126
0.00110892
0.0011052
0.00110145
0.00109768
0.0010939
0.00109011
0.00108633
0.00108256
0.00107882
0.00107512
0.00107148
0.0010679
0.00106441
0.00106102
0.00105774
0.0010546
0.00105164
0.00104886
0.00104627
0.0010439
0.00104174
0.00103983
0.00103815
0.00103673
0.00103556
0.00103466
0.00103404
0.00103369
0.00103363
0.00103385
0.00103436
0.00103514
0.00103622
0.00103756
0.00103918
0.00104107
0.00104321
0.00104559
0.00104822
0.00105106
0.00105413
0.0010574
0.00106089
0.00106458
0.00106848
0.00107256
0.00107685
0.00108132
0.00108599
0.00109084
0.00109594
0.00110115
0.00110671
0.0011123
0.00111831
0.0011244
0.00113075
0.0011375
0.00114418
0.00115155
0.00115886
0.00116691
0.00117558
0.00118429
0.00119173
0.00118844
0.0011607
0.00158736
0.00157531
0.00156388
0.00155319
0.00154367
0.00153537
0.00152823
0.00152377
0.00152226
0.00152296
0.00152611
0.00153231
0.00154237
0.00160603
0.00159899
0.00159208
0.00158528
0.00157856
0.00157192
0.00156533
0.00155877
0.00155223
0.00154566
0.00153907
0.00153244
0.00152577
0.00151904
0.00151227
0.00150545
0.00149858
0.00149166
0.0014847
0.00147771
0.00147068
0.00146364
0.00145659
0.00144955
0.00144251
0.0014355
0.00142852
0.00142158
0.0014147
0.00140787
0.00140111
0.00139441
0.00138778
0.00138122
0.00137471
0.00136826
0.00136186
0.00135548
0.00134914
0.00134282
0.00133653
0.00133028
0.00132405
0.00131787
0.00131173
0.00130565
0.00129964
0.00129371
0.00128786
0.0012821
0.00127646