/*--------------------------------*- C++ -*----------------------------------*\
| =========                 |                                                 |
| \\      /  F ield         | OpenFOAM: The Open Source CFD Toolbox           |
|  \\    /   O peration     | Version:  v1706                                 |
|   \\  /    A nd           | Web:      www.OpenFOAM.com                      |
|    \\/     M anipulation  |                                                 |
\*---------------------------------------------------------------------------*/
FoamFile
{
    version     2.0;
    format      ascii;
    class       volScalarField;
    location    "3e-06";
    object      Tov;
}
// * * * * * * * * * * * * * * * * * * * * * * * * * * * * * * * * * * * * * //

dimensions      [0 0 0 1 0 0 0];


internalField   nonuniform List<scalar> 
30104
(
144.4
144.4
144.4
144.4
144.4
144.4
144.4
144.4
144.4
144.4
144.4
144.4
144.4
144.4
144.4
144.4
144.4
144.4
144.4
144.4
144.4
144.4
144.4
144.4
144.4
144.4
144.4
144.4
144.4
144.4
144.4
144.4
144.4
144.4
144.4
144.4
144.4
144.4
144.4
144.4
144.4
144.4
144.4
144.4
144.4
144.4
144.4
144.4
144.4
144.4
144.4
144.4
144.4
144.4
144.4
144.4
144.4
144.4
144.4
144.4
144.4
144.4
144.4
144.4
144.4
144.401
144.401
144.401
144.401
144.401
144.401
144.401
144.401
144.401
144.401
144.401
144.401
144.401
144.401
144.401
144.401
144.401
144.401
144.401
144.401
144.401
144.401
144.401
144.401
144.401
144.401
144.401
144.401
144.401
144.401
144.401
144.401
144.401
144.401
144.401
144.401
144.401
144.401
144.402
144.402
144.402
144.402
144.402
144.402
144.402
144.402
144.402
144.402
144.402
144.402
144.402
144.402
144.402
144.402
144.402
144.402
144.403
144.403
144.403
144.403
144.403
144.403
144.403
144.403
144.403
144.403
144.403
144.404
144.404
144.404
144.404
144.404
144.404
144.404
144.404
144.405
144.405
144.405
144.405
144.405
144.405
144.406
144.406
144.406
144.406
144.406
144.407
144.407
144.407
144.407
144.407
144.408
144.408
144.408
144.408
144.409
144.409
144.409
144.409
144.41
144.41
144.41
144.41
144.411
144.411
144.411
144.412
144.412
144.412
144.412
144.413
144.413
144.413
144.414
144.414
144.415
144.415
144.416
144.416
144.416
144.417
144.417
144.418
144.419
144.419
144.42
144.42
144.421
144.422
144.422
144.423
144.424
144.425
144.425
144.426
144.427
144.428
144.429
144.43
144.431
144.432
144.433
144.434
144.435
144.431
144.4
144.4
144.4
144.4
144.4
144.4
144.4
144.4
144.4
144.4
144.4
144.4
144.4
144.4
144.4
144.4
144.4
144.402
144.402
144.402
144.402
144.402
144.402
144.402
144.402
144.402
144.402
144.403
144.403
144.403
144.403
144.403
144.403
144.403
144.403
144.403
144.403
144.403
144.404
144.404
144.404
144.404
144.404
144.404
144.404
144.404
144.404
144.405
144.405
144.405
144.405
144.405
144.405
144.406
144.406
144.406
144.406
144.406
144.406
144.407
144.407
144.407
144.407
144.408
144.408
144.408
144.408
144.408
144.409
144.409
144.409
144.41
144.41
144.41
144.411
144.411
144.411
144.412
144.412
144.412
144.413
144.413
144.413
144.414
144.414
144.415
144.415
144.416
144.416
144.417
144.417
144.418
144.419
144.419
144.42
144.421
144.421
144.422
144.423
144.423
144.424
144.425
144.426
144.427
144.428
144.429
144.43
144.43
144.431
144.433
144.434
144.435
144.436
144.437
144.438
144.439
144.44
144.442
144.443
144.444
144.446
144.447
144.449
144.45
144.452
144.453
144.455
144.457
144.458
144.46
144.462
144.464
144.466
144.468
144.471
144.473
144.475
144.478
144.48
144.483
144.486
144.489
144.492
144.495
144.498
144.501
144.505
144.508
144.512
144.515
144.519
144.523
144.527
144.532
144.536
144.541
144.545
144.55
144.555
144.56
144.565
144.57
144.575
144.581
144.586
144.592
144.598
144.604
144.61
144.617
144.623
144.63
144.637
144.644
144.651
144.659
144.667
144.675
144.683
144.692
144.701
144.71
144.72
144.73
144.74
144.751
144.762
144.774
144.786
144.799
144.812
144.826
144.84
144.855
144.87
144.887
144.903
144.921
144.939
144.958
144.978
144.998
145.02
145.042
145.065
145.089
145.114
145.139
145.169
145.132
144.401
144.401
144.401
144.401
144.401
144.401
144.401
144.401
144.4
144.4
144.4
144.4
144.4
144.4
144.4
144.4
144.413
144.414
144.414
144.415
144.415
144.416
144.416
144.417
144.417
144.418
144.418
144.419
144.42
144.42
144.421
144.422
144.422
144.423
144.424
144.425
144.425
144.426
144.427
144.428
144.429
144.43
144.431
144.432
144.433
144.434
144.435
144.436
144.438
144.439
144.44
144.441
144.443
144.444
144.446
144.447
144.449
144.451
144.453
144.454
144.456
144.458
144.46
144.462
144.464
144.466
144.469
144.471
144.473
144.476
144.479
144.481
144.484
144.487
144.49
144.493
144.496
144.499
144.502
144.505
144.509
144.512
144.516
144.52
144.524
144.528
144.532
144.537
144.541
144.546
144.551
144.556
144.562
144.567
144.573
144.579
144.585
144.592
144.598
144.605
144.612
144.62
144.627
144.635
144.644
144.652
144.661
144.67
144.68
144.689
144.699
144.71
144.72
144.731
144.743
144.754
144.766
144.779
144.791
144.804
144.818
144.832
144.846
144.861
144.876
144.892
144.908
144.925
144.942
144.96
144.979
144.998
145.018
145.039
145.061
145.083
145.107
145.132
145.157
145.184
145.211
145.241
145.271
145.302
145.335
145.37
145.406
145.443
145.483
145.523
145.566
145.61
145.656
145.704
145.754
145.805
145.858
145.914
145.971
146.031
146.092
146.155
146.221
146.288
146.357
146.429
146.502
146.577
146.654
146.733
146.813
146.896
146.98
147.065
147.153
147.242
147.333
147.426
147.521
147.617
147.716
147.816
147.919
148.025
148.133
148.244
148.359
148.477
148.598
148.724
148.854
148.99
149.13
149.276
149.428
149.587
149.753
149.927
150.108
150.298
150.496
150.704
150.922
151.151
151.391
151.643
151.904
152.252
152.034
144.404
144.403
144.403
144.403
144.403
144.403
144.403
144.403
144.403
144.402
144.402
144.402
144.402
144.402
144.402
144.402
144.487
144.49
144.493
144.497
144.5
144.504
144.507
144.511
144.515
144.519
144.523
144.527
144.532
144.536
144.541
144.546
144.551
144.556
144.562
144.567
144.573
144.579
144.585
144.591
144.598
144.605
144.612
144.619
144.627
144.635
144.643
144.651
144.66
144.669
144.678
144.688
144.698
144.709
144.72
144.731
144.743
144.755
144.768
144.782
144.795
144.81
144.824
144.84
144.856
144.872
144.889
144.907
144.925
144.944
144.964
144.984
145.005
145.026
145.048
145.071
145.095
145.12
145.145
145.171
145.198
145.226
145.255
145.284
145.315
145.347
145.381
145.415
145.451
145.488
145.527
145.567
145.609
145.652
145.698
145.745
145.795
145.846
145.9
145.957
146.015
146.077
146.141
146.208
146.278
146.351
146.427
146.506
146.589
146.675
146.764
146.857
146.953
147.053
147.157
147.265
147.376
147.491
147.609
147.731
147.857
147.987
148.12
148.257
148.398
148.542
148.69
148.842
148.997
149.156
149.319
149.486
149.657
149.833
150.014
150.199
150.391
150.588
150.792
151.003
151.222
151.449
151.686
151.932
152.188
152.457
152.737
153.031
153.339
153.662
154
154.355
154.727
155.118
155.527
155.956
156.407
156.879
157.374
157.893
158.437
159.005
159.599
160.218
160.864
161.535
162.233
162.957
163.707
164.481
165.28
166.102
166.946
167.812
168.698
169.602
170.525
171.463
172.416
173.382
174.36
175.349
176.348
177.355
178.372
179.396
180.429
181.47
182.519
183.579
184.65
185.733
186.83
187.944
189.076
190.231
191.41
192.618
193.856
195.132
196.446
197.809
199.215
200.687
202.202
203.813
205.438
207.755
206.786
144.417
144.416
144.415
144.415
144.414
144.414
144.413
144.413
144.412
144.412
144.412
144.412
144.412
144.412
144.412
144.942
144.962
144.982
145.004
145.026
145.049
145.072
145.097
145.123
145.149
145.177
145.206
145.235
145.266
145.298
145.331
145.365
145.401
145.437
145.475
145.515
145.555
145.597
145.641
145.686
145.732
145.781
145.831
145.882
145.936
145.992
146.05
146.11
146.172
146.237
146.305
146.375
146.449
146.525
146.605
146.688
146.775
146.866
146.96
147.059
147.163
147.27
147.383
147.5
147.623
147.751
147.884
148.022
148.167
148.317
148.473
148.635
148.803
148.977
149.157
149.343
149.536
149.735
149.94
150.152
150.37
150.594
150.825
151.062
151.306
151.557
151.815
152.08
152.353
152.634
152.924
153.222
153.531
153.849
154.179
154.521
154.876
155.246
155.63
156.031
156.45
156.887
157.345
157.825
158.327
158.854
159.407
159.987
160.596
161.235
161.905
162.607
163.343
164.113
164.918
165.76
166.637
167.552
168.503
169.491
170.515
171.575
172.67
173.799
174.96
176.15
177.37
178.616
179.887
181.182
182.497
183.832
185.186
186.557
187.944
189.347
190.765
192.2
193.651
195.121
196.611
198.122
199.66
201.227
202.828
204.467
206.149
207.881
209.666
211.513
213.428
215.417
217.491
219.656
221.924
224.305
226.81
229.45
232.237
235.182
238.299
241.598
245.091
248.789
252.704
256.845
261.222
265.841
270.705
275.817
281.176
286.778
292.615
298.677
304.95
311.42
318.069
324.878
331.826
338.89
346.046
353.269
360.534
367.816
375.095
382.344
389.543
396.673
403.718
410.66
417.486
424.185
430.749
437.168
443.438
449.549
455.511
461.303
466.951
472.424
477.768
482.919
487.996
492.808
497.697
502.008
508.457
507.484
144.482
144.478
144.475
144.472
144.469
144.466
144.464
144.462
144.461
144.459
144.459
144.458
144.458
144.458
144.459
144.46
147.658
147.782
147.91
148.045
148.185
148.331
148.483
148.642
148.808
148.982
149.162
149.351
149.547
149.751
149.964
150.186
150.416
150.656
150.905
151.163
151.43
151.707
151.994
152.291
152.598
152.915
153.242
153.58
153.928
154.287
154.656
155.037
155.43
155.835
156.253
156.684
157.129
157.59
158.066
158.56
159.071
159.603
160.156
160.731
161.33
161.956
162.608
163.291
164.004
164.751
165.532
166.351
167.207
168.104
169.042
170.023
171.049
172.12
173.236
174.4
175.611
176.869
178.174
179.525
180.922
182.363
183.846
185.371
186.934
188.535
190.17
191.838
193.536
195.263
197.018
198.798
200.603
202.433
204.287
206.167
208.075
210.012
211.981
213.988
216.034
218.128
220.274
222.48
224.753
227.102
229.537
232.067
234.703
237.456
240.337
243.359
246.534
249.876
253.396
257.108
261.024
265.157
269.517
274.115
278.961
284.061
289.42
295.04
300.917
307.045
313.415
320.014
326.825
333.828
340.999
348.317
355.755
363.289
370.89
378.529
386.178
393.808
401.395
408.912
416.335
423.645
430.821
437.851
444.72
451.418
457.937
464.271
470.416
476.369
482.131
487.705
493.097
498.313
503.362
508.255
513.005
517.621
522.115
526.497
530.779
534.972
539.088
543.135
547.125
551.067
554.973
558.851
562.711
566.561
570.409
574.266
578.152
582.131
586.597
591.194
595.74
600.251
604.74
609.221
613.704
618.171
622.582
626.935
631.234
635.483
639.687
643.851
647.978
652.078
656.159
660.23
664.299
668.371
672.449
676.541
680.651
684.785
688.943
693.135
697.356
701.617
705.912
710.249
714.619
719.07
723.31
729.74
728.722
144.77
144.754
144.74
144.726
144.714
144.704
144.695
144.687
144.681
144.677
144.675
144.674
144.675
163.143
163.828
164.538
165.274
166.038
166.832
167.658
168.517
169.412
170.345
171.318
172.332
173.391
174.496
175.649
176.852
178.106
179.414
180.776
182.194
183.668
185.199
186.787
188.431
190.132
191.888
193.697
195.559
197.472
199.432
201.439
203.489
205.581
207.713
209.883
212.089
214.332
216.61
218.924
221.275
223.666
226.098
228.576
231.104
233.687
236.333
239.048
241.841
244.722
247.699
250.783
253.987
257.322
260.8
264.434
268.236
272.22
276.397
280.78
285.38
290.207
295.27
300.576
306.128
311.93
317.979
324.272
330.8
337.551
344.511
351.658
358.971
366.424
373.988
381.633
389.331
397.056
404.778
412.469
420.1
427.644
435.078
442.381
449.534
456.519
463.324
469.939
476.358
482.578
488.598
494.419
500.048
505.49
510.751
515.842
520.773
525.556
530.202
534.721
539.127
543.431
547.643
551.774
555.835
559.834
563.78
567.681
571.541
575.367
579.165
582.938
586.694
590.44
594.198
598.123
602.466
606.749
610.966
615.133
619.265
623.376
627.462
631.483
635.44
639.341
643.195
647.01
650.791
654.553
658.307
662.065
665.831
669.611
673.412
677.237
681.092
684.982
688.908
692.875
696.883
700.936
705.034
709.177
713.366
717.6
721.882
726.208
730.577
734.989
739.442
743.936
748.472
753.048
757.661
762.309
766.989
771.69
776.37
780.685
784.775
788.776
792.68
796.479
800.164
803.722
807.214
810.754
814.349
817.999
821.708
825.479
829.312
833.212
837.178
841.212
845.315
849.486
853.726
858.031
862.403
866.838
871.336
875.893
880.507
885.177
889.895
894.671
899.471
904.358
909.218
914.083
920.052
917.666
146.052
145.985
145.924
145.869
145.821
145.778
145.742
145.713
145.692
145.678
145.675
145.678
145.684
233.615
236.409
239.251
242.145
245.094
248.103
251.175
254.318
257.538
260.843
264.242
267.744
271.359
275.1
278.976
282.999
287.181
291.533
296.067
300.794
305.722
310.862
316.219
321.799
327.604
333.636
339.89
346.363
353.044
359.922
366.979
374.198
381.555
389.026
396.581
404.193
411.831
419.462
427.061
434.606
442.071
449.432
456.667
463.755
470.68
477.429
483.989
490.355
496.52
502.484
508.248
513.817
519.195
524.391
529.416
534.279
538.991
543.564
548.009
552.338
556.561
560.687
564.726
568.685
572.573
576.392
580.151
583.852
587.5
591.099
594.653
598.167
601.648
605.106
608.581
612.414
616.312
620.128
623.882
627.589
631.265
634.922
638.529
642.079
645.582
649.05
652.489
655.914
659.339
662.776
666.232
669.712
673.223
676.77
680.357
683.986
687.661
691.382
695.148
698.959
702.815
706.714
710.656
714.639
718.662
722.724
726.823
730.958
735.126
739.327
743.559
747.821
752.11
756.413
760.607
764.386
768.067
771.669
775.185
778.606
781.924
785.171
788.468
791.83
795.258
798.753
802.317
805.951
809.657
813.435
817.283
821.199
825.182
829.229
833.336
837.5
841.719
845.987
850.301
854.658
859.053
863.483
867.942
872.425
876.929
881.446
885.972
890.499
895.021
899.531
904.021
908.483
912.909
917.289
921.614
925.872
930.053
934.149
938.223
942.373
946.62
950.975
955.455
960.074
964.853
969.756
974.699
979.682
984.709
989.782
994.899
1000.06
1005.27
1010.51
1015.8
1021.12
1026.47
1031.86
1037.27
1042.7
1048.15
1053.61
1059.08
1064.56
1070.03
1075.5
1080.98
1086.41
1091.9
1097.23
1102.63
1106.57
1100.86
151.815
151.523
151.256
151.016
150.801
150.614
150.454
150.321
150.22
150.153
150.132
150.14
150.166
150.221
436.877
444.238
451.536
458.746
465.852
472.836
479.682
486.371
492.892
499.234
505.388
511.35
517.119
522.696
528.083
533.287
538.313
543.17
547.869
552.419
556.83
561.113
565.277
569.33
573.281
577.138
580.905
584.588
588.192
591.721
595.178
598.568
601.894
605.162
608.377
611.547
614.681
617.796
621.11
624.607
628.03
631.39
634.706
637.992
641.266
644.523
647.739
650.924
654.089
657.24
660.395
663.563
666.755
669.977
673.23
676.52
679.85
683.222
686.635
690.09
693.586
697.124
700.7
704.312
707.959
711.639
715.351
719.095
722.868
726.67
730.498
734.352
738.231
742.134
746.031
749.598
752.968
756.276
759.516
762.683
765.771
768.781
771.815
774.918
778.089
781.331
784.643
788.028
791.485
795.014
798.612
802.278
806.008
809.8
813.65
817.555
821.51
825.51
829.552
833.629
837.737
841.869
846.021
850.186
854.358
858.53
862.695
866.845
870.971
875.063
879.111
883.105
887.031
890.878
894.655
898.453
902.327
906.289
910.352
914.533
918.849
923.292
927.781
932.307
936.876
941.486
946.139
950.831
955.562
960.33
965.131
969.963
974.823
979.707
984.611
989.532
994.466
999.411
1004.36
1009.32
1014.29
1019.25
1024.21
1029.17
1034.13
1039.09
1044.04
1048.99
1053.94
1058.89
1063.84
1068.8
1073.78
1078.78
1083.8
1088.87
1093.98
1099.16
1104.41
1109.73
1115.11
1120.54
1126.01
1131.5
1137
1142.49
1147.95
1153.39
1158.8
1164.17
1169.51
1174.81
1180.06
1185.25
1190.4
1195.48
1200.5
1205.44
1210.31
1215.09
1219.78
1224.37
1228.87
1233.26
1237.53
1241.7
1245.73
1249.7
1253.48
1257.12
1259.74
1258.98
1248.94
174.212
173.184
172.247
171.407
170.667
170.031
169.497
169.072
168.772
168.647
168.667
168.756
168.957
169.302
619.268
622.1
624.901
627.718
630.831
633.921
636.95
639.936
642.894
645.838
648.785
651.729
654.653
657.566
660.476
663.393
666.329
669.289
672.279
675.304
678.363
681.459
684.593
687.763
690.968
694.206
697.478
700.781
704.115
707.477
710.866
714.282
717.724
721.192
724.684
728.197
731.733
735.284
738.656
741.76
744.807
747.807
750.754
753.646
756.476
759.282
762.15
765.087
768.093
771.168
774.312
777.525
780.806
784.15
787.556
791.021
794.541
798.112
801.73
805.391
809.091
812.823
816.584
820.368
824.169
827.982
831.8
835.616
839.422
843.21
846.97
850.694
854.369
857.984
861.535
865.064
868.653
872.318
876.068
879.918
883.884
887.977
892.139
896.34
900.582
904.865
909.188
913.55
917.946
922.376
926.835
931.321
935.83
940.357
944.9
949.455
954.017
958.583
963.15
967.715
972.275
976.827
981.371
985.905
990.431
994.948
999.46
1003.97
1008.48
1013
1017.54
1022.1
1026.71
1031.37
1036.09
1040.9
1045.78
1050.73
1055.74
1060.81
1065.9
1071.02
1076.15
1081.28
1086.42
1091.57
1096.72
1101.87
1107.02
1112.16
1117.29
1122.41
1127.51
1132.6
1137.67
1142.72
1147.74
1152.74
1157.72
1162.67
1167.6
1172.5
1177.37
1182.22
1187.05
1191.85
1196.62
1201.37
1206.09
1210.79
1215.47
1220.12
1224.74
1229.32
1233.86
1238.35
1242.78
1247.14
1251.41
1255.58
1259.63
1263.56
1267.35
1270.99
1274.46
1277.75
1280.85
1283.75
1286.43
1288.89
1291.11
1293.09
1294.81
1296.36
1297.74
1298.95
1299.99
1300.87
1301.56
1302.09
1302.43
1302.6
1302.58
1302.38
1301.99
1301.4
1300.64
1299.76
1298.65
1297.33
1294.25
1288.46
1276.83
243.228
240.661
238.33
236.255
234.456
232.945
231.713
230.78
230.327
230.369
230.622
231.203
232.18
233.588
719.895
723.098
726.321
729.534
732.445
735.268
738.06
740.82
743.545
746.233
748.878
751.517
754.218
756.985
759.816
762.711
765.669
768.688
771.766
774.899
778.086
781.322
784.604
787.927
791.287
794.681
798.103
801.549
805.012
808.487
811.968
815.448
818.92
822.374
825.802
829.194
832.539
835.834
839.092
842.385
845.744
849.176
852.691
856.302
860.027
863.853
867.726
871.643
875.604
879.608
883.653
887.736
891.854
896.005
900.184
904.387
908.612
912.855
917.111
921.377
925.65
929.927
934.205
938.482
942.756
947.027
951.294
955.559
959.823
964.092
968.369
972.664
976.985
981.344
985.756
990.233
994.777
999.382
1004.04
1008.75
1013.49
1018.25
1023.02
1027.79
1032.56
1037.33
1042.11
1046.87
1051.64
1056.39
1061.14
1065.88
1070.61
1075.33
1080.04
1084.73
1089.42
1094.1
1098.77
1103.44
1108.1
1112.76
1117.42
1122.09
1126.77
1131.46
1136.16
1140.88
1145.62
1150.37
1155.15
1159.94
1164.74
1169.56
1174.37
1179.17
1183.96
1188.72
1193.46
1198.15
1202.81
1207.42
1211.98
1216.49
1220.95
1225.35
1229.7
1233.99
1238.21
1242.36
1246.44
1250.45
1254.37
1258.21
1261.96
1265.61
1269.16
1272.6
1275.93
1279.15
1282.23
1285.17
1287.96
1290.59
1293.03
1295.29
1297.34
1299.18
1300.81
1302.3
1303.65
1304.85
1305.9
1306.79
1307.51
1308.07
1308.44
1308.64
1308.65
1308.48
1308.1
1307.52
1306.74
1305.74
1304.61
1303.38
1302.06
1300.67
1299.24
1297.79
1296.35
1294.94
1293.56
1292.08
1290.47
1288.75
1286.93
1285.05
1283.12
1281.15
1279.17
1277.22
1275.28
1273.46
1271.69
1270.11
1268.75
1267.51
1266.46
1264.6
1261.41
1255.6
1247.44
384.192
380.267
376.746
373.675
371.117
369.088
367.508
366.583
366.655
367.258
368.453
370.314
372.914
808.818
811.916
814.978
817.998
821.013
824.076
827.198
830.382
833.64
836.983
840.425
843.955
847.531
851.148
854.809
858.51
862.249
866.025
869.833
873.67
877.534
881.422
885.329
889.252
893.19
897.137
901.093
905.054
909.02
912.989
916.962
920.941
924.927
928.925
932.942
936.984
941.063
945.191
949.379
953.635
957.955
962.334
966.767
971.244
975.754
980.282
984.821
989.368
993.923
998.482
1003.04
1007.6
1012.16
1016.72
1021.27
1025.81
1030.34
1034.86
1039.38
1043.89
1048.39
1052.88
1057.37
1061.86
1066.34
1070.83
1075.33
1079.84
1084.36
1088.89
1093.44
1098.01
1102.6
1107.2
1111.82
1116.43
1121.05
1125.66
1130.25
1134.83
1139.38
1143.92
1148.43
1152.91
1157.37
1161.81
1166.22
1170.61
1174.97
1179.3
1183.61
1187.89
1192.15
1196.38
1200.59
1204.78
1208.94
1213.07
1217.18
1221.26
1225.31
1229.33
1233.33
1237.29
1241.22
1245.11
1248.96
1252.77
1256.51
1260.2
1263.81
1267.34
1270.79
1274.14
1277.38
1280.51
1283.51
1286.38
1289.12
1291.7
1294.11
1296.35
1298.4
1300.24
1301.87
1303.32
1304.63
1305.81
1306.85
1307.75
1308.51
1309.13
1309.61
1309.94
1310.11
1310.14
1310.02
1309.73
1309.27
1308.63
1307.82
1306.87
1305.83
1304.72
1303.56
1302.36
1301.16
1299.98
1298.79
1297.43
1295.92
1294.27
1292.48
1290.59
1288.59
1286.52
1284.38
1282.21
1280.02
1277.85
1275.73
1273.69
1271.77
1270.01
1268.21
1266.33
1264.35
1262.29
1260.14
1257.89
1255.54
1253.07
1250.49
1247.85
1245.19
1242.49
1239.77
1237
1234.23
1231.38
1228.55
1225.63
1222.67
1219.7
1216.57
1213.47
1210.21
1207.02
1203.84
1200.19
1195.32
1188.62
1185.36
546.594
544.917
543.528
542.465
541.789
541.521
541.598
542.231
543.434
545.076
547.216
549.941
553.301
911.347
915.179
919.073
923.031
927.05
931.127
935.257
939.433
943.644
947.879
952.13
956.397
960.677
964.969
969.27
973.578
977.892
982.211
986.532
990.857
995.184
999.512
1003.84
1008.18
1012.52
1016.86
1021.21
1025.58
1029.95
1034.35
1038.76
1043.19
1047.64
1052.11
1056.61
1061.12
1065.64
1070.17
1074.69
1079.21
1083.72
1088.22
1092.69
1097.15
1101.58
1105.99
1110.38
1114.75
1119.1
1123.42
1127.72
1132
1136.26
1140.5
1144.72
1148.93
1153.12
1157.29
1161.45
1165.6
1169.74
1173.87
1177.98
1182.09
1186.17
1190.24
1194.3
1198.33
1202.33
1206.31
1210.25
1214.15
1218.02
1221.83
1225.61
1229.33
1233
1236.62
1240.2
1243.72
1247.19
1250.62
1253.99
1257.31
1260.58
1263.8
1266.95
1270.04
1273.06
1276.01
1278.89
1281.68
1284.37
1286.97
1289.46
1291.84
1294.08
1296.17
1298.1
1299.86
1301.43
1302.82
1304.08
1305.23
1306.25
1307.14
1307.9
1308.52
1309.01
1309.36
1309.57
1309.64
1309.57
1309.36
1308.99
1308.46
1307.77
1306.95
1306.06
1305.11
1304.12
1303.11
1302.12
1301.08
1299.89
1298.53
1297.04
1295.41
1293.65
1291.79
1289.82
1287.76
1285.64
1283.47
1281.27
1279.07
1276.9
1274.8
1272.81
1270.82
1268.73
1266.54
1264.23
1261.81
1259.26
1256.57
1253.75
1250.86
1247.92
1244.93
1241.88
1238.79
1235.64
1232.44
1229.19
1225.89
1222.53
1219.11
1215.61
1212.03
1208.33
1204.51
1200.65
1196.77
1192.87
1188.95
1185.01
1181.04
1177.05
1173.04
1169.01
1164.98
1160.94
1156.88
1152.81
1148.7
1144.59
1140.42
1136.26
1132.03
1127.78
1123.51
1119.17
1114.85
1110.49
1106.27
1102.07
1097.64
1092.03
1086.41
1089.16
623.227
623.246
623.459
623.961
624.775
625.906
627.377
629.165
631.223
633.567
636.229
639.159
1016.62
1020.96
1025.31
1029.68
1034.06
1038.45
1042.83
1047.21
1051.58
1055.95
1060.3
1064.65
1068.98
1073.3
1077.61
1081.9
1086.19
1090.46
1094.72
1098.97
1103.21
1107.44
1111.66
1115.88
1120.08
1124.28
1128.47
1132.65
1136.82
1140.97
1145.12
1149.24
1153.35
1157.44
1161.5
1165.53
1169.52
1173.49
1177.42
1181.31
1185.17
1188.99
1192.77
1196.52
1200.24
1203.91
1207.56
1211.16
1214.74
1218.28
1221.78
1225.24
1228.67
1232.07
1235.42
1238.74
1242.02
1245.26
1248.45
1251.6
1254.71
1257.77
1260.79
1263.75
1266.66
1269.5
1272.29
1275
1277.64
1280.2
1282.68
1285.07
1287.36
1289.55
1291.63
1293.58
1295.41
1297.09
1298.61
1299.97
1301.17
1302.27
1303.27
1304.16
1304.94
1305.62
1306.18
1306.63
1306.96
1307.18
1307.27
1307.24
1307.09
1306.79
1306.35
1305.77
1305.11
1304.38
1303.6
1302.8
1302
1301.18
1300.2
1299.07
1297.79
1296.37
1294.82
1293.14
1291.35
1289.46
1287.48
1285.43
1283.32
1281.18
1279.04
1276.93
1274.88
1272.84
1270.68
1268.41
1266.01
1263.48
1260.79
1257.97
1255.08
1252.11
1249.07
1245.96
1242.78
1239.53
1236.21
1232.82
1229.37
1225.84
1222.23
1218.54
1214.75
1210.85
1206.81
1202.69
1198.53
1194.33
1190.09
1185.81
1181.5
1177.15
1172.78
1168.39
1163.98
1159.55
1155.09
1150.61
1146.09
1141.55
1136.99
1132.39
1127.77
1123.12
1118.44
1113.75
1109.04
1104.33
1099.61
1094.9
1090.17
1085.44
1080.69
1075.92
1071.12
1066.28
1061.4
1056.46
1051.46
1046.38
1041.23
1035.98
1030.65
1025.21
1019.67
1014.02
1008.25
1002.37
996.35
990.234
983.989
977.744
971.423
965.093
958.491
954.61
961.538
690.672
690.868
691.285
691.945
692.867
694.068
695.551
697.301
699.301
701.574
1117.43
1121.54
1125.64
1129.71
1133.76
1137.78
1141.77
1145.73
1149.67
1153.58
1157.46
1161.31
1165.14
1168.93
1172.7
1176.45
1180.16
1183.85
1187.52
1191.15
1194.76
1198.34
1201.9
1205.41
1208.9
1212.35
1215.77
1219.14
1222.48
1225.77
1229.02
1232.22
1235.37
1238.46
1241.51
1244.5
1247.44
1250.33
1253.17
1255.95
1258.68
1261.37
1264.01
1266.6
1269.13
1271.62
1274.05
1276.42
1278.73
1280.98
1283.15
1285.26
1287.28
1289.21
1291.05
1292.77
1294.38
1295.85
1297.18
1298.35
1299.41
1300.37
1301.24
1302
1302.66
1303.22
1303.67
1304.02
1304.26
1304.39
1304.41
1304.32
1304.1
1303.76
1303.3
1302.76
1302.18
1301.55
1300.9
1300.26
1299.58
1298.76
1297.8
1296.72
1295.5
1294.16
1292.7
1291.13
1289.46
1287.69
1285.84
1283.92
1281.96
1279.97
1277.99
1276.04
1274
1271.84
1269.56
1267.14
1264.57
1261.85
1259.04
1256.15
1253.17
1250.12
1246.98
1243.77
1240.48
1237.12
1233.68
1230.15
1226.55
1222.85
1219.06
1215.14
1211.09
1206.93
1202.71
1198.43
1194.09
1189.7
1185.26
1180.79
1176.27
1171.72
1167.12
1162.48
1157.8
1153.08
1148.31
1143.5
1138.65
1133.75
1128.82
1123.85
1118.85
1113.83
1108.79
1103.76
1098.72
1093.69
1088.66
1083.63
1078.61
1073.59
1068.56
1063.54
1058.5
1053.45
1048.38
1043.3
1038.18
1033.02
1027.83
1022.58
1017.28
1011.91
1006.47
1000.95
995.353
989.663
983.877
977.988
971.989
965.874
959.639
953.279
946.795
940.185
933.455
926.613
919.672
912.649
905.57
898.464
891.37
884.248
877.09
869.877
862.608
855.274
847.863
840.394
832.863
825.352
817.827
810.477
803.871
801.962
811.285
757.156
757.628
758.292
759.173
760.288
761.647
763.249
765.099
767.208
1204.22
1207.54
1210.83
1214.07
1217.27
1220.44
1223.56
1226.64
1229.68
1232.67
1235.63
1238.53
1241.4
1244.22
1246.98
1249.71
1252.38
1255
1257.57
1260.09
1262.56
1264.98
1267.35
1269.66
1271.92
1274.12
1276.26
1278.34
1280.35
1282.29
1284.17
1285.97
1287.69
1289.32
1290.85
1292.28
1293.6
1294.79
1295.84
1296.79
1297.65
1298.43
1299.12
1299.73
1300.25
1300.67
1301
1301.24
1301.37
1301.4
1301.32
1301.12
1300.81
1300.44
1300
1299.52
1299
1298.47
1297.94
1297.33
1296.6
1295.74
1294.76
1293.67
1292.46
1291.14
1289.72
1288.21
1286.61
1284.95
1283.23
1281.48
1279.73
1277.96
1276.09
1274.1
1272
1269.76
1267.37
1264.84
1262.21
1259.5
1256.69
1253.8
1250.81
1247.74
1244.58
1241.32
1237.98
1234.55
1231.02
1227.38
1223.63
1219.75
1215.72
1211.61
1207.43
1203.17
1198.84
1194.45
1190
1185.51
1180.97
1176.38
1171.73
1167.03
1162.29
1157.49
1152.63
1147.73
1142.77
1137.77
1132.71
1127.61
1122.47
1117.29
1112.1
1106.89
1101.66
1096.43
1091.18
1085.92
1080.66
1075.39
1070.12
1064.84
1059.57
1054.29
1049.01
1043.73
1038.45
1033.18
1027.9
1022.61
1017.32
1012.02
1006.7
1001.35
995.964
990.531
985.044
979.494
973.873
968.175
962.394
956.523
950.555
944.486
938.309
932.022
925.623
919.112
912.494
905.776
898.97
892.096
885.178
878.249
871.341
864.421
857.467
850.472
843.425
836.319
829.151
821.92
814.631
807.285
799.885
792.43
784.913
777.32
769.624
761.786
753.75
745.451
736.934
728.233
719.353
710.304
701.098
691.748
682.255
672.635
662.91
653.091
643.296
634.584
630.715
639.96
830.107
830.621
1262.06
1264.29
1266.48
1268.61
1270.69
1272.72
1274.7
1276.62
1278.48
1280.29
1282.04
1283.72
1285.33
1286.87
1288.32
1289.69
1290.96
1292.13
1293.17
1294.08
1294.91
1295.66
1296.32
1296.91
1297.41
1297.83
1298.16
1298.4
1298.54
1298.58
1298.52
1298.36
1298.12
1297.82
1297.47
1297.06
1296.63
1296.18
1295.74
1295.25
1294.64
1293.93
1293.12
1292.19
1291.17
1290.05
1288.85
1287.55
1286.19
1284.77
1283.31
1281.84
1280.31
1278.7
1276.97
1275.14
1273.19
1271.11
1268.88
1266.54
1264.11
1261.58
1258.97
1256.26
1253.46
1250.57
1247.59
1244.51
1241.34
1238.06
1234.68
1231.18
1227.54
1223.77
1219.91
1215.96
1211.92
1207.79
1203.58
1199.31
1194.97
1190.56
1186.08
1181.54
1176.94
1172.26
1167.52
1162.71
1157.83
1152.89
1147.88
1142.81
1137.69
1132.51
1127.3
1122.05
1116.78
1111.47
1106.15
1100.8
1095.43
1090.04
1084.63
1079.2
1073.77
1068.32
1062.87
1057.42
1051.96
1046.51
1041.07
1035.64
1030.22
1024.81
1019.41
1014.03
1008.66
1003.29
997.925
992.555
987.173
981.772
976.343
970.877
965.366
959.803
954.179
948.491
942.732
936.896
930.978
924.972
918.872
912.674
906.377
899.979
893.484
886.899
880.238
873.52
866.772
860.029
853.317
846.594
839.844
833.059
826.228
819.344
812.406
805.416
798.377
791.29
784.155
776.966
769.707
762.354
754.864
747.181
739.235
731.082
722.751
714.248
705.586
696.776
687.826
678.734
669.496
660.099
650.526
640.757
630.759
620.493
609.937
599.07
587.887
576.398
564.552
552.298
539.636
526.552
513.037
499.087
484.684
469.859
454.633
439.122
423.41
408.447
398.043
405.671
1292.06
1292.82
1293.51
1294.12
1294.66
1295.13
1295.51
1295.81
1296.02
1296.13
1296.14
1296.08
1295.94
1295.73
1295.46
1295.14
1294.77
1294.39
1293.99
1293.6
1293.14
1292.58
1291.92
1291.17
1290.32
1289.4
1288.39
1287.32
1286.18
1285.01
1283.81
1282.57
1281.24
1279.82
1278.31
1276.71
1274.99
1273.17
1271.2
1269.12
1266.95
1264.7
1262.35
1259.91
1257.39
1254.77
1252.06
1249.25
1246.35
1243.33
1240.2
1236.94
1233.55
1230.08
1226.5
1222.82
1219.05
1215.19
1211.24
1207.21
1203.11
1198.93
1194.67
1190.33
1185.91
1181.42
1176.84
1172.19
1167.46
1162.65
1157.77
1152.81
1147.79
1142.71
1137.58
1132.41
1127.19
1121.93
1116.62
1111.28
1105.91
1100.5
1095.05
1089.57
1084.07
1078.54
1072.99
1067.41
1061.83
1056.23
1050.63
1045.03
1039.43
1033.84
1028.26
1022.7
1017.16
1011.63
1006.12
1000.63
995.159
989.706
984.268
978.842
973.424
968.009
962.589
957.157
951.705
946.223
940.703
935.137
929.517
923.836
918.088
912.263
906.356
900.361
894.272
888.089
881.811
875.443
868.995
862.482
855.927
849.364
842.829
836.316
829.789
823.238
816.652
810.023
803.347
796.625
789.86
783.052
776.202
769.303
762.338
755.281
748.086
740.69
733.038
725.2
717.193
709.025
700.709
692.252
683.657
674.92
666.028
656.967
647.713
638.243
628.527
618.528
608.219
597.592
586.658
575.358
563.649
551.521
538.957
525.94
512.448
498.463
483.971
468.968
453.466
437.493
421.113
404.415
387.503
370.502
353.554
336.797
320.382
304.456
289.17
274.641
260.976
248.249
236.497
225.755
216.013
207.278
199.477
192.757
188.414
192.399
1291.94
1291.55
1291.07
1290.51
1289.86
1289.13
1288.33
1287.46
1286.54
1285.59
1284.61
1283.57
1282.45
1281.24
1279.96
1278.59
1277.14
1275.58
1273.92
1272.13
1270.24
1268.28
1266.23
1264.1
1261.88
1259.58
1257.19
1254.7
1252.12