/*--------------------------------*- C++ -*----------------------------------*\
| =========                 |                                                 |
| \\      /  F ield         | OpenFOAM: The Open Source CFD Toolbox           |
|  \\    /   O peration     | Version:  v1706                                 |
|   \\  /    A nd           | Web:      www.OpenFOAM.com                      |
|    \\/     M anipulation  |                                                 |
\*---------------------------------------------------------------------------*/
FoamFile
{
    version     2.0;
    format      ascii;
    class       volScalarField;
    location    "3e-06";
    object      Tv;
}
// * * * * * * * * * * * * * * * * * * * * * * * * * * * * * * * * * * * * * //

dimensions      [0 0 0 1 0 0 0];


internalField   nonuniform List<scalar> 
30104
(
144.4
144.4
144.4
144.4
144.4
144.4
144.4
144.4
144.4
144.4
144.4
144.4
144.4
144.4
144.4
144.4
144.4
144.4
144.4
144.4
144.4
144.4
144.4
144.4
144.4
144.4
144.4
144.4
144.4
144.4
144.4
144.4
144.4
144.4
144.4
144.4
144.4
144.4
144.4
144.4
144.4
144.4
144.4
144.4
144.4
144.4
144.4
144.4
144.4
144.4
144.4
144.4
144.4
144.4
144.4
144.4
144.4
144.4
144.4
144.4
144.4
144.4
144.4
144.4
144.4
144.4
144.4
144.4
144.4
144.4
144.4
144.4
144.4
144.4
144.4
144.4
144.4
144.4
144.4
144.4
144.4
144.4
144.4
144.4
144.4
144.4
144.4
144.4
144.4
144.4
144.4
144.4
144.4
144.4
144.4
144.4
144.4
144.4
144.4
144.4
144.4
144.4
144.4
144.4
144.4
144.4
144.4
144.4
144.4
144.4
144.4
144.4
144.4
144.4
144.4
144.4
144.4
144.4
144.4
144.4
144.4
144.4
144.4
144.4
144.4
144.4
144.4
144.4
144.4
144.4
144.4
144.4
144.4
144.4
144.4
144.4
144.4
144.4
144.4
144.4
144.4
144.4
144.4
144.4
144.4
144.4
144.4
144.4
144.4
144.4
144.4
144.4
144.4
144.4
144.4
144.4
144.4
144.4
144.4
144.4
144.4
144.4
144.4
144.4
144.4
144.4
144.4
144.4
144.4
144.4
144.4
144.4
144.401
144.401
144.401
144.401
144.401
144.401
144.401
144.401
144.401
144.401
144.401
144.401
144.401
144.401
144.401
144.401
144.401
144.401
144.401
144.401
144.401
144.401
144.401
144.401
144.401
144.402
144.402
144.402
144.402
144.402
144.402
144.402
144.402
144.402
144.402
144.402
144.402
144.402
144.4
144.4
144.4
144.4
144.4
144.4
144.4
144.4
144.4
144.4
144.4
144.4
144.4
144.4
144.4
144.4
144.4
144.4
144.4
144.4
144.4
144.4
144.4
144.4
144.4
144.4
144.4
144.4
144.4
144.4
144.4
144.4
144.4
144.4
144.4
144.4
144.4
144.4
144.4
144.4
144.4
144.4
144.4
144.4
144.4
144.4
144.4
144.4
144.4
144.4
144.4
144.4
144.4
144.4
144.4
144.4
144.4
144.4
144.4
144.4
144.4
144.4
144.4
144.4
144.4
144.4
144.4
144.4
144.4
144.4
144.4
144.4
144.4
144.4
144.4
144.4
144.4
144.4
144.4
144.4
144.4
144.4
144.4
144.4
144.4
144.4
144.4
144.4
144.4
144.4
144.4
144.4
144.4
144.4
144.4
144.4
144.4
144.4
144.4
144.4
144.401
144.401
144.401
144.401
144.401
144.401
144.401
144.401
144.401
144.401
144.401
144.401
144.401
144.401
144.401
144.401
144.401
144.401
144.401
144.401
144.401
144.401
144.401
144.402
144.402
144.402
144.402
144.402
144.402
144.402
144.402
144.402
144.402
144.402
144.403
144.403
144.403
144.403
144.403
144.403
144.403
144.404
144.404
144.404
144.404
144.404
144.405
144.405
144.405
144.405
144.406
144.406
144.406
144.406
144.407
144.407
144.407
144.408
144.408
144.409
144.409
144.409
144.41
144.41
144.411
144.411
144.412
144.412
144.413
144.414
144.414
144.415
144.415
144.416
144.417
144.418
144.419
144.419
144.42
144.421
144.422
144.423
144.424
144.425
144.427
144.428
144.429
144.43
144.432
144.433
144.435
144.437
144.438
144.44
144.442
144.444
144.446
144.448
144.451
144.453
144.456
144.458
144.461
144.464
144.467
144.47
144.474
144.477
144.482
144.479
144.4
144.4
144.4
144.4
144.4
144.4
144.4
144.4
144.4
144.4
144.4
144.4
144.4
144.4
144.4
144.4
144.4
144.4
144.4
144.4
144.4
144.4
144.4
144.4
144.4
144.4
144.4
144.4
144.4
144.4
144.4
144.4
144.4
144.4
144.4
144.4
144.4
144.4
144.4
144.4
144.4
144.4
144.4
144.4
144.4
144.4
144.4
144.401
144.401
144.401
144.401
144.401
144.401
144.401
144.401
144.401
144.401
144.401
144.401
144.401
144.401
144.401
144.401
144.401
144.401
144.401
144.401
144.401
144.401
144.401
144.402
144.402
144.402
144.402
144.402
144.402
144.402
144.402
144.402
144.402
144.403
144.403
144.403
144.403
144.403
144.403
144.403
144.404
144.404
144.404
144.404
144.404
144.405
144.405
144.405
144.405
144.406
144.406
144.406
144.406
144.407
144.407
144.407
144.408
144.408
144.409
144.409
144.41
144.41
144.411
144.411
144.412
144.412
144.413
144.413
144.414
144.415
144.416
144.416
144.417
144.418
144.419
144.42
144.421
144.422
144.423
144.424
144.425
144.427
144.428
144.429
144.431
144.432
144.434
144.436
144.437
144.439
144.441
144.443
144.445
144.448
144.45
144.453
144.455
144.458
144.461
144.464
144.467
144.471
144.475
144.478
144.483
144.487
144.491
144.496
144.501
144.506
144.512
144.518
144.524
144.53
144.537
144.544
144.551
144.558
144.566
144.575
144.583
144.593
144.602
144.612
144.622
144.633
144.644
144.656
144.668
144.68
144.694
144.707
144.721
144.736
144.751
144.767
144.784
144.801
144.819
144.838
144.858
144.878
144.9
144.922
144.945
144.97
144.995
145.022
145.05
145.079
145.11
145.142
145.176
145.212
145.249
145.288
145.329
145.372
145.417
145.464
145.528
145.513
144.4
144.4
144.4
144.4
144.4
144.4
144.4
144.4
144.4
144.4
144.4
144.4
144.4
144.4
144.4
144.4
144.401
144.401
144.401
144.401
144.401
144.401
144.401
144.402
144.402
144.402
144.402
144.402
144.402
144.402
144.402
144.402
144.402
144.403
144.403
144.403
144.403
144.403
144.403
144.403
144.404
144.404
144.404
144.404
144.404
144.405
144.405
144.405
144.405
144.406
144.406
144.406
144.407
144.407
144.407
144.408
144.408
144.408
144.409
144.409
144.41
144.41
144.411
144.411
144.412
144.413
144.413
144.414
144.415
144.416
144.416
144.417
144.418
144.419
144.42
144.421
144.422
144.423
144.425
144.426
144.427
144.429
144.43
144.432
144.433
144.435
144.437
144.439
144.441
144.443
144.445
144.447
144.45
144.452
144.455
144.458
144.461
144.464
144.467
144.471
144.474
144.478
144.482
144.487
144.491
144.496
144.501
144.507
144.513
144.519
144.525
144.532
144.539
144.546
144.554
144.562
144.571
144.58
144.59
144.6
144.61
144.621
144.633
144.645
144.658
144.671
144.685
144.699
144.714
144.73
144.746
144.763
144.781
144.8
144.819
144.839
144.861
144.883
144.906
144.93
144.956
144.982
145.01
145.039
145.07
145.102
145.136
145.171
145.209
145.248
145.289
145.333
145.378
145.426
145.476
145.529
145.585
145.643
145.704
145.768
145.836
145.906
145.98
146.057
146.137
146.221
146.308
146.399
146.493
146.591
146.692
146.796
146.903
147.014
147.128
147.245
147.365
147.488
147.613
147.741
147.872
148.005
148.14
148.277
148.417
148.558
148.702
148.847
148.995
149.144
149.295
149.449
149.604
149.761
149.921
150.083
150.247
150.414
150.584
150.757
150.933
151.112
151.295
151.482
151.673
151.869
152.065
152.312
152.326
144.4
144.4
144.4
144.4
144.4
144.4
144.4
144.4
144.4
144.4
144.4
144.4
144.4
144.4
144.4
144.41
144.411
144.411
144.412
144.412
144.413
144.414
144.414
144.415
144.416
144.417
144.418
144.419
144.42
144.421
144.422
144.423
144.424
144.425
144.427
144.428
144.43
144.431
144.433
144.435
144.437
144.438
144.44
144.443
144.445
144.447
144.45
144.452
144.455
144.458
144.461
144.464
144.467
144.471
144.475
144.479
144.483
144.487
144.492
144.497
144.502
144.508
144.513
144.52
144.526
144.533
144.54
144.548
144.556
144.564
144.573
144.583
144.593
144.603
144.614
144.626
144.638
144.651
144.665
144.679
144.694
144.709
144.725
144.742
144.76
144.779
144.798
144.818
144.84
144.862
144.885
144.909
144.935
144.961
144.989
145.018
145.048
145.08
145.113
145.148
145.185
145.223
145.264
145.307
145.351
145.399
145.448
145.5
145.555
145.613
145.674
145.737
145.804
145.875
145.949
146.026
146.107
146.192
146.28
146.372
146.468
146.568
146.672
146.779
146.89
147.004
147.122
147.244
147.368
147.496
147.627
147.761
147.897
148.037
148.179
148.323
148.47
148.62
148.771
148.925
149.081
149.24
149.401
149.564
149.73
149.899
150.071
150.245
150.423
150.604
150.788
150.976
151.168
151.365
151.565
151.771
151.982
152.198
152.42
152.648
152.881
153.121
153.367
153.62
153.878
154.143
154.413
154.69
154.971
155.258
155.55
155.846
156.147
156.45
156.757
157.066
157.377
157.69
158.004
158.319
158.634
158.948
159.263
159.576
159.888
160.199
160.508
160.814
161.119
161.421
161.72
162.017
162.31
162.602
162.89
163.176
163.459
163.739
164.017
164.293
164.567
164.838
165.109
165.376
165.645
165.906
166.195
166.376
144.4
144.4
144.4
144.4
144.4
144.4
144.4
144.4
144.4
144.4
144.4
144.4
144.4
144.4
144.4
144.4
144.489
144.494
144.499
144.505
144.51
144.516
144.522
144.529
144.536
144.543
144.551
144.559
144.568
144.577
144.587
144.597
144.608
144.619
144.631
144.644
144.657
144.671
144.686
144.701
144.718
144.735
144.753
144.771
144.791
144.812
144.833
144.856
144.88
144.904
144.93
144.957
144.986
145.015
145.046
145.078
145.112
145.148
145.185
145.224
145.264
145.307
145.352
145.399
145.449
145.501
145.555
145.612
145.673
145.736
145.802
145.872
145.945
146.022
146.102
146.186
146.274
146.366
146.461
146.561
146.664
146.772
146.883
146.998
147.116
147.239
147.364
147.494
147.626
147.762
147.9
148.042
148.186
148.333
148.483
148.635
148.79
148.947
149.106
149.268
149.433
149.6
149.77
149.942
150.118
150.297
150.479
150.665
150.855
151.049
151.248
151.451
151.66
151.874
152.093
152.318
152.549
152.786
153.03
153.279
153.535
153.797
154.065
154.338
154.617
154.902
155.191
155.484
155.781
156.082
156.385
156.691
156.999
157.308
157.618
157.929
158.24
158.55
158.86
159.168
159.476
159.781
160.085
160.387
160.686
160.982
161.277
161.568
161.857
162.143
162.427
162.707
162.985
163.261
163.535
163.807
164.077
164.345
164.613
164.88
165.147
165.413
165.678
165.944
166.21
166.477
166.744
167.011
167.28
167.549
167.819
168.09
168.363
168.637
168.918
169.202
169.485
169.768
170.051
170.333
170.615
170.896
171.177
171.458
171.737
172.017
172.295
172.572
172.848
173.124
173.398
173.671
173.943
174.214
174.483
174.752
175.019
175.285
175.55
175.814
176.076
176.338
176.599
176.86
177.118
177.378
177.631
177.913
178.091
144.403
144.402
144.402
144.402
144.402
144.402
144.402
144.402
144.402
144.402
144.402
144.402
144.402
145.13
145.166
145.204
145.244
145.286
145.33
145.376
145.423
145.474
145.526
145.581
145.639
145.699
145.763
145.829
145.898
145.971
146.047
146.127
146.211
146.298
146.389
146.483
146.582
146.685
146.792
146.902
147.017
147.135
147.257
147.383
147.512
147.645
147.781
147.921
148.063
148.209
148.357
148.509
148.663
148.819
148.978
149.14
149.304
149.471
149.641
149.813
149.988
150.166
150.347
150.532
150.72
150.912
151.109
151.309
151.514
151.724
151.939
152.16
152.386
152.617
152.854
153.097
153.346
153.6
153.86
154.125
154.395
154.67
154.95
155.234
155.521
155.811
156.104
156.399
156.696
156.994
157.293
157.592
157.891
158.19
158.487
158.784
159.079
159.373
159.664
159.953
160.24
160.525
160.808
161.088
161.365
161.641
161.915
162.186
162.456
162.725
162.992
163.258
163.524
163.789
164.053
164.318
164.582
164.847
165.113
165.379
165.645
165.913
166.182
166.452
166.723
166.995
167.268
167.545
167.828
168.111
168.394
168.677
168.959
169.241
169.523
169.805
170.086
170.366
170.646
170.925
171.204
171.481
171.757
172.033
172.307
172.58
172.851
173.121
173.39
173.657
173.923
174.188
174.452
174.714
174.977
175.238
175.499
175.759
176.019
176.279
176.538
176.798
177.057
177.316
177.575
177.835
178.095
178.355
178.615
178.876
179.139
179.407
179.677
179.945
180.212
180.479
180.744
181.007
181.27
181.531
181.792
182.051
182.308
182.565
182.821
183.075
183.329
183.581
183.832
184.083
184.332
184.581
184.829
185.075
185.322
185.567
185.812
186.056
186.3
186.544
186.787
187.029
187.272
187.508
187.798
187.903
144.417
144.416
144.416
144.415
144.414
144.414
144.413
144.413
144.413
144.412
144.412
144.412
144.413
148.505
148.659
148.815
148.974
149.135
149.299
149.466
149.635
149.807
149.982
150.159
150.34
150.523
150.71
150.901
151.094
151.292
151.494
151.7
151.911
152.126
152.347
152.572
152.802
153.038
153.279
153.524
153.775
154.031
154.291
154.556
154.824
155.097
155.372
155.651
155.932
156.215
156.499
156.785
157.071
157.358
157.645
157.931
158.217
158.501
158.784
159.066
159.346
159.624
159.9
160.174
160.445
160.715
160.983
161.25
161.514
161.777
162.039
162.3
162.56
162.82
163.079
163.338
163.597
163.856
164.116
164.376
164.637
164.899
165.162
165.426
165.691
165.958
166.225
166.494
166.769
167.046
167.322
167.598
167.874
168.149
168.424
168.699
168.973
169.247
169.519
169.791
170.062
170.332
170.6
170.868
171.135
171.401
171.665
171.929
172.192
172.455
172.716
172.977
173.237
173.497
173.757
174.016
174.275
174.534
174.793
175.052
175.312
175.571
175.831
176.092
176.353
176.614
176.876
177.141
177.411
177.68
177.949
178.216
178.483
178.748
179.013
179.276
179.539
179.8
180.061
180.321
180.579
180.837
181.094
181.35
181.604
181.858
182.111
182.363
182.614
182.864
183.113
183.361
183.609
183.856
184.103
184.35
184.596
184.842
185.087
185.333
185.578
185.824
186.069
186.314
186.559
186.804
187.049
187.295
187.54
187.786
188.031
188.277
188.521
188.764
189.006
189.246
189.486
189.724
189.961
190.197
190.432
190.666
190.898
191.13
191.36
191.59
191.819
192.046
192.273
192.499
192.724
192.948
193.171
193.393
193.614
193.835
194.054
194.272
194.49
194.706
194.921
195.136
195.349
195.556
195.816
195.798
144.517
144.511
144.505
144.5
144.496
144.492
144.489
144.486
144.484
144.483
144.483
144.483
144.484
144.485
156.036
156.307
156.579
156.852
157.126
157.399
157.673
157.946
158.218
158.489
158.759
159.028
159.295
159.56
159.824
160.086
160.346
160.604
160.862
161.118
161.372
161.626
161.879
162.132
162.384
162.636
162.888
163.141
163.394
163.647
163.901
164.156
164.412
164.67
164.928
165.187
165.448
165.71
165.975
166.243
166.512
166.78
167.048
167.315
167.582
167.849
168.115
168.38
168.645
168.909
169.172
169.434
169.695
169.955
170.214
170.473
170.73
170.987
171.243
171.499
171.754
172.009
172.263
172.518
172.772
173.026
173.28
173.535
173.79
174.045
174.3
174.556
174.812
175.07
175.328
175.59
175.854
176.117
176.379
176.64
176.901
177.16
177.418
177.675
177.931
178.187
178.441
178.695
178.947
179.199
179.45
179.701
179.951
180.2
180.449
180.697
180.945
181.193
181.44
181.687
181.934
182.181
182.428
182.674
182.921
183.168
183.415
183.662
183.909
184.156
184.403
184.65
184.898
185.146
185.393
185.64
185.886
186.131
186.376
186.619
186.861
187.102
187.342
187.582
187.82
188.058
188.295
188.532
188.767
189.002
189.236
189.47
189.702
189.934
190.165
190.395
190.625
190.854
191.082
191.309
191.537
191.763
191.989
192.214
192.439
192.663
192.887
193.11
193.332
193.553
193.773
193.992
194.21
194.427
194.643
194.857
195.07
195.281
195.49
195.698
195.904
196.108
196.31
196.511
196.71
196.906
197.101
197.294
197.485
197.674
197.861
198.046
198.229
198.409
198.587
198.762
198.936
199.106
199.274
199.439
199.602
199.761
199.917
200.071
200.221
200.368
200.512
200.652
200.79
200.924
201.05
201.16
201.056
145.072
145.041
145.013
144.988
144.966
144.947
144.931
144.919
144.91
144.907
144.908
144.91
144.915
144.924
164.539
164.79
165.044
165.298
165.557
165.816
166.075
166.334
166.592
166.85
167.108
167.365
167.621
167.877
168.132
168.386
168.64
168.892
169.144
169.395
169.646
169.896
170.145
170.394
170.643
170.891
171.139
171.387
171.635
171.883
172.131
172.38
172.628
172.878
173.127
173.378
173.629
173.88
174.135
174.392
174.648
174.903
175.158
175.412
175.664
175.916
176.167
176.418
176.667
176.916
177.163
177.411
177.657
177.903
178.148
178.393
178.637
178.881
179.125
179.369
179.612
179.855
180.098
180.341
180.584
180.828
181.071
181.314
181.558
181.801
182.045
182.289
182.533
182.777
183.021
183.265
183.509
183.751
183.992
184.232
184.472
184.71
184.948
185.184
185.42
185.656
185.89
186.124
186.358
186.591
186.823
187.055
187.287
187.518
187.749
187.979
188.209
188.439
188.669
188.898
189.127
189.355
189.583
189.811
190.038
190.265
190.491
190.717
190.942
191.167
191.39
191.613
191.835
192.056
192.276
192.495
192.713
192.929
193.145
193.36
193.574
193.787
193.999
194.211
194.421
194.63
194.839
195.046
195.252
195.457
195.66
195.862
196.063
196.262
196.459
196.655
196.849
197.041
197.231
197.42
197.607
197.792
197.974
198.155
198.334
198.511
198.685
198.857
199.026
199.192
199.356
199.517
199.676
199.831
199.983
200.132
200.277
200.419
200.557
200.692
200.823
200.95
201.073
201.193
201.307
201.418
201.525
201.627
201.725
201.818
201.907
201.991
202.071
202.147
202.218
202.285
202.347
202.405
202.458
202.507
202.552
202.593
202.63
202.665
202.697
202.727
202.755
202.781
202.805
202.828
202.834
202.815
202.706
147.275
147.178
147.089
147.01
146.941
146.883
146.834
146.797
146.776
146.776
146.782
146.797
146.826
146.87
172.148
172.392
172.636
172.88
173.129
173.377
173.625
173.872
174.118
174.364
174.608
174.852
175.096
175.338
175.58
175.821
176.061
176.301
176.541
176.78
177.019
177.257
177.495
177.733
177.971
178.209
178.447
178.685
178.923
179.161
179.399
179.637
179.875
180.114
180.353
180.591
180.83
181.07
181.309
181.547
181.785
182.022
182.258
182.493
182.727
182.961
183.194
183.427
183.659
183.89
184.121
184.351
184.582
184.811
185.041
185.27
185.499
185.727
185.956
186.184
186.412
186.639
186.867
187.094
187.32
187.547
187.773
187.998
188.223
188.448
188.672
188.895
189.117
189.339
189.559
189.779
189.998
190.215
190.432
190.648
190.863
191.078
191.291
191.504
191.717
191.928
192.139
192.349
192.558
192.767
192.975
193.182
193.389
193.595
193.799
194.004
194.207
194.409
194.61
194.811
195.01
195.208
195.405
195.601
195.796
195.989
196.181
196.371
196.56
196.748
196.933
197.117
197.3
197.481
197.66
197.837
198.013
198.187
198.359
198.529
198.697
198.863
199.027
199.189
199.348
199.505
199.659
199.811
199.959
200.105
200.247
200.386
200.522
200.654
200.782
200.906
201.027
201.143
201.255
201.363
201.467
201.566
201.661
201.751
201.836
201.916
201.991
202.061
202.126
202.186
202.241
202.291
202.335
202.375
202.411
202.444
202.473
202.5
202.523
202.544
202.562
202.577
202.59
202.6
202.609
202.615
202.62
202.623
202.624
202.625
202.624
202.622
202.619
202.615
202.611
202.606
202.601
202.596
202.592
202.587
202.584
202.581
202.577
202.571
202.563
202.553
202.542
202.529
202.515
202.497
202.467
202.411
202.344
152.078
151.924
151.783
151.658
151.55
151.459
151.385
151.333
151.32
151.327
151.349
151.392
151.463
178.911
179.144
179.376
179.609
179.841
180.073
180.304
180.534
180.764
180.993
181.221
181.449
181.676
181.903
182.13
182.356
182.582
182.807
183.032
183.257
183.482
183.707
183.932
184.156
184.38
184.604
184.828
185.052
185.275
185.499
185.722
185.944
186.166
186.388
186.609
186.83
187.05
187.269
187.487
187.705
187.922
188.138
188.354
188.569
188.783
188.996
189.209
189.422
189.634
189.845
190.056
190.266
190.476
190.685
190.893
191.101
191.308
191.515
191.721
191.926
192.13
192.333
192.536
192.738
192.938
193.138
193.337
193.535
193.732
193.927
194.122
194.315
194.508
194.699
194.889
195.078
195.266
195.453
195.638
195.823
196.006
196.188
196.369
196.548
196.726
196.903
197.078
197.252
197.425
197.595
197.764
197.932
198.098
198.262
198.424
198.584
198.742
198.898
199.052
199.203
199.353
199.5
199.645
199.787
199.926
200.063
200.197
200.329
200.457
200.583
200.705
200.824
200.94
201.051
201.16
201.264
201.364
201.46
201.552
201.64
201.722
201.8
201.873
201.941
202.004
202.061
202.113
202.159
202.2
202.237
202.27
202.3
202.326
202.349
202.368
202.385
202.398
202.408
202.416
202.421
202.424
202.425
202.424
202.422
202.418
202.413
202.407
202.399
202.392
202.383
202.375
202.367
202.359
202.352
202.343
202.331
202.317
202.301
202.282
202.262
202.24
202.216
202.19
202.162
202.132
202.1
202.066
202.031
201.994
201.954
201.913
201.871
201.826
201.779
201.73
201.679
201.626
201.57
201.511
201.45
201.385
201.316
201.245
201.172
201.096
201.017
200.936
200.853
200.768
200.678
200.578
200.452
200.48
158.427
158.276
158.138
158.017
157.912
157.826
157.758
157.727
157.73
157.747
157.787
157.857
157.96
185.255
185.47
185.684
185.898
186.111
186.324
186.536
186.747
186.958
187.169
187.379
187.589
187.799
188.008
188.216
188.424
188.632
188.84
189.046
189.253
189.459
189.664
189.869
190.073
190.276
190.479
190.681
190.882
191.082
191.282
191.481
191.679
191.876
192.072
192.267
192.461
192.655
192.847
193.039
193.23
193.42
193.609
193.797
193.984
194.17
194.355
194.54
194.723
194.905
195.086
195.266
195.445
195.623
195.799
195.975
196.149
196.322
196.493
196.663
196.832
196.999
197.165
197.329
197.491
197.652
197.812
197.969
198.125
198.279
198.431
198.582
198.73
198.877
199.021
199.164
199.304
199.442
199.578
199.712
199.843
199.972
200.098
200.222
200.343
200.462
200.578
200.69
200.8
200.906
201.009
201.109
201.205
201.296
201.384
201.467
201.546
201.621
201.69
201.755
201.814
201.869
201.918
201.962
202.001
202.037
202.069
202.098
202.123
202.145
202.164
202.181
202.194
202.204
202.212
202.218
202.221
202.223
202.222
202.22
202.217
202.213
202.207
202.201
202.194
202.187
202.18
202.172
202.162
202.149
202.133
202.114
202.093
202.069
202.042
202.014
201.983
201.951
201.916
201.879
201.84
201.799
201.756
201.71
201.663
201.613
201.561
201.507
201.45
201.39
201.327
201.261
201.192
201.12
201.046
200.971
200.892
200.812
200.729
200.644
200.556
200.465
200.372
200.276
200.177
200.075
199.969
199.861
199.749
199.634
199.515
199.392
199.266
199.135
199
198.861
198.717
198.569
198.416
198.259
198.097
197.93
197.758
197.581
197.399
197.212
197.02
196.822
196.616
196.399
196.191
196.324
164.262
164.151
164.056
163.978
163.917
163.885
163.886
163.899
163.934
163.998
164.093
164.217
190.276
190.471
190.664
190.857
191.05
191.241
191.432
191.622
191.812
192.001
192.189
192.376
192.563
192.749
192.934
193.118
193.301
193.484
193.665
193.845
194.025
194.203
194.381
194.557
194.732
194.907
195.08
195.251
195.422
195.592
195.76
195.927
196.093
196.257
196.421
196.583
196.744
196.903
197.061
197.218
197.373
197.527
197.679
197.829
197.978
198.126
198.271
198.415
198.557
198.697
198.836
198.972
199.106
199.239
199.369
199.497
199.623
199.746
199.868
199.986
200.103
200.217
200.329
200.438
200.545
200.648
200.749
200.847
200.942
201.033
201.121
201.205
201.285
201.362
201.434
201.502
201.565
201.623
201.677
201.726
201.769
201.808
201.843
201.874
201.902
201.927
201.949
201.967
201.982
201.995
202.004
202.011
202.016
202.018
202.017
202.015
202.012
202.007
202.001
201.994
201.987
201.98
201.973
201.966
201.955
201.942
201.925
201.906
201.884
201.86
201.833
201.805
201.773
201.74
201.705
201.667
201.628
201.586
201.541
201.494
201.445
201.392
201.337
201.278
201.216
201.149
201.079
201.007
200.932
200.855
200.775
200.693
200.608
200.521
200.431
200.338
200.243
200.145
200.045
199.941
199.834
199.725
199.612
199.496
199.377
199.254
199.128
198.998
198.865
198.729
198.588
198.445
198.297
198.147
197.992
197.833
197.67
197.503
197.331
197.155
196.974
196.788
196.597
196.4
196.198
195.991
195.778
195.558
195.333
195.102
194.864
194.62
194.37
194.113
193.85
193.58
193.304
193.02
192.729
192.431
192.126
191.813
191.493
191.165
190.828
190.485
190.132
189.765
189.379
189.085
189.34
169.814
169.737
169.676
169.63
169.611
169.613
169.628
169.663
169.723
169.81
194.413
194.581
194.748
194.915
195.08
195.244
195.408
195.57
195.731
195.89
196.049
196.206
196.362
196.517
196.671
196.823
196.974
197.123
197.271
197.418
197.563
197.707
197.849
197.989
198.128
198.265
198.401
198.535
198.667
198.797
198.925
199.052
199.176
199.298
199.419
199.537
199.653
199.767
199.879
199.989
200.096
200.201
200.304
200.404
200.502
200.598
200.69
200.78
200.867
200.951
201.031
201.108
201.182
201.252
201.317
201.379
201.437
201.489
201.538
201.581
201.619
201.654
201.685
201.713
201.737
201.759
201.777
201.793
201.805
201.815
201.822
201.827
201.829
201.829
201.827
201.824
201.819
201.814
201.808
201.801
201.794
201.788
201.778
201.766
201.75
201.731
201.71
201.686
201.659
201.629
201.597
201.563
201.526
201.486
201.444
201.4
201.353
201.303
201.251
201.195
201.137
201.074
201.008
200.939
200.867
200.792
200.716
200.637
200.555
200.471
200.385
200.296
200.205
200.11
200.013
199.913
199.81
199.704
199.595
199.483
199.367
199.247
199.124
198.998
198.868
198.735
198.598
198.459
198.316
198.17
198.02
197.867
197.71
197.55
197.386
197.218
197.046
196.87
196.689
196.504
196.315
196.121
195.922
195.718
195.509
195.295
195.076
194.851
194.62
194.384
194.142
193.894
193.64
193.38
193.113
192.84
192.56
192.274
191.98
191.68
191.372
191.057
190.735
190.405
190.068
189.723
189.369
189.008
188.638
188.26
187.874
187.479
187.074
186.661
186.238
185.805
185.362
184.908
184.444
183.969
183.483
182.988
182.482
181.968
181.444
180.912
180.369
179.804
179.22
178.854
179.281
174.824
174.802
174.8
174.809
174.834
174.878
174.943
175.029
175.138
197.751
197.885
198.017
198.148
198.277
198.405
198.531
198.655
198.777
198.898
199.017
199.134
199.249
199.362
199.473
199.582
199.689
199.793
199.896
199.997
200.095
200.191
200.285
200.376
200.466
200.552
200.637
200.718
200.797
200.873
200.946
201.016
201.082
201.145
201.205
201.26
201.311
201.358
201.4
201.438
201.471
201.502
201.529
201.553
201.575
201.593
201.609
201.621
201.631
201.639
201.643
201.646
201.647
201.646
201.643
201.639
201.634
201.628
201.623
201.617
201.61
201.6
201.586
201.57
201.55
201.528
201.503
201.475
201.445
201.412
201.377
201.338
201.298
201.254
201.208
201.159
201.107
201.051
200.992
200.929
200.862
200.792
200.72
200.645
200.567
200.486
200.403
200.317
200.228
200.136
200.042
199.944
199.843
199.74
199.632
199.522
199.409
199.292
199.172
199.049
198.923
198.794
198.662
198.527
198.39
198.25
198.107
197.96
197.811
197.658
197.503
197.344
197.181
197.015
196.845
196.671
196.494
196.312
196.126
195.936
195.742
195.542
195.339
195.13
194.917
194.698
194.475
194.246
194.012
193.772
193.527
193.276
193.019
192.756
192.487
192.211
191.929
191.641
191.347
191.045
190.737
190.422
190.1
189.771
189.435
189.091
188.739
188.38
188.013
187.637
187.253
186.861
186.46
186.051
185.632
185.205
184.767
184.32
183.862
183.393
182.914
182.425
181.925
181.415
180.896
180.367
179.829
179.282
178.727
178.162
177.59
177.008
176.419
175.82
175.213
174.598
173.974
173.342
172.703
172.058
171.407
170.751
170.09
169.426
168.76
168.088
167.394
166.694
166.336
166.966
179.412
179.422
199.925
200.016
200.106
200.193
200.278
200.361
200.442
200.52
200.596
200.67
200.74
200.808
200.873
200.936
200.994
201.05
201.102
201.15
201.194
201.234
201.27
201.301
201.33
201.356
201.379
201.399
201.416
201.431
201.443
201.452
201.459
201.464
201.467
201.467
201.466
201.464
201.461
201.457
201.452
201.448
201.443
201.434
201.423
201.409
201.392
201.372
201.349
201.324
201.296
201.265
201.232
201.196
201.157
201.116
201.072
201.025
200.974
200.921
200.863
200.801
200.736
200.668
200.597
200.524
200.447
200.368
200.286
200.2
200.112
200.021
199.926
199.829
199.728
199.623
199.516
199.404
199.29
199.172
199.051
198.926
198.799
198.669
198.536
198.4
198.261
198.118
197.973
197.825
197.673
197.518
197.36
197.199
197.034
196.866
196.694
196.519
196.341
196.159
195.973
195.784
195.592
195.395
195.195
194.991
194.783
194.57
194.353
194.132
193.907
193.676
193.441
193.201
192.955
192.704
192.448
192.185
191.917
191.643
191.362
191.074
190.781
190.48
190.173
189.859
189.538
189.21
188.874
188.532
188.182
187.825
187.46
187.088
186.707
186.319
185.922
185.517
185.103
184.681
184.25
183.809
183.359
182.898
182.428
181.946
181.454
180.952
180.44
179.918
179.387
178.846
178.296
177.737
177.169
176.593
176.008
175.415
174.813
174.202
173.583
172.955
172.32
171.677
171.028
170.374
169.715
169.052
168.385
167.715
167.042
166.366
165.687
165.006
164.322
163.636
162.948
162.258
161.567
160.876
160.185
159.494
158.805
158.118
157.433
156.751
156.075
155.403
154.72
154.047
153.704
154.39
201.049
201.086
201.118
201.146
201.172
201.195
201.216
201.234
201.249
201.262
201.273
201.281
201.286
201.29
201.292
201.292
201.291
201.289
201.286
201.282
201.279
201.275
201.268
201.258
201.245
201.23
201.211
201.19
201.167
201.141
201.112
201.081
201.047
201.011
200.972
200.93
200.884
200.836
200.784
200.728
200.668
200.606
200.54
200.472
200.401
200.327
200.249
200.169
200.086
200
199.91
199.817
199.721
199.621
199.518
199.412
199.301
199.188
199.071
198.951
198.828
198.702
198.572
198.44
198.305
198.166
198.025
197.88
197.731
197.58
197.425
197.267
197.105
196.94
196.772
196.601
196.426
196.248
196.067
195.882
195.694
195.502
195.307
195.108
194.905
194.698
194.488
194.274
194.055
193.833
193.606
193.374
193.138
192.898
192.653
192.403
192.147
191.887
191.622
191.351
191.074
190.792
190.504
190.21
189.91
189.603
189.291
188.972
188.646
188.315
187.976
187.631
187.278
186.918
186.551
186.176
185.793
185.402
185.002
184.594
184.177
183.752
183.317
182.873
182.42
181.957
181.484
181
180.506
180.001
179.487
178.963
178.429
177.886
177.334
176.773
176.203
175.625
175.037
174.441
173.837
173.224
172.602
171.971
171.334
170.689
170.039
169.383
168.723
168.059
167.391
166.72
166.046
165.37
164.691
164.01
163.326
162.641
161.955
161.268
160.581
159.895
159.21
158.526
157.845
157.166
156.491
155.82
155.154
154.494
153.842
153.198
152.565
151.944
151.34
150.753
150.188
149.646
149.13
148.643
148.185
147.76
147.366
147.005
146.678
146.382
146.112
145.869
145.734
145.989
201.118
201.116
201.113
201.109
201.102
201.092
201.08
201.065
201.047
201.027
201.004
200.979
200.952
200.922
200.889
200.854
200.816
200.775
200.731
200.684
200.632
200.577
200.52
200.459
200.396
200.33
200.261
200.189
200.114
200.036
199.955
199.87
199.783
199.692
199.597
199.499
199.397
199.292
199.184
199.072
198.958
198.84
198.719
198.595
198.468
198.337
198.204
198.067
197.926
197.783
197.636
197.486
197.332
197.175
197.015
196.851
196.685
196.515
196.342
196.165
195.985
195.802
195.616
195.426
195.232
195.035
194.834
194.63
194.422
194.21
193.994
193.775
193.551
193.324
193.092
192.857
192.617
192.372
192.123
191.869
191.61
191.347
191.078
190.804
190.525
190.24
189.949
189.652
189.35
189.042
188.727
188.406
188.079
187.745
187.405
187.058
186.704
186.344