/*--------------------------------*- C++ -*----------------------------------*\
| =========                 |                                                 |
| \\      /  F ield         | OpenFOAM: The Open Source CFD Toolbox           |
|  \\    /   O peration     | Version:  v1706                                 |
|   \\  /    A nd           | Web:      www.OpenFOAM.com                      |
|    \\/     M anipulation  |                                                 |
\*---------------------------------------------------------------------------*/
FoamFile
{
    version     2.0;
    format      ascii;
    class       volVectorField;
    location    "3e-06";
    object      U;
}
// * * * * * * * * * * * * * * * * * * * * * * * * * * * * * * * * * * * * * //

dimensions      [0 1 -1 0 0 0 0];


internalField   nonuniform List<vector> 
30104
(
(2764.5 1.81522e-05 3.95341e-15)
(2764.5 1.69515e-05 7.95999e-15)
(2764.5 1.58121e-05 7.98584e-15)
(2764.5 1.47692e-05 5.14422e-15)
(2764.5 1.37868e-05 5.9783e-15)
(2764.5 1.29056e-05 7.79532e-15)
(2764.5 1.21598e-05 2.64199e-15)
(2764.5 1.1438e-05 2.88527e-15)
(2764.5 1.08632e-05 6.76809e-15)
(2764.5 1.03974e-05 7.50178e-15)
(2764.5 9.93793e-06 4.80023e-15)
(2764.5 9.62607e-06 8.16988e-15)
(2764.5 9.51862e-06 2.08909e-15)
(2764.5 9.57701e-06 5.75995e-15)
(2764.5 9.66824e-06 8.46966e-15)
(2764.5 9.7309e-06 8.14709e-15)
(2764.5 9.84374e-06 7.46363e-15)
(2764.5 0.000321354 3.73901e-15)
(2764.5 0.000326708 4.76831e-15)
(2764.5 0.000331635 4.6513e-15)
(2764.5 0.000336162 4.56814e-15)
(2764.5 0.000340181 4.52761e-15)
(2764.5 0.000343621 4.45347e-15)
(2764.5 0.00034642 4.4565e-15)
(2764.5 0.000348513 5.40388e-15)
(2764.5 0.000349836 5.04401e-15)
(2764.5 0.000350324 4.21509e-15)
(2764.5 0.000349915 4.21775e-15)
(2764.5 0.000348551 4.02345e-15)
(2764.5 0.000346149 5.53603e-15)
(2764.5 0.000342653 5.08476e-15)
(2764.5 0.000338083 2.42303e-15)
(2764.5 0.000332439 3.04565e-15)
(2764.5 0.000325728 3.57732e-15)
(2764.5 0.000317987 3.44501e-15)
(2764.5 0.000309272 5.51347e-15)
(2764.5 0.000299663 3.22407e-15)
(2764.5 0.000289261 5.18663e-15)
(2764.5 0.000278188 5.79576e-15)
(2764.5 0.000266591 3.80447e-15)
(2764.5 0.000254634 3.94994e-15)
(2764.5 0.000242502 3.9329e-15)
(2764.5 0.0002304 3.97275e-15)
(2764.5 0.000218554 3.93387e-15)
(2764.5 0.000207205 3.98405e-15)
(2764.5 0.000196614 3.74108e-15)
(2764.5 0.000187062 4.38715e-15)
(2764.5 0.000178844 2.40509e-15)
(2764.5 0.000172272 4.36492e-15)
(2764.5 0.000167673 5.52212e-15)
(2764.5 0.000165383 3.99847e-15)
(2764.5 0.000165753 3.03778e-15)
(2764.5 0.000169137 2.69079e-15)
(2764.5 0.000175892 5.20527e-15)
(2764.5 0.000186375 2.9773e-15)
(2764.5 0.000200931 3.6484e-15)
(2764.5 0.000219895 4.50321e-15)
(2764.5 0.000243583 3.30221e-15)
(2764.5 0.000272287 4.03055e-15)
(2764.5 0.000306277 4.01557e-15)
(2764.5 0.000345796 4.7923e-15)
(2764.5 0.000391063 5.5382e-15)
(2764.5 0.000442274 4.12373e-15)
(2764.5 0.000499589 4.20001e-15)
(2764.5 0.000563109 3.37379e-15)
(2764.5 0.00063286 4.16609e-15)
(2764.5 0.000708778 1.80083e-15)
(2764.5 0.000790718 4.95602e-15)
(2764.5 0.000878458 4.18353e-15)
(2764.5 0.000971711 2.11274e-15)
(2764.5 0.00107012 3.00331e-15)
(2764.5 0.00117328 4.41854e-15)
(2764.5 0.00128065 1.42548e-15)
(2764.5 0.00139164 3.89726e-15)
(2764.5 0.00150566 3.95028e-15)
(2764.5 0.00162208 3.19417e-15)
(2764.5 0.00174026 3.06147e-15)
(2764.5 0.00185958 2.32234e-15)
(2764.5 0.00197944 4.40912e-15)
(2764.5 0.00209932 4.39189e-15)
(2764.5 0.00221873 2.94533e-15)
(2764.5 0.00233728 5.58325e-15)
(2764.5 0.00245465 4.86432e-15)
(2764.5 0.00257061 4.30204e-15)
(2764.5 0.00268501 4.56815e-15)
(2764.5 0.00279776 4.08851e-15)
(2764.5 0.00290883 4.29662e-15)
(2764.5 0.00301825 3.62004e-15)
(2764.5 0.00312605 3.67773e-15)
(2764.5 0.0032323 3.55069e-15)
(2764.5 0.00333706 2.20308e-15)
(2764.5 0.0034404 4.51236e-15)
(2764.5 0.00354235 4.99434e-15)
(2764.5 0.00364294 3.94044e-15)
(2764.5 0.00374216 1.60968e-15)
(2764.5 0.00383996 1.51346e-15)
(2764.5 0.00393625 3.45652e-15)
(2764.5 0.00403089 2.29745e-15)
(2764.5 0.0041237 2.72629e-15)
(2764.5 0.00421444 1.94619e-15)
(2764.5 0.00430278 2.38003e-15)
(2764.5 0.00438833 4.64699e-15)
(2764.5 0.00447059 4.45502e-15)
(2764.5 0.00454994 3.56019e-15)
(2764.5 0.00462577 2.9268e-15)
(2764.5 0.00469707 3.36299e-15)
(2764.5 0.00476317 3.97635e-15)
(2764.5 0.00482331 3.96046e-15)
(2764.5 0.00487671 4.57719e-15)
(2764.5 0.00492249 4.9167e-15)
(2764.5 0.00495971 3.61066e-15)
(2764.5 0.00498739 2.43206e-15)
(2764.5 0.00500447 3.3387e-15)
(2764.5 0.00500986 1.95205e-15)
(2764.5 0.00500245 1.65985e-15)
(2764.5 0.00498108 3.24279e-15)
(2764.5 0.00494461 3.2341e-15)
(2764.5 0.00489193 3.22586e-15)
(2764.5 0.00482197 3.20481e-15)
(2764.5 0.00473378 2.87068e-15)
(2764.5 0.0046265 2.93329e-15)
(2764.5 0.0044986 2.96359e-15)
(2764.5 0.00434827 3.25736e-15)
(2764.5 0.00417749 2.06446e-15)
(2764.5 0.00398636 1.54786e-15)
(2764.5 0.00377472 3.66197e-15)
(2764.5 0.00354293 4.12253e-15)
(2764.5 0.00329164 3.63243e-15)
(2764.5 0.00302178 3.87489e-15)
(2764.5 0.00273451 3.51325e-15)
(2764.5 0.00243126 3.2229e-15)
(2764.5 0.00211375 2.11347e-15)
(2764.5 0.0017838 2.44907e-15)
(2764.5 0.00144365 3.02012e-15)
(2764.5 0.00109608 3.4323e-15)
(2764.5 0.000744242 3.22842e-15)
(2764.5 0.00039173 2.9319e-15)
(2764.5 4.26383e-05 3.3848e-15)
(2764.5 -0.000298436 1.67751e-15)
(2764.5 -0.000626408 3.79812e-15)
(2764.5 -0.000935785 4.31568e-15)
(2764.5 -0.00122074 1.37563e-15)
(2764.5 -0.00147507 8.94463e-16)
(2764.5 -0.00169218 1.58287e-15)
(2764.5 -0.0018651 1.92092e-15)
(2764.5 -0.00198661 2.47762e-15)
(2764.5 -0.00204933 2.00941e-15)
(2764.5 -0.00204593 2.56569e-15)
(2764.5 -0.00196916 2.84338e-15)
(2764.5 -0.00181199 2.19525e-15)
(2764.5 -0.00156754 2.67797e-15)
(2764.5 -0.00122914 1.90658e-15)
(2764.5 -0.000790531 2.89339e-15)
(2764.5 -0.000245945 1.7399e-15)
(2764.5 0.000409799 2.65602e-15)
(2764.5 0.00118132 2.4603e-15)
(2764.5 0.00207273 1.84965e-15)
(2764.5 0.00308776 3.19335e-15)
(2764.5 0.00422994 3.82611e-15)
(2764.5 0.0055024 3.22158e-15)
(2764.5 0.00690724 3.33615e-15)
(2764.5 0.00844469 2.14589e-15)
(2764.5 0.0101135 2.46824e-15)
(2764.49 0.011911 4.11357e-15)
(2764.49 0.0138332 3.44793e-15)
(2764.49 0.0158748 2.09935e-15)
(2764.49 0.0180294 1.63727e-15)
(2764.49 0.0202887 3.51397e-15)
(2764.49 0.0226429 1.61013e-15)
(2764.49 0.0250813 2.51637e-15)
(2764.49 0.0275911 2.51403e-15)
(2764.49 0.0301582 2.72333e-15)
(2764.49 0.0327688 3.42458e-15)
(2764.49 0.0354085 2.70498e-15)
(2764.49 0.0380632 3.31094e-15)
(2764.49 0.0407195 3.02349e-15)
(2764.49 0.0433648 2.28963e-15)
(2764.49 0.0459881 2.08652e-15)
(2764.48 0.0485803 2.92e-15)
(2764.48 0.0511346 1.63177e-15)
(2764.48 0.0536463 2.77235e-15)
(2764.48 0.0561125 2.43669e-15)
(2764.49 0.0585323 2.35421e-15)
(2764.49 0.0609067 3.40225e-15)
(2764.49 0.0632375 2.56865e-15)
(2764.49 0.0655279 2.23943e-15)
(2764.49 0.0677816 1.49253e-15)
(2764.49 0.0700028 2.9757e-15)
(2764.49 0.0721958 2.67498e-15)
(2764.49 0.0743651 2.42563e-15)
(2764.49 0.0765149 2.27652e-15)
(2764.49 0.0786491 1.83018e-15)
(2764.49 0.0807715 2.00198e-15)
(2764.48 0.0828852 2.858e-15)
(2764.48 0.0849931 2.33907e-15)
(2764.48 0.0870977 1.90426e-15)
(2764.48 0.0892 2.06604e-15)
(2764.48 0.0913022 1.84479e-15)
(2764.48 0.0934034 2.50008e-15)
(2764.48 0.0955058 2.79352e-15)
(2764.48 0.0976057 2.44955e-15)
(2764.48 0.0997056 2.6886e-15)
(2764.48 0.101799 2.21681e-15)
(2764.48 0.103889 2.05959e-15)
(2764.48 0.105983 2.69912e-15)
(2764.48 0.108067 2.86325e-15)
(2764.47 0.110141 2.88761e-15)
(2764.47 0.112239 2.82014e-15)
(2764.47 0.11436 2.75168e-15)
(2764.47 0.112565 2.59457e-15)
(2764.5 0.00017926 1.48357e-14)
(2764.5 0.000172163 1.65667e-14)
(2764.5 0.000165411 1.34742e-14)
(2764.5 0.000159024 1.28774e-14)
(2764.5 0.00015298 1.44251e-14)
(2764.5 0.000147369 1.43964e-14)
(2764.5 0.000142184 1.30146e-14)
(2764.5 0.000137391 1.36511e-14)
(2764.5 0.000133203 1.64445e-14)
(2764.5 0.000129674 1.51858e-14)
(2764.5 0.000126562 1.20775e-14)
(2764.5 0.000123628 1.68264e-14)
(2764.5 0.000121121 1.76127e-14)
(2764.5 0.000119911 1.62498e-14)
(2764.5 0.000119806 1.65135e-14)
(2764.5 0.000119927 1.58654e-14)
(2764.5 0.000120278 1.37323e-14)
(2764.5 0.00179137 6.07847e-15)
(2764.5 0.00186594 8.62774e-15)
(2764.5 0.00194941 1.0811e-14)
(2764.5 0.00204241 1.05688e-14)
(2764.5 0.00214555 9.92614e-15)
(2764.5 0.00225946 1.03875e-14)
(2764.5 0.00238473 8.68633e-15)
(2764.5 0.00252196 1.0319e-14)
(2764.5 0.00267166 1.19675e-14)
(2764.5 0.00283435 9.18694e-15)
(2764.5 0.00301043 6.66195e-15)
(2764.5 0.00320026 8.70067e-15)
(2764.5 0.0034041 9.335e-15)
(2764.5 0.00362206 9.18042e-15)
(2764.5 0.00385414 6.3928e-15)
(2764.5 0.00410021 7.5247e-15)
(2764.5 0.00435997 8.27091e-15)
(2764.5 0.004633 7.52025e-15)
(2764.5 0.00491868 1.12932e-14)
(2764.5 0.00521629 9.87852e-15)
(2764.5 0.00552495 1.03509e-14)
(2764.5 0.00584367 1.07755e-14)
(2764.5 0.00617138 1.01823e-14)
(2764.5 0.00650695 9.79817e-15)
(2764.5 0.0068492 9.40388e-15)
(2764.5 0.00719696 9.32331e-15)
(2764.5 0.00754911 9.14534e-15)
(2764.5 0.00790454 9.12549e-15)
(2764.5 0.00826223 8.70056e-15)
(2764.5 0.00862122 9.48588e-15)
(2764.5 0.00898064 7.82008e-15)
(2764.5 0.0093397 1.03258e-14)
(2764.5 0.00969766 9.89608e-15)
(2764.5 0.0100538 9.05989e-15)
(2764.5 0.0104075 6.81629e-15)
(2764.5 0.0107582 9.04455e-15)
(2764.5 0.011105 1.03789e-14)
(2764.49 0.0114474 7.83405e-15)
(2764.49 0.0117846 8.68725e-15)
(2764.49 0.0121159 1.01694e-14)
(2764.49 0.0124404 1.01017e-14)
(2764.49 0.0127571 1.12556e-14)
(2764.49 0.0130651 9.11966e-15)
(2764.49 0.0133633 9.27334e-15)
(2764.49 0.0136505 1.1469e-14)
(2764.49 0.0139255 9.50201e-15)
(2764.49 0.0141868 7.56723e-15)
(2764.49 0.014433 7.86513e-15)
(2764.49 0.0146627 1.00356e-14)
(2764.49 0.0148743 7.64503e-15)
(2764.49 0.0150664 8.85715e-15)
(2764.49 0.0152372 9.31288e-15)
(2764.49 0.0153854 8.72131e-15)
(2764.49 0.0155093 8.3955e-15)
(2764.49 0.0156078 6.37506e-15)
(2764.49 0.0156797 6.40499e-15)
(2764.49 0.0157244 8.61537e-15)
(2764.49 0.0157414 8.3948e-15)
(2764.49 0.0157307 1.02787e-14)
(2764.49 0.0156929 8.61054e-15)
(2764.49 0.0156288 7.09053e-15)
(2764.49 0.01554 7.86745e-15)
(2764.49 0.0154285 8.09124e-15)
(2764.49 0.0152969 7.84016e-15)
(2764.49 0.0151482 9.79186e-15)
(2764.49 0.0149861 9.76836e-15)
(2764.49 0.0148146 8.08919e-15)
(2764.49 0.0146381 7.05049e-15)
(2764.49 0.0144615 9.06368e-15)
(2764.49 0.0142895 8.16242e-15)
(2764.49 0.0141275 7.92905e-15)
(2764.49 0.0139806 7.66011e-15)
(2764.49 0.0138542 7.26625e-15)
(2764.49 0.0137538 6.90654e-15)
(2764.49 0.0136852 1.03567e-14)
(2764.49 0.013654 8.73948e-15)
(2764.49 0.0136664 7.08275e-15)
(2764.49 0.0137289 5.85464e-15)
(2764.49 0.0138481 6.24373e-15)
(2764.49 0.0140311 6.28571e-15)
(2764.49 0.0142855 4.27437e-15)
(2764.49 0.0146193 5.16026e-15)
(2764.49 0.015041 5.88818e-15)
(2764.49 0.0155596 7.89763e-15)
(2764.49 0.0161846 8.36536e-15)
(2764.49 0.0169259 7.81798e-15)
(2764.49 0.0177937 6.2558e-15)
(2764.49 0.0187988 5.81396e-15)
(2764.49 0.0199521 7.85017e-15)
(2764.49 0.0212648 7.72175e-15)
(2764.49 0.0227484 8.3917e-15)
(2764.49 0.0244144 8.38764e-15)
(2764.49 0.0262745 7.91657e-15)
(2764.49 0.0283403 6.38389e-15)
(2764.48 0.0306227 3.98481e-15)
(2764.48 0.0331328 6.69225e-15)
(2764.48 0.0358808 4.17585e-15)
(2764.48 0.0388764 5.40729e-15)
(2764.48 0.042128 8.05436e-15)
(2764.48 0.0456428 5.69678e-15)
(2764.47 0.0494263 6.53575e-15)
(2764.47 0.053482 5.25417e-15)
(2764.47 0.0578117 5.52606e-15)
(2764.47 0.0624143 6.82951e-15)
(2764.47 0.0672862 7.41113e-15)
(2764.46 0.0724209 6.44854e-15)
(2764.46 0.0778089 5.29917e-15)
(2764.46 0.0834373 6.85569e-15)
(2764.46 0.0892898 6.38011e-15)
(2764.46 0.0953474 6.04448e-15)
(2764.45 0.101589 8.74062e-15)
(2764.45 0.107991 9.66745e-15)
(2764.45 0.114531 6.17126e-15)
(2764.45 0.121182 6.69316e-15)
(2764.45 0.127923 6.60166e-15)
(2764.45 0.134733 5.02152e-15)
(2764.45 0.141592 7.73576e-15)
(2764.44 0.148484 8.76428e-15)
(2764.44 0.155395 6.77516e-15)
(2764.44 0.162313 7.13716e-15)
(2764.44 0.16923 5.28759e-15)
(2764.44 0.176136 4.42835e-15)
(2764.44 0.183027 8.80682e-15)
(2764.44 0.189897 8.05566e-15)
(2764.43 0.196743 5.41825e-15)
(2764.43 0.203561 5.09234e-15)
(2764.43 0.210348 5.05996e-15)
(2764.43 0.217101 5.30772e-15)
(2764.43 0.223815 4.99726e-15)
(2764.42 0.230485 5.55788e-15)
(2764.42 0.237105 6.76971e-15)
(2764.42 0.243666 4.52297e-15)
(2764.41 0.250154 5.16661e-15)
(2764.41 0.256554 5.75953e-15)
(2764.41 0.262849 6.50401e-15)
(2764.4 0.269018 7.15454e-15)
(2764.4 0.275039 5.74317e-15)
(2764.4 0.280889 5.5259e-15)
(2764.39 0.286545 6.10493e-15)
(2764.39 0.291983 7.02693e-15)
(2764.39 0.297176 7.16384e-15)
(2764.38 0.302097 7.22167e-15)
(2764.38 0.306713 7.07854e-15)
(2764.37 0.311024 7.04042e-15)
(2764.37 0.314993 7.09409e-15)
(2764.37 0.318556 6.55403e-15)
(2764.36 0.321671 6.23305e-15)
(2764.36 0.324298 6.74905e-15)
(2764.36 0.326396 5.96698e-15)
(2764.35 0.327926 5.39773e-15)
(2764.35 0.328853 6.06857e-15)
(2764.35 0.329141 5.99945e-15)
(2764.35 0.328757 6.9536e-15)
(2764.35 0.327665 6.94135e-15)
(2764.35 0.325848 6.54536e-15)
(2764.35 0.323298 6.74431e-15)
(2764.35 0.320008 6.2817e-15)
(2764.35 0.315981 7.28809e-15)
(2764.35 0.311233 6.87294e-15)
(2764.35 0.305789 5.24353e-15)
(2764.36 0.29968 6.36543e-15)
(2764.36 0.292953 5.59141e-15)
(2764.37 0.285659 4.72776e-15)
(2764.38 0.277863 5.37641e-15)
(2764.38 0.269638 4.16639e-15)
(2764.39 0.261066 4.7365e-15)
(2764.4 0.252237 6.18835e-15)
(2764.41 0.243245 6.31906e-15)
(2764.42 0.234191 5.50604e-15)
(2764.43 0.225175 5.8997e-15)
(2764.45 0.216299 5.58182e-15)
(2764.46 0.207665 3.87028e-15)
(2764.47 0.199372 5.59274e-15)
(2764.48 0.19152 6.08069e-15)
(2764.49 0.184203 4.67771e-15)
(2764.5 0.177523 5.05892e-15)
(2764.51 0.171571 5.27262e-15)
(2764.52 0.166464 4.9819e-15)
(2764.53 0.162275 4.7086e-15)
(2764.54 0.159175 4.64712e-15)
(2764.55 0.157172 4.67215e-15)
(2764.56 0.156591 4.9346e-15)
(2764.56 0.15724 4.68215e-15)
(2764.56 0.159771 5.07229e-15)
(2764.57 0.163602 4.11105e-15)
(2764.57 0.16997 3.7001e-15)
(2764.57 0.177418 5.85946e-15)
(2764.56 0.188665 5.96229e-15)
(2764.56 0.200102 6.06813e-15)
(2764.55 0.217607 6.66165e-15)
(2764.55 0.230127 6.01247e-15)
(2764.54 0.276143 5.30594e-15)
(2764.55 0.221808 4.60778e-15)
(2764.5 0.000831615 2.01942e-14)
(2764.5 0.000783972 2.31933e-14)
(2764.5 0.000740243 2.23122e-14)
(2764.5 0.000700606 2.10646e-14)
(2764.5 0.000665062 2.49841e-14)
(2764.5 0.000633456 2.18645e-14)
(2764.5 0.000605775 2.14283e-14)
(2764.5 0.000581931 2.10368e-14)
(2764.5 0.00056136 2.17751e-14)
(2764.5 0.000545061 2.21625e-14)
(2764.5 0.000533698 2.02108e-14)
(2764.5 0.000524544 2.55441e-14)
(2764.5 0.000522016 1.96515e-14)
(2764.5 0.00052589 2.11104e-14)
(2764.5 0.000527708 2.28644e-14)
(2764.5 0.000530635 2.24306e-14)
(2764.49 0.0231397 1.49746e-14)
(2764.49 0.0238948 1.52801e-14)
(2764.49 0.0246453 1.55761e-14)
(2764.49 0.0253895 1.57147e-14)
(2764.49 0.0261256 1.58336e-14)
(2764.49 0.0268516 1.53727e-14)
(2764.49 0.0275654 1.43015e-14)
(2764.49 0.0282647 1.71303e-14)
(2764.48 0.0289471 1.49925e-14)
(2764.48 0.0296098 1.50148e-14)
(2764.48 0.0302503 1.60363e-14)
(2764.48 0.0308658 1.5056e-14)
(2764.48 0.0314535 1.58931e-14)
(2764.48 0.0320105 1.5571e-14)
(2764.48 0.0325343 1.25207e-14)
(2764.48 0.0330221 1.33478e-14)
(2764.48 0.0334719 1.28902e-14)
(2764.48 0.0338818 1.45036e-14)
(2764.48 0.0342503 1.54565e-14)
(2764.48 0.0345767 1.24537e-14)
(2764.48 0.0348607 1.46954e-14)
(2764.48 0.035103 1.53259e-14)
(2764.48 0.0353049 1.43819e-14)
(2764.48 0.0354688 1.45258e-14)
(2764.48 0.0355978 1.46643e-14)
(2764.48 0.0356963 1.38778e-14)
(2764.48 0.0357693 1.41466e-14)
(2764.48 0.0358228 1.37815e-14)
(2764.48 0.0358638 1.31505e-14)
(2764.48 0.0359 1.46606e-14)
(2764.48 0.0359399 1.30894e-14)
(2764.48 0.0359925 1.38668e-14)
(2764.48 0.0360675 1.3599e-14)
(2764.48 0.036175 1.34563e-14)
(2764.48 0.0363258 1.25847e-14)
(2764.48 0.0365314 1.60856e-14)
(2764.48 0.036804 1.19289e-14)
(2764.48 0.0371561 1.2779e-14)
(2764.48 0.0376016 1.46017e-14)
(2764.48 0.0381549 1.371e-14)
(2764.48 0.0388316 1.37839e-14)
(2764.48 0.0396483 1.64839e-14)
(2764.48 0.0406228 1.23524e-14)
(2764.48 0.041774 1.41149e-14)
(2764.47 0.0431222 1.29943e-14)
(2764.47 0.0446886 1.3021e-14)
(2764.47 0.0464957 1.46951e-14)
(2764.47 0.0485669 1.51415e-14)
(2764.47 0.0509265 1.41867e-14)
(2764.47 0.0535995 1.23231e-14)
(2764.47 0.0566112 1.17934e-14)
(2764.46 0.0599872 1.25945e-14)
(2764.46 0.0637528 1.19165e-14)
(2764.46 0.0679329 1.08976e-14)
(2764.46 0.0725513 1.19042e-14)
(2764.45 0.0776304 1.44735e-14)
(2764.45 0.0831905 1.16143e-14)
(2764.45 0.0892498 1.17336e-14)
(2764.44 0.0958234 1.3635e-14)
(2764.44 0.102923 1.29702e-14)
(2764.44 0.110555 1.25694e-14)
(2764.43 0.118723 1.23679e-14)
(2764.43 0.127425 1.31327e-14)
(2764.43 0.136653 1.32956e-14)
(2764.42 0.146393 1.13021e-14)
(2764.42 0.156626 1.02429e-14)
(2764.41 0.167328 1.38338e-14)
(2764.41 0.17847 1.20456e-14)
(2764.4 0.19002 1.16105e-14)
(2764.4 0.20194 1.39668e-14)
(2764.39 0.214194 1.2068e-14)
(2764.39 0.226742 1.11873e-14)
(2764.39 0.239546 1.30403e-14)
(2764.38 0.252569 1.30142e-14)
(2764.38 0.265775 1.11425e-14)
(2764.37 0.279134 1.01757e-14)
(2764.37 0.292616 1.2807e-14)
(2764.37 0.306196 1.13835e-14)
(2764.36 0.319853 1.06421e-14)
(2764.36 0.333569 9.48938e-15)
(2764.35 0.347328 1.02461e-14)
(2764.35 0.361116 1.19631e-14)
(2764.34 0.374923 1.24914e-14)
(2764.34 0.388736 1.14493e-14)
(2764.33 0.402544 1.12957e-14)
(2764.33 0.416333 1.17105e-14)
(2764.32 0.430088 1.07432e-14)
(2764.32 0.443794 1.01252e-14)
(2764.31 0.45743 9.71669e-15)
(2764.3 0.470974 1.09456e-14)
(2764.3 0.484397 1.30373e-14)
(2764.29 0.49767 1.15752e-14)
(2764.28 0.510755 1.07339e-14)
(2764.27 0.523612 1.11297e-14)
(2764.27 0.536194 9.65477e-15)
(2764.26 0.548452 9.99602e-15)
(2764.25 0.560333 9.32438e-15)
(2764.24 0.571776 1.12168e-14)
(2764.23 0.582717 1.04489e-14)
(2764.23 0.593088 9.69092e-15)
(2764.22 0.602818 1.02597e-14)
(2764.21 0.611835 1.04027e-14)
(2764.2 0.620067 9.87087e-15)
(2764.19 0.627443 1.16566e-14)
(2764.19 0.633893 1.19312e-14)
(2764.18 0.639352 9.19675e-15)
(2764.17 0.643757 9.25637e-15)
(2764.17 0.647054 1.15596e-14)
(2764.16 0.649201 1.08166e-14)
(2764.16 0.650168 1.17323e-14)
(2764.16 0.649941 1.24349e-14)
(2764.15 0.648526 1.22069e-14)
(2764.15 0.645943 9.99837e-15)
(2764.15 0.64224 1.06148e-14)
(2764.16 0.637483 1.05565e-14)
(2764.16 0.631756 1.01588e-14)
(2764.16 0.625164 1.04011e-14)
(2764.17 0.61783 1.10652e-14)
(2764.17 0.609893 1.00916e-14)
(2764.18 0.601507 1.06513e-14)
(2764.19 0.592844 1.05734e-14)
(2764.2 0.584086 9.43624e-15)
(2764.21 0.57542 1.07505e-14)
(2764.22 0.567047 1.07319e-14)
(2764.23 0.559166 9.96049e-15)
(2764.25 0.551983 9.63274e-15)
(2764.26 0.545712 8.613e-15)
(2764.27 0.540558 9.83497e-15)
(2764.28 0.536743 7.87732e-15)
(2764.29 0.534503 8.06588e-15)
(2764.3 0.534079 8.63069e-15)
(2764.31 0.535724 7.90521e-15)
(2764.31 0.539712 1.05617e-14)
(2764.32 0.546331 9.89045e-15)
(2764.32 0.555887 9.19438e-15)
(2764.32 0.568707 9.31469e-15)
(2764.32 0.585144 8.88392e-15)
(2764.31 0.605579 9.182e-15)
(2764.3 0.630414 1.10339e-14)
(2764.29 0.660084 9.79253e-15)
(2764.28 0.695039 9.13875e-15)
(2764.26 0.735738 9.04844e-15)
(2764.23 0.782661 9.42978e-15)
(2764.21 0.836316 9.44848e-15)
(2764.18 0.897219 8.80817e-15)
(2764.14 0.965921 8.0338e-15)
(2764.1 1.04294 9.20541e-15)
(2764.05 1.1288 1.00046e-14)
(2764 1.22401 9.4396e-15)
(2763.95 1.32908 8.09231e-15)
(2763.89 1.44454 9.53684e-15)
(2763.82 1.57085 8.94032e-15)
(2763.74 1.70849 9.61554e-15)
(2763.67 1.8579 8.38592e-15)
(2763.58 2.01947 7.74581e-15)
(2763.49 2.19354 9.06844e-15)
(2763.4 2.38046 9.19487e-15)
(2763.3 2.58053 9.67105e-15)
(2763.2 2.79389 8.55569e-15)
(2763.09 3.0206 8.47775e-15)
(2762.98 3.26064 8.8935e-15)
(2762.87 3.51393 6.88796e-15)
(2762.76 3.78034 6.62872e-15)
(2762.65 4.05964 7.72413e-15)
(2762.53 4.35145 8.59503e-15)
(2762.42 4.65528 8.95591e-15)
(2762.31 4.97053 7.98139e-15)
(2762.21 5.29653 7.87236e-15)
(2762.1 5.63247 1.01726e-14)
(2762 5.97755 7.68996e-15)
(2761.91 6.33082 6.68992e-15)
(2761.82 6.69134 8.74973e-15)
(2761.73 7.05816 8.79374e-15)
(2761.65 7.43033 7.89267e-15)
(2761.58 7.80696 7.20455e-15)
(2761.51 8.18728 7.05256e-15)
(2761.44 8.57064 8.315e-15)
(2761.38 8.95642 8.50447e-15)
(2761.32 9.3444 7.09592e-15)
(2761.26 9.73398 6.48801e-15)
(2761.2 10.1256 7.30682e-15)
(2761.15 10.5184 7.66485e-15)
(2761.08 10.9139 7.60024e-15)
(2761.02 11.3104 7.98731e-15)
(2760.96 11.7111 8.15468e-15)
(2760.88 12.1129 8.99524e-15)
(2760.81 12.521 7.67887e-15)
(2760.72 12.9299 7.17955e-15)
(2760.63 13.348 8.51055e-15)
(2760.53 13.7663 7.52316e-15)
(2760.43 14.1918 7.37323e-15)
(2760.32 14.6763 8.31479e-15)
(2760.38 14.9412 7.92578e-15)
(2764.5 0.00535062 3.03152e-14)
(2764.5 0.00511189 2.9399e-14)
(2764.5 0.00488342 2.80556e-14)
(2764.5 0.00466684 3.17806e-14)
(2764.5 0.00446423 3.2963e-14)
(2764.5 0.00427758 2.63989e-14)
(2764.5 0.0041082 2.91609e-14)
(2764.5 0.00395622 2.91639e-14)
(2764.5 0.00382425 2.86129e-14)
(2764.5 0.00371034 2.82229e-14)
(2764.5 0.003607 3.35197e-14)
(2764.5 0.00352632 3.36745e-14)
(2764.5 0.00348928 2.92243e-14)
(2764.5 0.00348896 2.82013e-14)
(2764.5 0.00349736 2.86485e-14)
(2764.5 0.00351416 2.80922e-14)
(2764.45 0.0815379 2.11977e-14)
(2764.45 0.0830353 1.94898e-14)
(2764.45 0.0847202 2.0297e-14)
(2764.44 0.0866185 1.92908e-14)
(2764.44 0.088758 2.14717e-14)
(2764.44 0.091168 2.20176e-14)
(2764.44 0.0938794 1.88393e-14)
(2764.44 0.0969251 1.94577e-14)
(2764.44 0.100339 2.11521e-14)
(2764.43 0.104158 2.20418e-14)
(2764.43 0.108419 1.94315e-14)
(2764.43 0.11316 2.02667e-14)
(2764.42 0.118421 1.86376e-14)
(2764.42 0.124242 1.89249e-14)
(2764.42 0.130663 2.05979e-14)
(2764.41 0.137724 1.87466e-14)
(2764.41 0.145463 1.93076e-14)
(2764.4 0.153919 1.80762e-14)
(2764.4 0.163125 1.66534e-14)
(2764.39 0.173113 1.8799e-14)
(2764.39 0.183913 2.03204e-14)
(2764.38 0.195547 2.13534e-14)
(2764.37 0.208033 2.08135e-14)
(2764.37 0.221382 1.94589e-14)
(2764.36 0.2356 1.78537e-14)
(2764.35 0.250683 1.81803e-14)
(2764.34 0.266622 1.86585e-14)
(2764.34 0.2834 1.76824e-14)
(2764.33 0.300992 2.09086e-14)
(2764.32 0.319367 1.98253e-14)
(2764.31 0.338488 1.68014e-14)
(2764.3 0.358315 1.94607e-14)
(2764.3 0.378803 1.76721e-14)
(2764.29 0.399906 1.76985e-14)
(2764.28 0.421576 1.87344e-14)
(2764.27 0.443766 1.90269e-14)
(2764.26 0.466427 1.89301e-14)
(2764.25 0.489518 2.03735e-14)
(2764.24 0.512994 1.92621e-14)
(2764.24 0.536817 1.67795e-14)
(2764.23 0.56095 1.93115e-14)
(2764.22 0.585357 1.81194e-14)
(2764.21 0.610003 1.78662e-14)
(2764.2 0.634856 1.93253e-14)
(2764.19 0.659881 1.89138e-14)
(2764.18 0.685045 1.837e-14)
(2764.16 0.71031 1.79057e-14)
(2764.15 0.735635 1.72889e-14)
(2764.14 0.760977 1.8515e-14)
(2764.13 0.786285 1.53666e-14)
(2764.11 0.811505 1.52423e-14)
(2764.1 0.836576 1.83815e-14)
(2764.09 0.86143 1.7856e-14)
(2764.07 0.885991 1.72102e-14)
(2764.06 0.910179 1.78668e-14)
(2764.04 0.933906 1.82992e-14)
(2764.03 0.957076 1.63242e-14)
(2764.01 0.979593 1.70878e-14)
(2763.99 1.00135 1.75878e-14)
(2763.98 1.02225 1.74856e-14)
(2763.96 1.04218 1.80225e-14)
(2763.95 1.06103 1.73192e-14)
(2763.93 1.07871 1.60689e-14)
(2763.92 1.09512 1.68168e-14)
(2763.9 1.11017 1.45748e-14)
(2763.89 1.12378 1.44295e-14)
(2763.87 1.13591 1.79662e-14)
(2763.86 1.14651 1.70461e-14)
(2763.85 1.15557 1.6956e-14)
(2763.84 1.16311 1.72639e-14)
(2763.83 1.16916 1.67143e-14)
(2763.82 1.17379 1.60476e-14)
(2763.81 1.17712 1.6183e-14)
(2763.81 1.17928 1.60275e-14)
(2763.81 1.18045 1.66237e-14)
(2763.8 1.18081 1.56741e-14)
(2763.8 1.18062 1.65379e-14)
(2763.8 1.18014 1.54105e-14)
(2763.8 1.17966 1.59242e-14)
(2763.81 1.1795 1.52976e-14)
(2763.81 1.17998 1.71445e-14)
(2763.81 1.18147 1.58954e-14)
(2763.82 1.18434 1.56337e-14)
(2763.82 1.18897 1.47778e-14)
(2763.82 1.19576 1.63697e-14)
(2763.83 1.20512 1.59421e-14)
(2763.83 1.2175 1.46754e-14)
(2763.83 1.23334 1.41658e-14)
(2763.82 1.25311 1.25872e-14)
(2763.82 1.27733 1.54644e-14)
(2763.81 1.30651 1.70883e-14)
(2763.8 1.34121 1.49607e-14)
(2763.78 1.38204 1.51529e-14)
(2763.76 1.42962 1.57457e-14)
(2763.73 1.48461 1.43319e-14)
(2763.7 1.54771 1.36248e-14)
(2763.67 1.61967 1.34304e-14)
(2763.62 1.70125 1.4025e-14)
(2763.57 1.79325 1.46644e-14)
(2763.52 1.89647 1.31874e-14)
(2763.45 2.01178 1.43391e-14)
(2763.38 2.13999 1.4148e-14)
(2763.3 2.28201 1.41839e-14)
(2763.22 2.43868 1.49319e-14)
(2763.12 2.61087 1.42498e-14)
(2763.01 2.79945 1.30102e-14)
(2762.9 3.00527 1.47422e-14)
(2762.78 3.22911 1.50648e-14)
(2762.65 3.47168 1.40312e-14)
(2762.51 3.73363 1.26354e-14)
(2762.36 4.01555 1.39684e-14)
(2762.2 4.31795 1.65152e-14)
(2762.04 4.6412 1.33279e-14)
(2761.87 4.98552 1.35871e-14)
(2761.69 5.35106 1.36801e-14)
(2761.51 5.73789 1.20725e-14)
(2761.33 6.14585 1.29655e-14)
(2761.14 6.5747 1.3136e-14)
(2760.96 7.02409 1.42331e-14)
(2760.77 7.49345 1.70119e-14)
(2760.58 7.98206 1.46552e-14)
(2760.39 8.4891 1.24645e-14)
(2760.21 9.01369 1.42639e-14)
(2760.03 9.55477 1.44309e-14)
(2759.85 10.1113 1.37771e-14)
(2759.67 10.6823 1.42673e-14)
(2759.5 11.2666 1.21185e-14)
(2759.32 11.8635 1.28876e-14)
(2759.15 12.4721 1.46505e-14)
(2758.99 13.0917 1.37979e-14)
(2758.82 13.7219 1.32286e-14)
(2758.65 14.3622 1.28399e-14)
(2758.48 15.0122 1.23539e-14)
(2758.31 15.6716 1.23356e-14)
(2758.13 16.3402 1.24615e-14)
(2757.95 17.0179 1.26912e-14)
(2757.76 17.7047 1.40045e-14)
(2757.56 18.4008 1.40995e-14)
(2757.35 19.1065 1.28895e-14)
(2757.13 19.8221 1.25413e-14)
(2756.9 20.548 1.15876e-14)
(2756.66 21.2845 1.22045e-14)
(2756.4 22.032 1.27188e-14)
(2756.13 22.7901 1.22373e-14)
(2755.85 23.5584 1.16703e-14)
(2755.55 24.3359 1.34427e-14)
(2755.24 25.1215 1.27825e-14)
(2754.91 25.9137 1.30296e-14)
(2754.57 26.7106 1.27424e-14)
(2754.22 27.5099 1.228e-14)
(2753.85 28.3091 1.2898e-14)
(2753.48 29.105 1.1186e-14)
(2753.09 29.8944 1.16589e-14)
(2752.7 30.6733 1.15345e-14)
(2752.3 31.4377 1.20782e-14)
(2751.88 32.1833 1.20125e-14)
(2751.47 32.9054 1.26329e-14)
(2751.05 33.5992 1.29802e-14)
(2750.63 34.263 1.2449e-14)
(2750.22 34.8937 1.21794e-14)
(2749.82 35.4829 1.24005e-14)
(2749.41 36.0255 1.17486e-14)
(2749 36.5163 1.17087e-14)
(2748.6 36.9507 1.08626e-14)
(2748.2 37.3238 1.17436e-14)
(2747.81 37.6312 1.21163e-14)
(2747.43 37.8687 1.13889e-14)
(2747.06 38.0325 1.12173e-14)
(2746.71 38.1194 1.09106e-14)
(2746.36 38.1264 1.00923e-14)
(2746.03 38.0511 1.19301e-14)
(2745.72 37.8914 1.08182e-14)
(2745.43 37.6457 1.14166e-14)
(2745.17 37.3141 1.16258e-14)
(2744.94 36.8969 1.05437e-14)
(2744.73 36.3959 1.03266e-14)
(2744.55 35.8128 1.13774e-14)
(2744.4 35.1524 1.07383e-14)
(2744.29 34.4158 9.98141e-15)
(2744.22 33.6155 9.77913e-15)
(2744.19 32.7444 1.07456e-14)
(2744.21 31.8389 1.04983e-14)
(2744.28 30.8581 9.48723e-15)
(2744.4 29.899 9.72037e-15)
(2744.57 28.8436 9.946e-15)
(2744.8 27.9101 9.90847e-15)
(2745.1 26.791 8.34235e-15)
(2745.44 26.0564 8.08488e-15)
(2745.88 24.811 9.66705e-15)
(2746.3 24.5221 1.00703e-14)
(2746.96 23.0598 1.01279e-14)
(2747.25 23.7498 1.03415e-14)
(2750.36 20.3329 9.96261e-15)
(2764.49 0.0189234 3.5819e-14)
(2764.49 0.0181158 3.75324e-14)
(2764.49 0.0173821 4.0471e-14)
(2764.49 0.0167186 4.17816e-14)
(2764.49 0.0161179 3.79644e-14)
(2764.49 0.015579 3.73529e-14)
(2764.49 0.0151034 3.84728e-14)
(2764.49 0.0146953 3.95232e-14)
(2764.49 0.0143802 3.79499e-14)
(2764.49 0.014129 3.88135e-14)
(2764.49 0.0139003 4.31773e-14)
(2764.49 0.0137919 3.79123e-14)
(2764.49 0.0137805 3.6653e-14)
(2764.49 0.0138005 3.49609e-14)
(2764.49 0.0138497 3.5753e-14)
(2764.07 0.767732 2.7684e-14)
(2764.06 0.804725 2.58953e-14)
(2764.04 0.842541 2.53678e-14)
(2764.02 0.881122 2.38519e-14)
(2764.01 0.920411 2.67078e-14)
(2763.99 0.960349 2.48441e-14)
(2763.97 1.00088 2.39227e-14)
(2763.95 1.04194 2.6227e-14)
(2763.93 1.08346 2.5766e-14)
(2763.91 1.12539 2.69502e-14)
(2763.89 1.16764 2.55938e-14)
(2763.87 1.21015 2.52639e-14)
(2763.84 1.25283 2.62078e-14)
(2763.82 1.29559 2.6822e-14)
(2763.8 1.33834 2.42895e-14)
(2763.77 1.38098 2.55826e-14)
(2763.75 1.42339 2.77271e-14)
(2763.72 1.46546 2.43944e-14)
(2763.69 1.50707 2.61136e-14)
(2763.67 1.54809 2.41482e-14)
(2763.64 1.58839 2.28754e-14)
(2763.61 1.62784 2.38441e-14)
(2763.58 1.66629 2.33246e-14)
(2763.55 1.70364 2.39822e-14)
(2763.52 1.73974 2.36168e-14)
(2763.5 1.7745 2.37619e-14)
(2763.47 1.80782 2.45266e-14)
(2763.44 1.83962 2.41848e-14)
(2763.41 1.86985 2.50039e-14)
(2763.38 1.8985 2.452e-14)
(2763.36 1.92558 2.42464e-14)
(2763.33 1.95116 2.37694e-14)
(2763.31 1.97533 2.35278e-14)
(2763.29 1.99823 2.46277e-14)
(2763.27 2.02006 2.39301e-14)
(2763.25 2.04104 2.46555e-14)
(2763.23 2.06148 2.47696e-14)
(2763.21 2.08171 2.46223e-14)
(2763.19 2.10211 2.36461e-14)
(2763.18 2.1231 2.16026e-14)
(2763.16 2.14516 2.14363e-14)
(2763.15 2.16879 2.24486e-14)
(2763.13 2.19454 2.28358e-14)
(2763.11 2.22299 2.2058e-14)
(2763.1 2.25476 2.07096e-14)
(2763.08 2.29048 2.10985e-14)
(2763.06 2.33085 2.17431e-14)
(2763.04 2.37656 2.16622e-14)
(2763.01 2.42839 2.21331e-14)
(2762.98 2.48711 2.06664e-14)
(2762.95 2.55356 2.24152e-14)
(2762.91 2.62861 2.19208e-14)
(2762.87 2.71318 2.29113e-14)
(2762.81 2.80825 2.05887e-14)
(2762.76 2.91481 2.07962e-14)
(2762.69 3.03395 2.22392e-14)
(2762.62 3.16675 2.18142e-14)
(2762.53 3.31437 2.28905e-14)
(2762.44 3.47801 1.98667e-14)
(2762.34 3.65888 1.78807e-14)
(2762.22 3.85823 2.10764e-14)
(2762.09 4.07732 2.36174e-14)
(2761.96 4.31741 1.96301e-14)
(2761.81 4.57977 1.97112e-14)
(2761.64 4.86561 2.09492e-14)
(2761.47 5.17613 2.03192e-14)
(2761.28 5.51243 2.12401e-14)
(2761.08 5.87561 2.08353e-14)
(2760.86 6.26667 2.08254e-14)
(2760.63 6.68646 2.12387e-14)
(2760.4 7.13569 2.05144e-14)
(2760.15 7.61498 2.08583e-14)
(2759.89 8.12474 1.9699e-14)
(2759.62 8.66527 2.32061e-14)
(2759.35 9.23661 2.19857e-14)
(2759.06 9.83863 1.90263e-14)
(2758.77 10.4711 2.01696e-14)
(2758.48 11.1334 2.05383e-14)
(2758.18 11.825 2.16059e-14)
(2757.88 12.5451 1.9888e-14)
(2757.58 13.2929 2.04744e-14)
(2757.27 14.0673 1.96989e-14)
(2756.96 14.8673 2.03923e-14)
(2756.65 15.692 1.72206e-14)
(2756.34 16.5402 1.82712e-14)