/*--------------------------------*- C++ -*----------------------------------*\
| =========                 |                                                 |
| \\      /  F ield         | OpenFOAM: The Open Source CFD Toolbox           |
|  \\    /   O peration     | Version:  v1706                                 |
|   \\  /    A nd           | Web:      www.OpenFOAM.com                      |
|    \\/     M anipulation  |                                                 |
\*---------------------------------------------------------------------------*/
FoamFile
{
    version     2.0;
    format      ascii;
    class       volScalarField;
    location    "3e-06";
    object      wallHeatFlux;
}
// * * * * * * * * * * * * * * * * * * * * * * * * * * * * * * * * * * * * * //

dimensions      [1 0 -3 0 0 0 0];


internalField   uniform 0;

boundaryField
{
    cone
    {
        type            calculated;
        value           nonuniform List<scalar> 
119
(
-4217.36
-4216.63
-4216.04
-4215.6
-4215.26
-4214.98
-4214.72
-4214.47
-4214.22
-4213.98
-4213.74
-4213.49
-4213.25
-4213.01
-4212.77
-4212.53
-4212.3
-4212.06
-4211.82
-4211.58
-4211.34
-4211.1
-4210.86
-4210.62
-4210.39
-4210.15
-4209.91
-4209.67
-4209.43
-4209.19
-4208.95
-4208.72
-4208.48
-4208.24
-4208
-4207.76
-4207.53
-4207.29
-4207.05
-4206.81
-4206.57
-4206.34
-4206.1
-4205.86
-4205.62
-4205.38
-4205.15
-4204.91
-4204.67
-4204.43
-4204.2
-4203.96
-4203.72
-4203.48
-4203.25
-4203.01
-4202.77
-4202.53
-4202.3
-4202.06
-4201.82
-4201.59
-4201.35
-4201.11
-4200.87
-4200.64
-4200.4
-4200.16
-4199.93
-4199.69
-4199.45
-4199.21
-4198.98
-4198.74
-4198.5
-4198.27
-4198.03
-4197.79
-4197.56
-4197.32
-4197.08
-4196.85
-4196.61
-4196.37
-4196.14
-4195.9
-4195.66
-4195.43
-4195.19
-4194.95
-4194.72
-4194.48
-4194.24
-4194.01
-4193.77
-4193.53
-4193.3
-4193.06
-4192.82
-4192.59
-4192.35
-4192.11
-4191.88
-4191.64
-4191.4
-4191.17
-4190.93
-4190.69
-4190.46
-4190.24
-4190.08
-4190.06
-4190.35
-4191.32
-4193.88
-4201.64
-4225.97
-4292.79
-4428.56
)
;
    }
    inlet
    {
        type            calculated;
        value           uniform 0;
    }
    rWedge
    {
        type            wedge;
    }
    lWedge
    {
        type            wedge;
    }
    outlet
    {
        type            calculated;
        value           uniform 0;
    }
    procBoundary0to1
    {
        type            processor;
        value           uniform 0;
    }
    procBoundary0to2
    {
        type            processor;
        value           uniform 0;
    }
}


// ************************************************************************* //
