/*--------------------------------*- C++ -*----------------------------------*\
| =========                 |                                                 |
| \\      /  F ield         | OpenFOAM: The Open Source CFD Toolbox           |
|  \\    /   O peration     | Version:  v1706                                 |
|   \\  /    A nd           | Web:      www.OpenFOAM.com                      |
|    \\/     M anipulation  |                                                 |
\*---------------------------------------------------------------------------*/
FoamFile
{
    version     2.0;
    format      ascii;
    class       volScalarField;
    location    "1.1e-05";
    object      alpha;
}
// * * * * * * * * * * * * * * * * * * * * * * * * * * * * * * * * * * * * * //

dimensions      [1 -1 -1 0 0 0 0];


internalField   nonuniform List<scalar> 
29871
(
1.40478e-05
1.40478e-05
1.40478e-05
1.40478e-05
1.40478e-05
1.40478e-05
1.40478e-05
1.40478e-05
1.40478e-05
1.40478e-05
1.40478e-05
1.40478e-05
1.40478e-05
1.40478e-05
1.40478e-05
1.40478e-05
1.40478e-05
1.40478e-05
1.40478e-05
1.40478e-05
1.40478e-05
1.40478e-05
1.40478e-05
1.40478e-05
1.40478e-05
1.40478e-05
1.40478e-05
1.40478e-05
1.40478e-05
1.40478e-05
1.40478e-05
1.40478e-05
1.40478e-05
1.40478e-05
1.40478e-05
1.40478e-05
1.40478e-05
1.40478e-05
1.40478e-05
1.40478e-05
1.40478e-05
1.40478e-05
1.40478e-05
1.40478e-05
1.40478e-05
1.40478e-05
1.40478e-05
1.40478e-05
1.40478e-05
1.40478e-05
1.40478e-05
1.40478e-05
1.40478e-05
1.40478e-05
1.40478e-05
1.40478e-05
1.40478e-05
1.40478e-05
1.40478e-05
1.40478e-05
1.40478e-05
1.40478e-05
1.40478e-05
1.40478e-05
1.40478e-05
1.40478e-05
1.40478e-05
1.40478e-05
1.40478e-05
1.40478e-05
1.40478e-05
1.40478e-05
1.40478e-05
1.40478e-05
1.40478e-05
1.40478e-05
1.40478e-05
1.40478e-05
1.40478e-05
1.40478e-05
1.40478e-05
1.40478e-05
1.40478e-05
1.40478e-05
1.40478e-05
1.40478e-05
1.40478e-05
1.40478e-05
1.40478e-05
1.40478e-05
1.40478e-05
1.40478e-05
1.40478e-05
1.40478e-05
1.40478e-05
1.40478e-05
1.40478e-05
1.40478e-05
1.40478e-05
1.40478e-05
1.40478e-05
1.40478e-05
1.40478e-05
1.40478e-05
1.40478e-05
1.40478e-05
1.40478e-05
1.40478e-05
1.40478e-05
1.40478e-05
1.40478e-05
1.40478e-05
1.40478e-05
1.40478e-05
1.40478e-05
1.40478e-05
1.40478e-05
1.40478e-05
1.40478e-05
1.40478e-05
1.40478e-05
1.40478e-05
1.40478e-05
1.40478e-05
1.40478e-05
1.40478e-05
1.40478e-05
1.40478e-05
1.40478e-05
1.40478e-05
1.40478e-05
1.40478e-05
1.40478e-05
1.40478e-05
1.40478e-05
1.40478e-05
1.40478e-05
1.40478e-05
1.40478e-05
1.40478e-05
1.40478e-05
1.40478e-05
1.40478e-05
1.40478e-05
1.40478e-05
1.40478e-05
1.40478e-05
1.40478e-05
1.40478e-05
1.40478e-05
1.40478e-05
1.40478e-05
1.40478e-05
1.40478e-05
1.40478e-05
1.40478e-05
1.40478e-05
1.40478e-05
1.40478e-05
1.40478e-05
1.40478e-05
1.40478e-05
1.40478e-05
1.40478e-05
1.40478e-05
1.40478e-05
1.40478e-05
1.40478e-05
1.40478e-05
1.40478e-05
1.40478e-05
1.40478e-05
1.40478e-05
1.40478e-05
1.40478e-05
1.40478e-05
1.40478e-05
1.40478e-05
1.40478e-05
1.40478e-05
1.40478e-05
1.40478e-05
1.40478e-05
1.40478e-05
1.40478e-05
1.40478e-05
1.40478e-05
1.40478e-05
1.40478e-05
1.40478e-05
1.40478e-05
1.40478e-05
1.40478e-05
1.40478e-05
1.40478e-05
1.40478e-05
1.40478e-05
1.40478e-05
1.40478e-05
1.40478e-05
1.40478e-05
1.40478e-05
1.40478e-05
1.40478e-05
1.40478e-05
1.40478e-05
1.40478e-05
1.40478e-05
1.40478e-05
1.40478e-05
1.40478e-05
1.40478e-05
1.40478e-05
1.40478e-05
1.40478e-05
1.40478e-05
1.40478e-05
1.40478e-05
1.40478e-05
1.40478e-05
1.40478e-05
1.40478e-05
1.40478e-05
1.40478e-05
1.40478e-05
1.40478e-05
1.40478e-05
1.40478e-05
1.40478e-05
1.40478e-05
1.40478e-05
1.40478e-05
1.40478e-05
1.40478e-05
1.40478e-05
1.40478e-05
1.40478e-05
1.40478e-05
1.40478e-05
1.40478e-05
1.40478e-05
1.40478e-05
1.40478e-05
1.40478e-05
1.40478e-05
1.40478e-05
1.40478e-05
1.40478e-05
1.40478e-05
1.40478e-05
1.40478e-05
1.40478e-05
1.40478e-05
1.40478e-05
1.40478e-05
1.40478e-05
1.40478e-05
1.40478e-05
1.40478e-05
1.40478e-05
1.40478e-05
1.40478e-05
1.40478e-05
1.40478e-05
1.40478e-05
1.40478e-05
1.40478e-05
1.40478e-05
1.40478e-05
1.40478e-05
1.40478e-05
1.40478e-05
1.40478e-05
1.40478e-05
1.40478e-05
1.40478e-05
1.40478e-05
1.40478e-05
1.40478e-05
1.40478e-05
1.40478e-05
1.40478e-05
1.40478e-05
1.40478e-05
1.40478e-05
1.40478e-05
1.40478e-05
1.40478e-05
1.40478e-05
1.40478e-05
1.40478e-05
1.40478e-05
1.40478e-05
1.40478e-05
1.40478e-05
1.40478e-05
1.40478e-05
1.40478e-05
1.40478e-05
1.40478e-05
1.40478e-05
1.40478e-05
1.40478e-05
1.40478e-05
1.40478e-05
1.40478e-05
1.40478e-05
1.40478e-05
1.40478e-05
1.40478e-05
1.40478e-05
1.40478e-05
1.40478e-05
1.40478e-05
1.40478e-05
1.40478e-05
1.40478e-05
1.40478e-05
1.40478e-05
1.40478e-05
1.40478e-05
1.40478e-05
1.40478e-05
1.40478e-05
1.40478e-05
1.40478e-05
1.40478e-05
1.40478e-05
1.40478e-05
1.40478e-05
1.40478e-05
1.40478e-05
1.40478e-05
1.40478e-05
1.40478e-05
1.40478e-05
1.40478e-05
1.40478e-05
1.40478e-05
1.40478e-05
1.40478e-05
1.40478e-05
1.40478e-05
1.40478e-05
1.40478e-05
1.40478e-05
1.40478e-05
1.40478e-05
1.40478e-05
1.40478e-05
1.40478e-05
1.40478e-05
1.40478e-05
1.40478e-05
1.40478e-05
1.40478e-05
1.40478e-05
1.40478e-05
1.40478e-05
1.40478e-05
1.40478e-05
1.40478e-05
1.40478e-05
1.40478e-05
1.40478e-05
1.40478e-05
1.40478e-05
1.40478e-05
1.40478e-05
1.40478e-05
1.40478e-05
1.40478e-05
1.40478e-05
1.40478e-05
1.40478e-05
1.40478e-05
1.40478e-05
1.40478e-05
1.40478e-05
1.40478e-05
1.40478e-05
1.40478e-05
1.40478e-05
1.40478e-05
1.40478e-05
1.40478e-05
1.40478e-05
1.40478e-05
1.40478e-05
1.40478e-05
1.40478e-05
1.40478e-05
1.40478e-05
1.40478e-05
1.40478e-05
1.40478e-05
1.40478e-05
1.40478e-05
1.40478e-05
1.40478e-05
1.40478e-05
1.40478e-05
1.40478e-05
1.40478e-05
1.40478e-05
1.40478e-05
1.40478e-05
1.40478e-05
1.40478e-05
1.40478e-05
1.40478e-05
1.40478e-05
1.40478e-05
1.40478e-05
1.40478e-05
1.40478e-05
1.40478e-05
1.40478e-05
1.40478e-05
1.40478e-05
1.40478e-05
1.40478e-05
1.40478e-05
1.40478e-05
1.40478e-05
1.40478e-05
1.40478e-05
1.40478e-05
1.40478e-05
1.40478e-05
1.40478e-05
1.40478e-05
1.40478e-05
1.40478e-05
1.40478e-05
1.40478e-05
1.40478e-05
1.40478e-05
1.40478e-05
1.40478e-05
1.40478e-05
1.40478e-05
1.40478e-05
1.40478e-05
1.40478e-05
1.40478e-05
1.40478e-05
1.40478e-05
1.40478e-05
1.40478e-05
1.40478e-05
1.40478e-05
1.40478e-05
1.40478e-05
1.40478e-05
1.40478e-05
1.40478e-05
1.40478e-05
1.40478e-05
1.40478e-05
1.40478e-05
1.40478e-05
1.40478e-05
1.40478e-05
1.40478e-05
1.40478e-05
1.40478e-05
1.40478e-05
1.40478e-05
1.40478e-05
1.40478e-05
1.40478e-05
1.40478e-05
1.40478e-05
1.40478e-05
1.40478e-05
1.40478e-05
1.40478e-05
1.40478e-05
1.40478e-05
1.40478e-05
1.40478e-05
1.40478e-05
1.40478e-05
1.40478e-05
1.40478e-05
1.40478e-05
1.40478e-05
1.40478e-05
1.40478e-05
1.40478e-05
1.40478e-05
1.40478e-05
1.40478e-05
1.40478e-05
1.40478e-05
1.40478e-05
1.40478e-05
1.40478e-05
1.40478e-05
1.40478e-05
1.40478e-05
1.40478e-05
1.40478e-05
1.40478e-05
1.40478e-05
1.40478e-05
1.40478e-05
1.40478e-05
1.40478e-05
1.40478e-05
1.40478e-05
1.40478e-05
1.40478e-05
1.40478e-05
1.40478e-05
1.40478e-05
1.40478e-05
1.40478e-05
1.40478e-05
1.40478e-05
1.40478e-05
1.40478e-05
1.40478e-05
1.40478e-05
1.40478e-05
1.40478e-05
1.40478e-05
1.40478e-05
1.40478e-05
1.40478e-05
1.40478e-05
1.40478e-05
1.40478e-05
1.40478e-05
1.40478e-05
1.40478e-05
1.40478e-05
1.40478e-05
1.40478e-05
1.40478e-05
1.40478e-05
1.40478e-05
1.40478e-05
1.40478e-05
1.40478e-05
1.40478e-05
1.40478e-05
1.40478e-05
1.40478e-05
1.40478e-05
1.40478e-05
1.40478e-05
1.40478e-05
1.40478e-05
1.40478e-05
1.40478e-05
1.40478e-05
1.40478e-05
1.40478e-05
1.40478e-05
1.40478e-05
1.40478e-05
1.40478e-05
1.40478e-05
1.40478e-05
1.40478e-05
1.40478e-05
1.40478e-05
1.40478e-05
1.40478e-05
1.40478e-05
1.40478e-05
1.40478e-05
1.40478e-05
1.40478e-05
1.40478e-05
1.40478e-05
1.40478e-05
1.40478e-05
1.40478e-05
1.40478e-05
1.40478e-05
1.40478e-05
1.40478e-05
1.40478e-05
1.40478e-05
1.40478e-05
1.40478e-05
1.40478e-05
1.40478e-05
1.40478e-05
1.40478e-05
1.40478e-05
1.40478e-05
1.40478e-05
1.40478e-05
1.40478e-05
1.40478e-05
1.40478e-05
1.40478e-05
1.40478e-05
1.40478e-05
1.40478e-05
1.40478e-05
1.40478e-05
1.40478e-05
1.40478e-05
1.40478e-05
1.40478e-05
1.40478e-05
1.40478e-05
1.40478e-05
1.40478e-05
1.40478e-05
1.40478e-05
1.40478e-05
1.40478e-05
1.40478e-05
1.40478e-05
1.40478e-05
1.40478e-05
1.40478e-05
1.40478e-05
1.40478e-05
1.40478e-05
1.40478e-05
1.40478e-05
1.40478e-05
1.40478e-05
1.40478e-05
1.40478e-05
1.40478e-05
1.40478e-05
1.40478e-05
1.40478e-05
1.40478e-05
1.40478e-05
1.40478e-05
1.40478e-05
1.40478e-05
1.40478e-05
1.40478e-05
1.40478e-05
1.40478e-05
1.40478e-05
1.40478e-05
1.40478e-05
1.40478e-05
1.40478e-05
1.40478e-05
1.40478e-05
1.40478e-05
1.40478e-05
1.40478e-05
1.40478e-05
1.40478e-05
1.40478e-05
1.40478e-05
1.40478e-05
1.40478e-05
1.40478e-05
1.40478e-05
1.40478e-05
1.40478e-05
1.40478e-05
1.40478e-05
1.40478e-05
1.40478e-05
1.40478e-05
1.40478e-05
1.40478e-05
1.40478e-05
1.40478e-05
1.40478e-05
1.40478e-05
1.40478e-05
1.40478e-05
1.40478e-05
1.40478e-05
1.40478e-05
1.40478e-05
1.40478e-05
1.40478e-05
1.40478e-05
1.40478e-05
1.40478e-05
1.40478e-05
1.40478e-05
1.40478e-05
1.40478e-05
1.40478e-05
1.40478e-05
1.40478e-05
1.40478e-05
1.40478e-05
1.40478e-05
1.40478e-05
1.40478e-05
1.40478e-05
1.40478e-05
1.40478e-05
1.40478e-05
1.40478e-05
1.40478e-05
1.40478e-05
1.40478e-05
1.40478e-05
1.40478e-05
1.40478e-05
1.40478e-05
1.40478e-05
1.40478e-05
1.40478e-05
1.40478e-05
1.40478e-05
1.40478e-05
1.40478e-05
1.40478e-05
1.40478e-05
1.40478e-05
1.40478e-05
1.40478e-05
1.40478e-05
1.40478e-05
1.40478e-05
1.40478e-05
1.40478e-05
1.40478e-05
1.40478e-05
1.40478e-05
1.40478e-05
1.40478e-05
1.40478e-05
1.40478e-05
1.40478e-05
1.40478e-05
1.40478e-05
1.40478e-05
1.40478e-05
1.40478e-05
1.40478e-05
1.40478e-05
1.40478e-05
1.40478e-05
1.40478e-05
1.40478e-05
1.40478e-05
1.40478e-05
1.40478e-05
1.40478e-05
1.40478e-05
1.40478e-05
1.40478e-05
1.40478e-05
1.40478e-05
1.40478e-05
1.40478e-05
1.40478e-05
1.40478e-05
1.40478e-05
1.40478e-05
1.40478e-05
1.40478e-05
1.40478e-05
1.40478e-05
1.40478e-05
1.40478e-05
1.40478e-05
1.40478e-05
1.40478e-05
1.40478e-05
1.40478e-05
1.40478e-05
1.40478e-05
1.40478e-05
1.40478e-05
1.40478e-05
1.40478e-05
1.40478e-05
1.40478e-05
1.40478e-05
1.40478e-05
1.40478e-05
1.40478e-05
1.40478e-05
1.40478e-05
1.40478e-05
1.40478e-05
1.40478e-05
1.40478e-05
1.40478e-05
1.40478e-05
1.40478e-05
1.40478e-05
1.40478e-05
1.40478e-05
1.40478e-05
1.40478e-05
1.40478e-05
1.40478e-05
1.40478e-05
1.40478e-05
1.40478e-05
1.40478e-05
1.40478e-05
1.40478e-05
1.40478e-05
1.40478e-05
1.40478e-05
1.40478e-05
1.40478e-05
1.40478e-05
1.40478e-05
1.40478e-05
1.40478e-05
1.40478e-05
1.40478e-05
1.40478e-05
1.40478e-05
1.40478e-05
1.40478e-05
1.40478e-05
1.40478e-05
1.40478e-05
1.40478e-05
1.40478e-05
1.40478e-05
1.40478e-05
1.40478e-05
1.40478e-05
1.40478e-05
1.40478e-05
1.40478e-05
1.40478e-05
1.40478e-05
1.40478e-05
1.40478e-05
1.40478e-05
1.40478e-05
1.40478e-05
1.40478e-05
1.40478e-05
1.40478e-05
1.40478e-05
1.40478e-05
1.40478e-05
1.40478e-05
1.40478e-05
1.40478e-05
1.40478e-05
1.40478e-05
1.40478e-05
1.40478e-05
1.40478e-05
1.40478e-05
1.40478e-05
1.40478e-05
1.40478e-05
1.40478e-05
1.40478e-05
1.40478e-05
1.40478e-05
1.40478e-05
1.40478e-05
1.40478e-05
1.40478e-05
1.40478e-05
1.40478e-05
1.40478e-05
1.40478e-05
1.40478e-05
1.40478e-05
1.40478e-05
1.40478e-05
1.40478e-05
1.40478e-05
1.40478e-05
1.40478e-05
1.40478e-05
1.40478e-05
1.40478e-05
1.40478e-05
1.40478e-05
1.40478e-05
1.40478e-05
1.40478e-05
1.40478e-05
1.40478e-05
1.40478e-05
1.40478e-05
1.40478e-05
1.40478e-05
1.40478e-05
1.40478e-05
1.40478e-05
1.40478e-05
1.40478e-05
1.40478e-05
1.40478e-05
1.40478e-05
1.40478e-05
1.40478e-05
1.40478e-05
1.40478e-05
1.40478e-05
1.40478e-05
1.40478e-05
1.40478e-05
1.40478e-05
1.40478e-05
1.40478e-05
1.40478e-05
1.40478e-05
1.40478e-05
1.40478e-05
1.40478e-05
1.40478e-05
1.40478e-05
1.40478e-05
1.40478e-05
1.40478e-05
1.40478e-05
1.40478e-05
1.40478e-05
1.40478e-05
1.40478e-05
1.40478e-05
1.40478e-05
1.40478e-05
1.40478e-05
1.40478e-05
1.40478e-05
1.40478e-05
1.40478e-05
1.40478e-05
1.40478e-05
1.40478e-05
1.40478e-05
1.40478e-05
1.40478e-05
1.40478e-05
1.40478e-05
1.40478e-05
1.40478e-05
1.40478e-05
1.40478e-05
1.40478e-05
1.40478e-05
1.40478e-05
1.40478e-05
1.40478e-05
1.40478e-05
1.40478e-05
1.40478e-05
1.40478e-05
1.40478e-05
1.40478e-05
1.40478e-05
1.40478e-05
1.40478e-05
1.40478e-05
1.40478e-05
1.40478e-05
1.40478e-05
1.40478e-05
1.40478e-05
1.40478e-05
1.40478e-05
1.40478e-05
1.40478e-05
1.40478e-05
1.40478e-05
1.40478e-05
1.40478e-05
1.40478e-05
1.40478e-05
1.40478e-05
1.40478e-05
1.40478e-05
1.40478e-05
1.40478e-05
1.40478e-05
1.40478e-05
1.40478e-05
1.40478e-05
1.40478e-05
1.40478e-05
1.40478e-05
1.40478e-05
1.40478e-05
1.40478e-05
1.40478e-05
1.40478e-05
1.40478e-05
1.40478e-05
1.40478e-05
1.40478e-05
1.40478e-05
1.40478e-05
1.40478e-05
1.40478e-05
1.40478e-05
1.40478e-05
1.40478e-05
1.40478e-05
1.40478e-05
1.40478e-05
1.40478e-05
1.40478e-05
1.40478e-05
1.40478e-05
1.40478e-05
1.40478e-05
1.40478e-05
1.40478e-05
1.40478e-05
1.40478e-05
1.40478e-05
1.40478e-05
1.40478e-05
1.40478e-05
1.40478e-05
1.40478e-05
1.40478e-05
1.40478e-05
1.40478e-05
1.40478e-05
1.40478e-05
1.40478e-05
1.40478e-05
1.40478e-05
1.40478e-05
1.40478e-05
1.40478e-05
1.40478e-05
1.40478e-05
1.40478e-05
1.40478e-05
1.40478e-05
1.40478e-05
1.40478e-05
1.40478e-05
1.40478e-05
1.40478e-05
1.40478e-05
1.40478e-05
1.40478e-05
1.40478e-05
1.40478e-05
1.40478e-05
1.40478e-05
1.40478e-05
1.40478e-05
1.40478e-05
1.40478e-05
1.40478e-05
1.40478e-05
1.40478e-05
1.40478e-05
1.40478e-05
1.40478e-05
1.40478e-05
1.40478e-05
1.40478e-05
1.40478e-05
1.40478e-05
1.40478e-05
1.40478e-05
1.40478e-05
1.40478e-05
1.40478e-05
1.40478e-05
1.40478e-05
1.40478e-05
1.40478e-05
1.40478e-05
1.40478e-05
1.40478e-05
1.40478e-05
1.40478e-05
1.40478e-05
1.40478e-05
1.40478e-05
1.40478e-05
1.40478e-05
1.40478e-05
1.40478e-05
1.40478e-05
1.40478e-05
1.40478e-05
1.40478e-05
1.40478e-05
1.40478e-05
1.40478e-05
1.40478e-05
1.40478e-05
1.40478e-05
1.40478e-05
1.40478e-05
1.40478e-05
1.40478e-05
1.40478e-05
1.40478e-05
1.40478e-05
1.40478e-05
1.40478e-05
1.40478e-05
1.40478e-05
1.40478e-05
1.40478e-05
1.40478e-05
1.40478e-05
1.40478e-05
1.40478e-05
1.40478e-05
1.40478e-05
1.40478e-05
1.40478e-05
1.40478e-05
1.40478e-05
1.40478e-05
1.40478e-05
1.40478e-05
1.40478e-05
1.40478e-05
1.40478e-05
1.40478e-05
1.40478e-05
1.40478e-05
1.40478e-05
1.40478e-05
1.40478e-05
1.40478e-05
1.40478e-05
1.40478e-05
1.40478e-05
1.40478e-05
1.40478e-05
1.40478e-05
1.40478e-05
1.40478e-05
1.40478e-05
1.40478e-05
1.40478e-05
1.40478e-05
1.40478e-05
1.40478e-05
1.40478e-05
1.40478e-05
1.40478e-05
1.40478e-05
1.40478e-05
1.40478e-05
1.40478e-05
1.40478e-05
1.40478e-05
1.40478e-05
1.40478e-05
1.40478e-05
1.40478e-05
1.40478e-05
1.40478e-05
1.40478e-05
1.40478e-05
1.40478e-05
1.40478e-05
1.40478e-05
1.40478e-05
1.40478e-05
1.40478e-05
1.40478e-05
1.40478e-05
1.40478e-05
1.40478e-05
1.40478e-05
1.40478e-05
1.40478e-05
1.40478e-05
1.40478e-05
1.40478e-05
1.40478e-05
1.40478e-05
1.40478e-05
1.40478e-05
1.40478e-05
1.40478e-05
1.40478e-05
1.40478e-05
1.40478e-05
1.40478e-05
1.40478e-05
1.40478e-05
1.40478e-05
1.40478e-05
1.40478e-05
1.40478e-05
1.40478e-05
1.40478e-05
1.40478e-05
1.40478e-05
1.40478e-05
1.40478e-05
1.40478e-05
1.40478e-05
1.40478e-05
1.40478e-05
1.40478e-05
1.40478e-05
1.40478e-05
1.40478e-05
1.40478e-05
1.40478e-05
1.40478e-05
1.40478e-05
1.40478e-05
1.40478e-05
1.40478e-05
1.40478e-05
1.40478e-05
1.40478e-05
1.40478e-05
1.40478e-05
1.40478e-05
1.40478e-05
1.40478e-05
1.40478e-05
1.40478e-05
1.40478e-05
1.40478e-05
1.40478e-05
1.40478e-05
1.40478e-05
1.40478e-05
1.40478e-05
1.40478e-05
1.40478e-05
1.40478e-05
1.40478e-05
1.40478e-05
1.40478e-05
1.40478e-05
1.40478e-05
1.40478e-05
1.40478e-05
1.40478e-05
1.40478e-05
1.40478e-05
1.40478e-05
1.40478e-05
1.40478e-05
1.40478e-05
1.40478e-05
1.40478e-05
1.40478e-05
1.40478e-05
1.40478e-05
1.40478e-05
1.40478e-05
1.40478e-05
1.40478e-05
1.40478e-05
1.40478e-05
1.40478e-05
1.40478e-05
1.40478e-05
1.40478e-05
1.40478e-05
1.40478e-05
1.40478e-05
1.40478e-05
1.40478e-05
1.40478e-05
1.40478e-05
1.40478e-05
1.40478e-05
1.40478e-05
1.40478e-05
1.40478e-05
1.40478e-05
1.40478e-05
1.40478e-05
1.40478e-05
1.40478e-05
1.40478e-05
1.40478e-05
1.40478e-05
1.40478e-05
1.40478e-05
1.40478e-05
1.40478e-05
1.40478e-05
1.40478e-05
1.40478e-05
1.40478e-05
1.40478e-05
1.40478e-05
1.40478e-05
1.40478e-05
1.40478e-05
1.40478e-05
1.40478e-05
1.40478e-05
1.40478e-05
1.40478e-05
1.40478e-05
1.40478e-05
1.40478e-05
1.40478e-05
1.40478e-05
1.40478e-05
1.40478e-05
1.40478e-05
1.40478e-05
1.40478e-05
1.40478e-05
1.40478e-05
1.40478e-05
1.40478e-05
1.40478e-05
1.40478e-05
1.40478e-05
1.40479e-05
1.40479e-05
1.40479e-05
1.40479e-05
1.40479e-05
1.40479e-05
1.40479e-05
1.40479e-05
1.4048e-05
1.4048e-05
1.4048e-05
1.4048e-05
1.4048e-05
1.4048e-05
1.4048e-05
1.40481e-05
1.40481e-05
1.40481e-05
1.40481e-05
1.40481e-05
1.40481e-05
1.40481e-05
1.40482e-05
1.40482e-05
1.40482e-05
1.40482e-05
1.40482e-05
1.40481e-05
1.40481e-05
1.40481e-05
1.40481e-05
1.40481e-05
1.40481e-05
1.40481e-05
1.4048e-05
1.4048e-05
1.4048e-05
1.4048e-05
1.4048e-05
1.40479e-05
1.40479e-05
1.40479e-05
1.40479e-05
1.40479e-05
1.40479e-05
1.40478e-05
1.40478e-05
1.40478e-05
1.40478e-05
1.40478e-05
1.40478e-05
1.40478e-05
1.40478e-05
1.40478e-05
1.40478e-05
1.40478e-05
1.40478e-05
1.40478e-05
1.40478e-05
1.40478e-05
1.40478e-05
1.40478e-05
1.40478e-05
1.40478e-05
1.40478e-05
1.40478e-05
1.40478e-05
1.40478e-05
1.40478e-05
1.40478e-05
1.40478e-05
1.40478e-05
1.40478e-05
1.40478e-05
1.40478e-05
1.40478e-05
1.40478e-05
1.40478e-05
1.40478e-05
1.40478e-05
1.40478e-05
1.40478e-05
1.40478e-05
1.40478e-05
1.40478e-05
1.40478e-05
1.40478e-05
1.40478e-05
1.40478e-05
1.40478e-05
1.40478e-05
1.40478e-05
1.40478e-05
1.40478e-05
1.40478e-05
1.40478e-05
1.40478e-05
1.40478e-05
1.40479e-05
1.40479e-05
1.40479e-05
1.40479e-05
1.40479e-05
1.40479e-05
1.40479e-05
1.4048e-05
1.4048e-05
1.4048e-05
1.40481e-05
1.40481e-05
1.40481e-05
1.40482e-05
1.40482e-05
1.40483e-05
1.40484e-05
1.40484e-05
1.40485e-05
1.40486e-05
1.40487e-05
1.40488e-05
1.40489e-05
1.4049e-05
1.40491e-05
1.40492e-05
1.40494e-05
1.40495e-05
1.40496e-05
1.40497e-05
1.40498e-05
1.405e-05
1.40501e-05
1.40502e-05
1.40503e-05
1.40504e-05
1.40505e-05
1.40505e-05
1.40505e-05
1.40506e-05
1.40506e-05
1.40505e-05
1.40505e-05
1.40504e-05
1.40503e-05
1.40502e-05
1.40501e-05
1.40499e-05
1.40498e-05
1.40496e-05
1.40495e-05
1.40493e-05
1.40492e-05
1.4049e-05
1.40489e-05
1.40488e-05
1.40486e-05
1.40485e-05
1.40484e-05
1.40483e-05
1.40482e-05
1.40481e-05
1.40481e-05
1.4048e-05
1.4048e-05
1.40479e-05
1.40479e-05
1.40479e-05
1.40479e-05
1.40478e-05
1.40478e-05
1.40478e-05
1.40478e-05
1.40478e-05
1.40478e-05
1.40478e-05
1.40478e-05
1.40478e-05
1.40478e-05
1.40478e-05
1.40478e-05
1.40478e-05
1.40478e-05
1.40478e-05
1.40478e-05
1.40478e-05
1.40478e-05
1.40478e-05
1.40478e-05
1.40478e-05
1.40478e-05
1.40478e-05
1.40478e-05
1.40478e-05
1.40478e-05
1.40478e-05
1.40478e-05
1.40478e-05
1.40478e-05
1.40478e-05
1.40478e-05
1.40478e-05
1.40478e-05
1.40479e-05
1.40479e-05
1.40479e-05
1.40479e-05
1.40479e-05
1.40479e-05
1.4048e-05
1.4048e-05
1.4048e-05
1.40481e-05
1.40481e-05
1.40482e-05
1.40483e-05
1.40483e-05
1.40484e-05
1.40485e-05
1.40486e-05
1.40488e-05
1.40489e-05
1.40491e-05
1.40493e-05
1.40495e-05
1.40498e-05
1.405e-05
1.40503e-05
1.40507e-05
1.40511e-05
1.40515e-05
1.4052e-05
1.40525e-05
1.40531e-05
1.40538e-05
1.40545e-05
1.40552e-05
1.4056e-05
1.40567e-05
1.40576e-05
1.40584e-05
1.40592e-05
1.40601e-05
1.4061e-05
1.40619e-05
1.40628e-05
1.40637e-05
1.40645e-05
1.40654e-05
1.40661e-05
1.40668e-05
1.40673e-05
1.40678e-05
1.4068e-05
1.40682e-05
1.40681e-05
1.40679e-05
1.40675e-05
1.4067e-05
1.40663e-05
1.40655e-05
1.40646e-05
1.40636e-05
1.40625e-05
1.40613e-05
1.40602e-05
1.4059e-05
1.40578e-05
1.40568e-05
1.40558e-05
1.40548e-05
1.4054e-05
1.40532e-05
1.40524e-05
1.40517e-05
1.4051e-05
1.40504e-05
1.40499e-05
1.40495e-05
1.40491e-05
1.40488e-05
1.40486e-05
1.40484e-05
1.40483e-05
1.40482e-05
1.40481e-05
1.4048e-05
1.40479e-05
1.40479e-05
1.40479e-05
1.40478e-05
1.40478e-05
1.40478e-05
1.40478e-05
1.40478e-05
1.40478e-05
1.40478e-05
1.40478e-05
1.40478e-05
1.40478e-05
1.40478e-05
1.40478e-05
1.40478e-05
1.40478e-05
1.40478e-05
1.40478e-05
1.40478e-05
1.40478e-05
1.40478e-05
1.40478e-05
1.40478e-05
1.40478e-05
1.40478e-05
1.40478e-05
1.40478e-05
1.40478e-05
1.40478e-05
1.40478e-05
1.40483e-05
1.40484e-05
1.40485e-05
1.40486e-05
1.40488e-05
1.40489e-05
1.40491e-05
1.40494e-05
1.40496e-05
1.40499e-05
1.40503e-05
1.40507e-05
1.40512e-05
1.40517e-05
1.40524e-05
1.40531e-05
1.40539e-05
1.40549e-05
1.4056e-05
1.40572e-05
1.40586e-05
1.40602e-05
1.40619e-05
1.40639e-05
1.40661e-05
1.40686e-05
1.40714e-05
1.40745e-05
1.4078e-05
1.40819e-05
1.40861e-05
1.40907e-05
1.40956e-05
1.41007e-05
1.41061e-05
1.41116e-05
1.41173e-05
1.41231e-05
1.4129e-05
1.41352e-05
1.41415e-05
1.4148e-05
1.41545e-05
1.4161e-05
1.41673e-05
1.41733e-05
1.41787e-05
1.41835e-05
1.41875e-05
1.41906e-05
1.41926e-05
1.41933e-05
1.41928e-05
1.41912e-05
1.41886e-05
1.41848e-05
1.41801e-05
1.41744e-05
1.41679e-05
1.41606e-05
1.41528e-05
1.41446e-05
1.41361e-05
1.41276e-05
1.41194e-05
1.41116e-05
1.41045e-05
1.40979e-05
1.40918e-05
1.4086e-05
1.40806e-05
1.40756e-05
1.40709e-05
1.40667e-05
1.40631e-05
1.406e-05
1.40574e-05
1.40553e-05
1.40537e-05
1.40524e-05
1.40513e-05
1.40504e-05
1.40498e-05
1.40492e-05
1.40488e-05
1.40485e-05
1.40483e-05
1.40482e-05
1.40481e-05
1.4048e-05
1.40479e-05
1.40479e-05
1.40478e-05
1.40478e-05
1.40478e-05
1.40478e-05
1.40478e-05
1.40478e-05
1.40478e-05
1.40478e-05
1.40478e-05
1.40478e-05
1.40478e-05
1.40478e-05
1.40478e-05
1.40478e-05
1.40478e-05
1.40478e-05
1.40478e-05
1.40478e-05
1.40478e-05
1.40478e-05
1.40478e-05
1.40478e-05
1.40478e-05
1.40478e-05
1.40489e-05
1.40491e-05
1.40493e-05
1.40496e-05
1.405e-05
1.40504e-05
1.40508e-05
1.40514e-05
1.4052e-05
1.40527e-05
1.40536e-05
1.40546e-05
1.40558e-05
1.40572e-05
1.40589e-05
1.40607e-05
1.40629e-05
1.40654e-05
1.40683e-05
1.40716e-05
1.40754e-05
1.40798e-05
1.4085e-05
1.40909e-05
1.40976e-05
1.41053e-05
1.4114e-05
1.41236e-05
1.41344e-05
1.41465e-05
1.416e-05
1.41752e-05
1.41925e-05
1.4212e-05
1.42339e-05
1.42583e-05
1.42851e-05
1.43142e-05
1.43454e-05
1.43785e-05
1.44131e-05
1.44488e-05
1.44854e-05
1.45227e-05
1.45609e-05
1.46003e-05
1.46413e-05
1.46837e-05
1.47272e-05
1.47711e-05
1.48144e-05
1.48562e-05
1.48954e-05
1.4931e-05
1.49619e-05
1.49874e-05
1.50069e-05
1.50193e-05
1.50222e-05
1.50187e-05
1.50083e-05
1.49908e-05
1.49666e-05
1.49358e-05
1.48991e-05
1.4857e-05
1.481e-05
1.47589e-05
1.47046e-05
1.46484e-05
1.45917e-05
1.45361e-05
1.44834e-05
1.4435e-05
1.43906e-05
1.43496e-05
1.4311e-05
1.42745e-05
1.42402e-05
1.42085e-05
1.41797e-05
1.41543e-05
1.41326e-05
1.41148e-05
1.41005e-05
1.40891e-05
1.40799e-05
1.40725e-05
1.40665e-05
1.40617e-05
1.4058e-05
1.40552e-05
1.40531e-05
1.40516e-05
1.40505e-05
1.40496e-05
1.40491e-05
1.40487e-05
1.40484e-05
1.40482e-05
1.4048e-05
1.4048e-05
1.40479e-05
1.40479e-05
1.40478e-05
1.40478e-05
1.40478e-05
1.40478e-05
1.40478e-05
1.40478e-05
1.40478e-05
1.40478e-05
1.40478e-05
1.40478e-05
1.40478e-05
1.40478e-05
1.40478e-05
1.40478e-05
1.40478e-05
1.40478e-05
1.40478e-05
1.40478e-05
1.40478e-05
1.40553e-05
1.40567e-05
1.40584e-05
1.40604e-05
1.40627e-05
1.40654e-05
1.40686e-05
1.40723e-05
1.40767e-05
1.40818e-05
1.40878e-05
1.40948e-05
1.4103e-05
1.41125e-05
1.41236e-05
1.41363e-05
1.4151e-05
1.41677e-05
1.41871e-05
1.42095e-05
1.42354e-05
1.42655e-05
1.43002e-05
1.43401e-05
1.43853e-05
1.44364e-05
1.44933e-05
1.45564e-05
1.46262e-05
1.47037e-05
1.47906e-05
1.48885e-05
1.49987e-05
1.51219e-05
1.52584e-05
1.54079e-05
1.55695e-05
1.57418e-05
1.59227e-05
1.611e-05
1.63017e-05
1.64955e-05
1.669e-05
1.68856e-05
1.70852e-05
1.72916e-05
1.75053e-05
1.77248e-05
1.79467e-05
1.81667e-05
1.83797e-05
1.85808e-05
1.87652e-05
1.8929e-05
1.90685e-05
1.91811e-05
1.92653e-05
1.93166e-05
1.9324e-05
1.93048e-05
1.9255e-05
1.91744e-05
1.90634e-05
1.89228e-05
1.87537e-05
1.85576e-05
1.83356e-05
1.80897e-05
1.78232e-05
1.75406e-05
1.72478e-05
1.69526e-05
1.66661e-05
1.63985e-05
1.61517e-05
1.59207e-05
1.56999e-05
1.54869e-05
1.52825e-05
1.50894e-05
1.49107e-05
1.47499e-05
1.46104e-05
1.44944e-05
1.44008e-05
1.4326e-05
1.42656e-05
1.4216e-05
1.41753e-05
1.41426e-05
1.41173e-05
1.40983e-05
1.40843e-05
1.40739e-05
1.40662e-05
1.40606e-05
1.40566e-05
1.40538e-05
1.40518e-05
1.40505e-05
1.40496e-05
1.40489e-05
1.40485e-05
1.40483e-05
1.40481e-05
1.4048e-05
1.40479e-05
1.40479e-05
1.40478e-05
1.40478e-05
1.40478e-05
1.40478e-05
1.40478e-05
1.40478e-05
1.40478e-05
1.40478e-05
1.40478e-05
1.40478e-05
1.40478e-05
1.40478e-05
1.40478e-05
1.40478e-05
1.40478e-05
1.40984e-05
1.41078e-05
1.4119e-05
1.41322e-05
1.41476e-05
1.41656e-05
1.41866e-05
1.42111e-05
1.42397e-05
1.42733e-05
1.43127e-05
1.43587e-05
1.44123e-05
1.44742e-05
1.45454e-05
1.46265e-05
1.47187e-05
1.48237e-05
1.49438e-05
1.50818e-05
1.52402e-05
1.54212e-05
1.56262e-05
1.58564e-05
1.61118e-05
1.63921e-05
1.6696e-05
1.70226e-05
1.73737e-05
1.77556e-05
1.81749e-05
1.86358e-05
1.91387e-05
1.96811e-05
2.0258e-05
2.08627e-05
2.14874e-05
2.21229e-05
2.27602e-05
2.33912e-05
2.40092e-05
2.46096e-05
2.51911e-05
2.57603e-05
2.63375e-05
2.69278e-05
2.75248e-05
2.81181e-05
2.86967e-05
2.92496e-05
2.97663e-05
3.02375e-05
3.06554e-05
3.10147e-05
3.13114e-05
3.15432e-05
3.17107e-05
3.18018e-05
3.18018e-05
3.17452e-05
3.16228e-05
3.14364e-05
3.11843e-05
3.08643e-05
3.04771e-05
3.00217e-05
2.9495e-05
2.88956e-05
2.82257e-05
2.749e-05
2.66956e-05
2.58574e-05
2.50038e-05
2.41747e-05
2.33841e-05
2.26132e-05
2.18402e-05
2.10556e-05
2.02615e-05
1.9468e-05
1.86897e-05
1.79462e-05
1.72626e-05
1.66654e-05
1.61661e-05
1.57536e-05
1.54085e-05
1.51155e-05
1.48675e-05
1.46634e-05
1.45028e-05
1.43811e-05
1.42902e-05
1.42223e-05
1.41716e-05
1.41342e-05
1.41073e-05
1.40884e-05
1.40752e-05
1.4066e-05
1.40598e-05
1.40556e-05
1.40528e-05
1.4051e-05
1.40498e-05
1.4049e-05
1.40486e-05
1.40483e-05
1.40481e-05
1.4048e-05
1.40479e-05
1.40478e-05
1.40478e-05
1.40478e-05
1.40478e-05
1.40478e-05
1.40478e-05
1.40478e-05
1.40478e-05
1.40478e-05
1.40478e-05
1.40478e-05
1.40478e-05
1.43751e-05
1.44354e-05
1.45062e-05
1.45888e-05
1.46846e-05
1.4795e-05
1.49223e-05
1.50691e-05
1.52391e-05
1.54357e-05
1.56622e-05
1.59215e-05
1.62156e-05
1.6546e-05
1.69133e-05
1.7318e-05
1.77618e-05
1.8251e-05
1.87935e-05
1.93955e-05
2.00591e-05
2.07832e-05
2.15637e-05
2.23939e-05
2.32656e-05
2.4169e-05
2.5094e-05
2.60346e-05
2.6997e-05
2.80062e-05
2.90718e-05
3.0187e-05
3.13376e-05
3.25075e-05
3.36806e-05
3.48418e-05
3.59766e-05
3.70715e-05
3.81155e-05
3.91018e-05
4.00278e-05
4.08939e-05
4.1705e-05
4.248e-05
4.3309e-05
4.41703e-05
4.50249e-05
4.58461e-05
4.66165e-05
4.73236e-05
4.7957e-05
4.85099e-05
4.89762e-05
4.93597e-05
4.96607e-05
4.9881e-05
5.00314e-05
5.00845e-05
5.00569e-05
4.99647e-05
4.97965e-05
4.95673e-05
4.92697e-05
4.88945e-05
4.84429e-05
4.79096e-05
4.72805e-05
4.65448e-05
4.56983e-05
4.47365e-05
4.36576e-05
4.24616e-05
4.11661e-05
3.98723e-05
3.86465e-05
3.74178e-05
3.61241e-05
3.47344e-05
3.32391e-05
3.16412e-05
2.99513e-05
2.81965e-05
2.64334e-05
2.47555e-05
2.32398e-05
2.18808e-05
2.0638e-05
1.94826e-05
1.84149e-05
1.7463e-05
1.66633e-05
1.60247e-05
1.55252e-05
1.51347e-05
1.48312e-05
1.46013e-05
1.44331e-05
1.4313e-05
1.42282e-05
1.41687e-05
1.41276e-05
1.40998e-05
1.40814e-05
1.40692e-05
1.40613e-05
1.40562e-05
1.4053e-05
1.40509e-05
1.40497e-05
1.40489e-05
1.40485e-05
1.40482e-05
1.4048e-05
1.40479e-05
1.40479e-05
1.40478e-05
1.40478e-05
1.40478e-05
1.40478e-05
1.40478e-05
1.40478e-05
1.40478e-05
1.40478e-05
1.40478e-05
1.40478e-05
1.59728e-05
1.62952e-05
1.66621e-05
1.70755e-05
1.75368e-05
1.8048e-05
1.86135e-05
1.92411e-05
1.99378e-05
2.07077e-05
2.15507e-05
2.24636e-05
2.34403e-05
2.44727e-05
2.55514e-05
2.66677e-05
2.78225e-05
2.90325e-05
3.03102e-05
3.16505e-05
3.30386e-05
3.44572e-05
3.58893e-05
3.73186e-05
3.87297e-05
4.01084e-05
4.14424e-05
4.27287e-05
4.3985e-05
4.53185e-05
4.67162e-05
4.8131e-05
4.95234e-05
5.08638e-05
5.2131e-05
5.33109e-05
5.43939e-05
5.53733e-05
5.62481e-05
5.7024e-05
5.77095e-05
5.83142e-05
5.88463e-05
5.93135e-05
5.97132e-05
6.00496e-05
6.03286e-05
6.0556e-05
6.07374e-05
6.08774e-05
6.09766e-05
6.10396e-05
6.10499e-05
6.10336e-05
6.0991e-05
6.09204e-05
6.08295e-05
6.07087e-05
6.05658e-05
6.04184e-05
6.02646e-05
6.00747e-05
5.98641e-05
5.96366e-05
5.93967e-05
5.91276e-05
5.88275e-05
5.84952e-05
5.81278e-05
5.77217e-05
5.72779e-05
5.6787e-05
5.62348e-05
5.55974e-05
5.4855e-05
5.39906e-05
5.29784e-05
5.18001e-05
5.04353e-05
4.88601e-05
4.70425e-05
4.49635e-05
4.26517e-05
4.02389e-05
3.79734e-05
3.5806e-05
3.3635e-05
3.13918e-05
2.90709e-05
2.67487e-05
2.45732e-05
2.2644e-05
2.09561e-05
1.9473e-05
1.81843e-05
1.71117e-05
1.62682e-05
1.56292e-05
1.51529e-05
1.48032e-05
1.45539e-05
1.43818e-05
1.42654e-05
1.41877e-05
1.41365e-05
1.41033e-05
1.40821e-05
1.40688e-05
1.40605e-05
1.40554e-05
1.40523e-05
1.40504e-05
1.40493e-05
1.40487e-05
1.40483e-05
1.40481e-05
1.40479e-05
1.40479e-05
1.40478e-05
1.40478e-05
1.40478e-05
1.40478e-05
1.40478e-05
1.40478e-05
1.40478e-05
2.24925e-05
2.3535e-05
2.46484e-05
2.58242e-05
2.70528e-05
2.83296e-05
2.96604e-05
3.10592e-05
3.25245e-05
3.40435e-05
3.55987e-05
3.71723e-05
3.87474e-05
4.03089e-05
4.18431e-05
4.33408e-05
4.48072e-05
4.63153e-05
4.78912e-05
4.94934e-05
5.10792e-05
5.2615e-05
5.40763e-05
5.54456e-05
5.67115e-05
5.78655e-05
5.89038e-05
5.98299e-05
6.06503e-05
6.13636e-05
6.19838e-05
6.25241e-05
6.29942e-05
6.34008e-05
6.37478e-05
6.40365e-05
6.42682e-05
6.44433e-05
6.45702e-05
6.46643e-05
6.47343e-05
6.47916e-05
6.48367e-05
6.48646e-05
6.48843e-05
6.4887e-05
6.4879e-05
6.48597e-05
6.48279e-05
6.47829e-05
6.47264e-05
6.46564e-05
6.45692e-05
6.4468e-05
6.43503e-05
6.42147e-05
6.40686e-05
6.39253e-05
6.37553e-05
6.35795e-05
6.34128e-05
6.32427e-05
6.30689e-05
6.28989e-05