/*--------------------------------*- C++ -*----------------------------------*\
| =========                 |                                                 |
| \\      /  F ield         | OpenFOAM: The Open Source CFD Toolbox           |
|  \\    /   O peration     | Version:  v1706                                 |
|   \\  /    A nd           | Web:      www.OpenFOAM.com                      |
|    \\/     M anipulation  |                                                 |
\*---------------------------------------------------------------------------*/
FoamFile
{
    version     2.0;
    format      ascii;
    class       volScalarField;
    location    "1.1e-05";
    object      kappave;
}
// * * * * * * * * * * * * * * * * * * * * * * * * * * * * * * * * * * * * * //

dimensions      [1 1 -3 -1 0 0 0];


internalField   nonuniform List<scalar> 
29871
(
1.46038e-10
1.46038e-10
1.46038e-10
1.46038e-10
1.46038e-10
1.46038e-10
1.46038e-10
1.46038e-10
1.46038e-10
1.46038e-10
1.46038e-10
1.46038e-10
1.46038e-10
1.46038e-10
1.46038e-10
1.46038e-10
1.46038e-10
1.46038e-10
1.46038e-10
1.46038e-10
1.46038e-10
1.46038e-10
1.46038e-10
1.46038e-10
1.46038e-10
1.46038e-10
1.46038e-10
1.46038e-10
1.46038e-10
1.46038e-10
1.46038e-10
1.46038e-10
1.46038e-10
1.46038e-10
1.46038e-10
1.46038e-10
1.46038e-10
1.46038e-10
1.46038e-10
1.46038e-10
1.46038e-10
1.46038e-10
1.46038e-10
1.46038e-10
1.46038e-10
1.46038e-10
1.46038e-10
1.46038e-10
1.46038e-10
1.46038e-10
1.46038e-10
1.46038e-10
1.46038e-10
1.46038e-10
1.46038e-10
1.46038e-10
1.46038e-10
1.46038e-10
1.46038e-10
1.46038e-10
1.46038e-10
1.46038e-10
1.46038e-10
1.46038e-10
1.46038e-10
1.46038e-10
1.46038e-10
1.46038e-10
1.46038e-10
1.46038e-10
1.46038e-10
1.46038e-10
1.46038e-10
1.46038e-10
1.46038e-10
1.46038e-10
1.46038e-10
1.46038e-10
1.46038e-10
1.46038e-10
1.46038e-10
1.46038e-10
1.46038e-10
1.46038e-10
1.46038e-10
1.46038e-10
1.46038e-10
1.46038e-10
1.46038e-10
1.46038e-10
1.46038e-10
1.46038e-10
1.46038e-10
1.46038e-10
1.46038e-10
1.46038e-10
1.46038e-10
1.46038e-10
1.46038e-10
1.46038e-10
1.46038e-10
1.46038e-10
1.46038e-10
1.46038e-10
1.46038e-10
1.46038e-10
1.46038e-10
1.46038e-10
1.46038e-10
1.46038e-10
1.46038e-10
1.46038e-10
1.46038e-10
1.46038e-10
1.46038e-10
1.46038e-10
1.46038e-10
1.46038e-10
1.46038e-10
1.46038e-10
1.46038e-10
1.46038e-10
1.46038e-10
1.46038e-10
1.46038e-10
1.46038e-10
1.46038e-10
1.46038e-10
1.46038e-10
1.46038e-10
1.46038e-10
1.46038e-10
1.46038e-10
1.46038e-10
1.46038e-10
1.46038e-10
1.46038e-10
1.46038e-10
1.46038e-10
1.46038e-10
1.46038e-10
1.46038e-10
1.46038e-10
1.46038e-10
1.46038e-10
1.46038e-10
1.46038e-10
1.46038e-10
1.46038e-10
1.46038e-10
1.46038e-10
1.46038e-10
1.46038e-10
1.46038e-10
1.46038e-10
1.46038e-10
1.46038e-10
1.46038e-10
1.46038e-10
1.46038e-10
1.46038e-10
1.46038e-10
1.46038e-10
1.46038e-10
1.46038e-10
1.46038e-10
1.46038e-10
1.46038e-10
1.46038e-10
1.46038e-10
1.46038e-10
1.46038e-10
1.46038e-10
1.46038e-10
1.46038e-10
1.46038e-10
1.46038e-10
1.46038e-10
1.46038e-10
1.46038e-10
1.46038e-10
1.46038e-10
1.46038e-10
1.46038e-10
1.46038e-10
1.46038e-10
1.46038e-10
1.46038e-10
1.46038e-10
1.46038e-10
1.46038e-10
1.46038e-10
1.46038e-10
1.46038e-10
1.46038e-10
1.46038e-10
1.46038e-10
1.46038e-10
1.46038e-10
1.46038e-10
1.46038e-10
1.46038e-10
1.46038e-10
1.46038e-10
1.46038e-10
1.46038e-10
1.46038e-10
1.46038e-10
1.46038e-10
1.46038e-10
1.46038e-10
1.46038e-10
1.46038e-10
1.46038e-10
1.46038e-10
1.46038e-10
1.46038e-10
1.46038e-10
1.46038e-10
1.46038e-10
1.46038e-10
1.46038e-10
1.46038e-10
1.46038e-10
1.46038e-10
1.46038e-10
1.46038e-10
1.46038e-10
1.46038e-10
1.46038e-10
1.46038e-10
1.46038e-10
1.46038e-10
1.46038e-10
1.46038e-10
1.46038e-10
1.46038e-10
1.46038e-10
1.46038e-10
1.46038e-10
1.46038e-10
1.46038e-10
1.46038e-10
1.46038e-10
1.46038e-10
1.46038e-10
1.46038e-10
1.46038e-10
1.46038e-10
1.46038e-10
1.46038e-10
1.46038e-10
1.46038e-10
1.46038e-10
1.46038e-10
1.46038e-10
1.46038e-10
1.46038e-10
1.46038e-10
1.46038e-10
1.46038e-10
1.46038e-10
1.46038e-10
1.46038e-10
1.46038e-10
1.46038e-10
1.46038e-10
1.46038e-10
1.46038e-10
1.46038e-10
1.46038e-10
1.46038e-10
1.46038e-10
1.46038e-10
1.46038e-10
1.46038e-10
1.46038e-10
1.46038e-10
1.46038e-10
1.46038e-10
1.46038e-10
1.46038e-10
1.46038e-10
1.46038e-10
1.46038e-10
1.46038e-10
1.46038e-10
1.46038e-10
1.46038e-10
1.46038e-10
1.46038e-10
1.46038e-10
1.46038e-10
1.46038e-10
1.46038e-10
1.46038e-10
1.46038e-10
1.46038e-10
1.46038e-10
1.46038e-10
1.46038e-10
1.46038e-10
1.46038e-10
1.46038e-10
1.46038e-10
1.46038e-10
1.46038e-10
1.46038e-10
1.46038e-10
1.46038e-10
1.46038e-10
1.46038e-10
1.46038e-10
1.46038e-10
1.46038e-10
1.46038e-10
1.46038e-10
1.46038e-10
1.46038e-10
1.46038e-10
1.46038e-10
1.46038e-10
1.46038e-10
1.46038e-10
1.46038e-10
1.46038e-10
1.46038e-10
1.46038e-10
1.46038e-10
1.46038e-10
1.46038e-10
1.46038e-10
1.46038e-10
1.46038e-10
1.46038e-10
1.46038e-10
1.46038e-10
1.46038e-10
1.46038e-10
1.46038e-10
1.46038e-10
1.46038e-10
1.46038e-10
1.46038e-10
1.46038e-10
1.46038e-10
1.46038e-10
1.46038e-10
1.46038e-10
1.46038e-10
1.46038e-10
1.46038e-10
1.46038e-10
1.46038e-10
1.46038e-10
1.46038e-10
1.46038e-10
1.46038e-10
1.46038e-10
1.46038e-10
1.46038e-10
1.46038e-10
1.46038e-10
1.46038e-10
1.46038e-10
1.46038e-10
1.46038e-10
1.46038e-10
1.46038e-10
1.46038e-10
1.46038e-10
1.46038e-10
1.46038e-10
1.46038e-10
1.46038e-10
1.46038e-10
1.46038e-10
1.46038e-10
1.46038e-10
1.46038e-10
1.46038e-10
1.46038e-10
1.46038e-10
1.46038e-10
1.46038e-10
1.46038e-10
1.46038e-10
1.46038e-10
1.46038e-10
1.46038e-10
1.46038e-10
1.46038e-10
1.46038e-10
1.46038e-10
1.46038e-10
1.46038e-10
1.46038e-10
1.46038e-10
1.46038e-10
1.46038e-10
1.46038e-10
1.46038e-10
1.46038e-10
1.46038e-10
1.46038e-10
1.46038e-10
1.46038e-10
1.46038e-10
1.46038e-10
1.46038e-10
1.46038e-10
1.46038e-10
1.46038e-10
1.46038e-10
1.46038e-10
1.46038e-10
1.46038e-10
1.46038e-10
1.46038e-10
1.46038e-10
1.46038e-10
1.46038e-10
1.46038e-10
1.46038e-10
1.46038e-10
1.46038e-10
1.46038e-10
1.46038e-10
1.46038e-10
1.46038e-10
1.46038e-10
1.46038e-10
1.46038e-10
1.46038e-10
1.46038e-10
1.46038e-10
1.46038e-10
1.46038e-10
1.46038e-10
1.46038e-10
1.46038e-10
1.46038e-10
1.46038e-10
1.46038e-10
1.46038e-10
1.46038e-10
1.46038e-10
1.46038e-10
1.46038e-10
1.46038e-10
1.46038e-10
1.46038e-10
1.46038e-10
1.46038e-10
1.46038e-10
1.46038e-10
1.46038e-10
1.46038e-10
1.46038e-10
1.46038e-10
1.46038e-10
1.46038e-10
1.46038e-10
1.46038e-10
1.46038e-10
1.46038e-10
1.46038e-10
1.46038e-10
1.46038e-10
1.46038e-10
1.46038e-10
1.46038e-10
1.46038e-10
1.46038e-10
1.46038e-10
1.46038e-10
1.46038e-10
1.46038e-10
1.46038e-10
1.46038e-10
1.46038e-10
1.46038e-10
1.46038e-10
1.46038e-10
1.46038e-10
1.46038e-10
1.46038e-10
1.46038e-10
1.46038e-10
1.46038e-10
1.46038e-10
1.46038e-10
1.46038e-10
1.46038e-10
1.46038e-10
1.46038e-10
1.46038e-10
1.46038e-10
1.46038e-10
1.46038e-10
1.46038e-10
1.46038e-10
1.46038e-10
1.46038e-10
1.46038e-10
1.46038e-10
1.46038e-10
1.46038e-10
1.46038e-10
1.46038e-10
1.46038e-10
1.46038e-10
1.46038e-10
1.46038e-10
1.46038e-10
1.46038e-10
1.46038e-10
1.46038e-10
1.46038e-10
1.46038e-10
1.46038e-10
1.46038e-10
1.46038e-10
1.46038e-10
1.46038e-10
1.46038e-10
1.46038e-10
1.46038e-10
1.46038e-10
1.46038e-10
1.46038e-10
1.46038e-10
1.46038e-10
1.46038e-10
1.46038e-10
1.46038e-10
1.46038e-10
1.46038e-10
1.46038e-10
1.46038e-10
1.46038e-10
1.46038e-10
1.46038e-10
1.46038e-10
1.46038e-10
1.46038e-10
1.46038e-10
1.46038e-10
1.46038e-10
1.46038e-10
1.46038e-10
1.46038e-10
1.46038e-10
1.46038e-10
1.46038e-10
1.46038e-10
1.46038e-10
1.46038e-10
1.46038e-10
1.46038e-10
1.46038e-10
1.46038e-10
1.46038e-10
1.46038e-10
1.46038e-10
1.46038e-10
1.46038e-10
1.46038e-10
1.46038e-10
1.46038e-10
1.46038e-10
1.46038e-10
1.46038e-10
1.46038e-10
1.46038e-10
1.46038e-10
1.46038e-10
1.46038e-10
1.46038e-10
1.46038e-10
1.46038e-10
1.46038e-10
1.46038e-10
1.46038e-10
1.46038e-10
1.46038e-10
1.46038e-10
1.46038e-10
1.46038e-10
1.46038e-10
1.46038e-10
1.46038e-10
1.46038e-10
1.46038e-10
1.46038e-10
1.46038e-10
1.46038e-10
1.46038e-10
1.46038e-10
1.46038e-10
1.46038e-10
1.46038e-10
1.46038e-10
1.46038e-10
1.46038e-10
1.46038e-10
1.46038e-10
1.46038e-10
1.46038e-10
1.46038e-10
1.46038e-10
1.46038e-10
1.46038e-10
1.46038e-10
1.46038e-10
1.46038e-10
1.46038e-10
1.46038e-10
1.46038e-10
1.46038e-10
1.46038e-10
1.46038e-10
1.46038e-10
1.46038e-10
1.46038e-10
1.46038e-10
1.46038e-10
1.46038e-10
1.46038e-10
1.46038e-10
1.46038e-10
1.46038e-10
1.46038e-10
1.46038e-10
1.46038e-10
1.46038e-10
1.46038e-10
1.46038e-10
1.46038e-10
1.46038e-10
1.46038e-10
1.46038e-10
1.46038e-10
1.46038e-10
1.46038e-10
1.46038e-10
1.46038e-10
1.46038e-10
1.46038e-10
1.46038e-10
1.46038e-10
1.46038e-10
1.46038e-10
1.46038e-10
1.46038e-10
1.46038e-10
1.46038e-10
1.46038e-10
1.46038e-10
1.46038e-10
1.46038e-10
1.46038e-10
1.46038e-10
1.46038e-10
1.46038e-10
1.46038e-10
1.46038e-10
1.46038e-10
1.46038e-10
1.46038e-10
1.46038e-10
1.46038e-10
1.46038e-10
1.46038e-10
1.46038e-10
1.46038e-10
1.46038e-10
1.46038e-10
1.46038e-10
1.46038e-10
1.46038e-10
1.46038e-10
1.46038e-10
1.46038e-10
1.46038e-10
1.46038e-10
1.46038e-10
1.46038e-10
1.46038e-10
1.46038e-10
1.46038e-10
1.46038e-10
1.46038e-10
1.46038e-10
1.46038e-10
1.46038e-10
1.46038e-10
1.46038e-10
1.46038e-10
1.46038e-10
1.46038e-10
1.46038e-10
1.46038e-10
1.46038e-10
1.46038e-10
1.46038e-10
1.46038e-10
1.46038e-10
1.46038e-10
1.46038e-10
1.46038e-10
1.46038e-10
1.46038e-10
1.46038e-10
1.46038e-10
1.46038e-10
1.46038e-10
1.46038e-10
1.46038e-10
1.46038e-10
1.46038e-10
1.46038e-10
1.46038e-10
1.46038e-10
1.46038e-10
1.46038e-10
1.46038e-10
1.46038e-10
1.46038e-10
1.46038e-10
1.46038e-10
1.46038e-10
1.46038e-10
1.46038e-10
1.46038e-10
1.46038e-10
1.46038e-10
1.46038e-10
1.46038e-10
1.46038e-10
1.46038e-10
1.46038e-10
1.46038e-10
1.46038e-10
1.46038e-10
1.46038e-10
1.46038e-10
1.46038e-10
1.46038e-10
1.46038e-10
1.46038e-10
1.46038e-10
1.46038e-10
1.46038e-10
1.46038e-10
1.46038e-10
1.46038e-10
1.46038e-10
1.46038e-10
1.46038e-10
1.46038e-10
1.46038e-10
1.46038e-10
1.46038e-10
1.46038e-10
1.46038e-10
1.46038e-10
1.46038e-10
1.46038e-10
1.46038e-10
1.46038e-10
1.46038e-10
1.46038e-10
1.46038e-10
1.46038e-10
1.46038e-10
1.46038e-10
1.46038e-10
1.46038e-10
1.46038e-10
1.46038e-10
1.46038e-10
1.46038e-10
1.46038e-10
1.46038e-10
1.46038e-10
1.46038e-10
1.46038e-10
1.46038e-10
1.46038e-10
1.46038e-10
1.46038e-10
1.46038e-10
1.46038e-10
1.46038e-10
1.46038e-10
1.46038e-10
1.46038e-10
1.46038e-10
1.46038e-10
1.46038e-10
1.46038e-10
1.46038e-10
1.46038e-10
1.46038e-10
1.46038e-10
1.46038e-10
1.46038e-10
1.46038e-10
1.46038e-10
1.46038e-10
1.46038e-10
1.46038e-10
1.46038e-10
1.46038e-10
1.46038e-10
1.46038e-10
1.46038e-10
1.46038e-10
1.46038e-10
1.46038e-10
1.46038e-10
1.46038e-10
1.46038e-10
1.46038e-10
1.46038e-10
1.46038e-10
1.46038e-10
1.46038e-10
1.46038e-10
1.46038e-10
1.46038e-10
1.46038e-10
1.46038e-10
1.46038e-10
1.46038e-10
1.46038e-10
1.46038e-10
1.46038e-10
1.46038e-10
1.46038e-10
1.46038e-10
1.46038e-10
1.46038e-10
1.46038e-10
1.46038e-10
1.46038e-10
1.46038e-10
1.46038e-10
1.46038e-10
1.46038e-10
1.46038e-10
1.46038e-10
1.46038e-10
1.46038e-10
1.46038e-10
1.46038e-10
1.46038e-10
1.46038e-10
1.46038e-10
1.46038e-10
1.46038e-10
1.46038e-10
1.46038e-10
1.46038e-10
1.46038e-10
1.46038e-10
1.46038e-10
1.46038e-10
1.46038e-10
1.46038e-10
1.46038e-10
1.46038e-10
1.46038e-10
1.46038e-10
1.46038e-10
1.46038e-10
1.46038e-10
1.46038e-10
1.46038e-10
1.46038e-10
1.46038e-10
1.46038e-10
1.46038e-10
1.46038e-10
1.46038e-10
1.46038e-10
1.46038e-10
1.46038e-10
1.46038e-10
1.46038e-10
1.46038e-10
1.46038e-10
1.46038e-10
1.46038e-10
1.46038e-10
1.46038e-10
1.46038e-10
1.46038e-10
1.46038e-10
1.46038e-10
1.46038e-10
1.46038e-10
1.46038e-10
1.46038e-10
1.46038e-10
1.46038e-10
1.46038e-10
1.46038e-10
1.46038e-10
1.46038e-10
1.46038e-10
1.46038e-10
1.46038e-10
1.46038e-10
1.46038e-10
1.46038e-10
1.46038e-10
1.46038e-10
1.46038e-10
1.46038e-10
1.46038e-10
1.46038e-10
1.46038e-10
1.46038e-10
1.46038e-10
1.46038e-10
1.46038e-10
1.46038e-10
1.46038e-10
1.46038e-10
1.46038e-10
1.46038e-10
1.46038e-10
1.46038e-10
1.46038e-10
1.46038e-10
1.46038e-10
1.46038e-10
1.46038e-10
1.46038e-10
1.46038e-10
1.46038e-10
1.46038e-10
1.46038e-10
1.46038e-10
1.46038e-10
1.46038e-10
1.46038e-10
1.46038e-10
1.46038e-10
1.46038e-10
1.46038e-10
1.46038e-10
1.46038e-10
1.46038e-10
1.46038e-10
1.46038e-10
1.46038e-10
1.46038e-10
1.46038e-10
1.46038e-10
1.46038e-10
1.46038e-10
1.46038e-10
1.46038e-10
1.46038e-10
1.46038e-10
1.46038e-10
1.46038e-10
1.46038e-10
1.46038e-10
1.46038e-10
1.46038e-10
1.46038e-10
1.46038e-10
1.46038e-10
1.46038e-10
1.46038e-10
1.46038e-10
1.46038e-10
1.46038e-10
1.46038e-10
1.46038e-10
1.46038e-10
1.46038e-10
1.46038e-10
1.46038e-10
1.46038e-10
1.46038e-10
1.46038e-10
1.46038e-10
1.46038e-10
1.46038e-10
1.46038e-10
1.46038e-10
1.46038e-10
1.46038e-10
1.46038e-10
1.46038e-10
1.46038e-10
1.46038e-10
1.46038e-10
1.46038e-10
1.46038e-10
1.46038e-10
1.46038e-10
1.46038e-10
1.46038e-10
1.46038e-10
1.46038e-10
1.46038e-10
1.46038e-10
1.46038e-10
1.46038e-10
1.46038e-10
1.46038e-10
1.46038e-10
1.46038e-10
1.46038e-10
1.46038e-10
1.46038e-10
1.46038e-10
1.46038e-10
1.46038e-10
1.46038e-10
1.46038e-10
1.46038e-10
1.46038e-10
1.46038e-10
1.46038e-10
1.46038e-10
1.46038e-10
1.46038e-10
1.46038e-10
1.46038e-10
1.46038e-10
1.46038e-10
1.46038e-10
1.46038e-10
1.46038e-10
1.46038e-10
1.46038e-10
1.46038e-10
1.46038e-10
1.46038e-10
1.46038e-10
1.46038e-10
1.46038e-10
1.46038e-10
1.46038e-10
1.46038e-10
1.46038e-10
1.46038e-10
1.46038e-10
1.46038e-10
1.46038e-10
1.46038e-10
1.46038e-10
1.46038e-10
1.46038e-10
1.46038e-10
1.46038e-10
1.46038e-10
1.46038e-10
1.46038e-10
1.46038e-10
1.46038e-10
1.46038e-10
1.46038e-10
1.46038e-10
1.46038e-10
1.46038e-10
1.46038e-10
1.46038e-10
1.46038e-10
1.46038e-10
1.46038e-10
1.46038e-10
1.46038e-10
1.46038e-10
1.46038e-10
1.46038e-10
1.46038e-10
1.46038e-10
1.46038e-10
1.46038e-10
1.46038e-10
1.46038e-10
1.46038e-10
1.46038e-10
1.46038e-10
1.46038e-10
1.46038e-10
1.46038e-10
1.46038e-10
1.46038e-10
1.46038e-10
1.46038e-10
1.46038e-10
1.46038e-10
1.46038e-10
1.46038e-10
1.46038e-10
1.46038e-10
1.46038e-10
1.46038e-10
1.46038e-10
1.46038e-10
1.46038e-10
1.46038e-10
1.46038e-10
1.46038e-10
1.46038e-10
1.46038e-10
1.46038e-10
1.46038e-10
1.46038e-10
1.46038e-10
1.46038e-10
1.46038e-10
1.46038e-10
1.46038e-10
1.46038e-10
1.46038e-10
1.46038e-10
1.46038e-10
1.46038e-10
1.46038e-10
1.46038e-10
1.46038e-10
1.46038e-10
1.46038e-10
1.46038e-10
1.46038e-10
1.46038e-10
1.46038e-10
1.46038e-10
1.46038e-10
1.46038e-10
1.46038e-10
1.46038e-10
1.46038e-10
1.46038e-10
1.46038e-10
1.46038e-10
1.46038e-10
1.46038e-10
1.46038e-10
1.46038e-10
1.46038e-10
1.46038e-10
1.46038e-10
1.46038e-10
1.46038e-10
1.46038e-10
1.46038e-10
1.46038e-10
1.46038e-10
1.46038e-10
1.46038e-10
1.46038e-10
1.46038e-10
1.46038e-10
1.46038e-10
1.46038e-10
1.46038e-10
1.46038e-10
1.46038e-10
1.46038e-10
1.46038e-10
1.46038e-10
1.46038e-10
1.46038e-10
1.46038e-10
1.46038e-10
1.46038e-10
1.46038e-10
1.46038e-10
1.46038e-10
1.46038e-10
1.46038e-10
1.46038e-10
1.46038e-10
1.46038e-10
1.46038e-10
1.46038e-10
1.46038e-10
1.46038e-10
1.46038e-10
1.46038e-10
1.46038e-10
1.46038e-10
1.46038e-10
1.46038e-10
1.46038e-10
1.46038e-10
1.46038e-10
1.46038e-10
1.46038e-10
1.46038e-10
1.46038e-10
1.46038e-10
1.46038e-10
1.46038e-10
1.46038e-10
1.46038e-10
1.46038e-10
1.46038e-10
1.46038e-10
1.46038e-10
1.46038e-10
1.46038e-10
1.46038e-10
1.46038e-10
1.46038e-10
1.46038e-10
1.46038e-10
1.46039e-10
1.46039e-10
1.46039e-10
1.46039e-10
1.46039e-10
1.46039e-10
1.46039e-10
1.46039e-10
1.46039e-10
1.46039e-10
1.46039e-10
1.4604e-10
1.4604e-10
1.4604e-10
1.4604e-10
1.4604e-10
1.4604e-10
1.4604e-10
1.4604e-10
1.4604e-10
1.4604e-10
1.46039e-10
1.46039e-10
1.46039e-10
1.46039e-10
1.46039e-10
1.46039e-10
1.46039e-10
1.46039e-10
1.46039e-10
1.46038e-10
1.46038e-10
1.46038e-10
1.46038e-10
1.46038e-10
1.46038e-10
1.46038e-10
1.46038e-10
1.46038e-10
1.46038e-10
1.46038e-10
1.46038e-10
1.46038e-10
1.46038e-10
1.46038e-10
1.46038e-10
1.46038e-10
1.46038e-10
1.46038e-10
1.46038e-10
1.46038e-10
1.46038e-10
1.46038e-10
1.46038e-10
1.46038e-10
1.46038e-10
1.46038e-10
1.46038e-10
1.46038e-10
1.46038e-10
1.46038e-10
1.46038e-10
1.46038e-10
1.46038e-10
1.46038e-10
1.46038e-10
1.46038e-10
1.46038e-10
1.46038e-10
1.46038e-10
1.46038e-10
1.46038e-10
1.46038e-10
1.46038e-10
1.46038e-10
1.46038e-10
1.46038e-10
1.46038e-10
1.46038e-10
1.46038e-10
1.46038e-10
1.46038e-10
1.46038e-10
1.46038e-10
1.46038e-10
1.46038e-10
1.46038e-10
1.46038e-10
1.46038e-10
1.46038e-10
1.46038e-10
1.46038e-10
1.46038e-10
1.46038e-10
1.46039e-10
1.46039e-10
1.46039e-10
1.46039e-10
1.46039e-10
1.4604e-10
1.4604e-10
1.4604e-10
1.46041e-10
1.46041e-10
1.46042e-10
1.46042e-10
1.46043e-10
1.46043e-10
1.46044e-10
1.46045e-10
1.46046e-10
1.46047e-10
1.46048e-10
1.46049e-10
1.4605e-10
1.46051e-10
1.46052e-10
1.46053e-10
1.46055e-10
1.46056e-10
1.46057e-10
1.46058e-10
1.46058e-10
1.46059e-10
1.4606e-10
1.4606e-10
1.4606e-10
1.4606e-10
1.4606e-10
1.4606e-10
1.46059e-10
1.46058e-10
1.46057e-10
1.46056e-10
1.46055e-10
1.46054e-10
1.46052e-10
1.46051e-10
1.46049e-10
1.46048e-10
1.46047e-10
1.46045e-10
1.46044e-10
1.46043e-10
1.46043e-10
1.46042e-10
1.46041e-10
1.4604e-10
1.4604e-10
1.46039e-10
1.46039e-10
1.46039e-10
1.46038e-10
1.46038e-10
1.46038e-10
1.46038e-10
1.46038e-10
1.46038e-10
1.46038e-10
1.46038e-10
1.46038e-10
1.46038e-10
1.46038e-10
1.46038e-10
1.46038e-10
1.46038e-10
1.46038e-10
1.46038e-10
1.46038e-10
1.46038e-10
1.46038e-10
1.46038e-10
1.46038e-10
1.46038e-10
1.46038e-10
1.46038e-10
1.46038e-10
1.46038e-10
1.46038e-10
1.46038e-10
1.46038e-10
1.46038e-10
1.46038e-10
1.46038e-10
1.46038e-10
1.46038e-10
1.46038e-10
1.46038e-10
1.46038e-10
1.46038e-10
1.46038e-10
1.46038e-10
1.46038e-10
1.46038e-10
1.46039e-10
1.46039e-10
1.46039e-10
1.46039e-10
1.4604e-10
1.4604e-10
1.4604e-10
1.46041e-10
1.46042e-10
1.46042e-10
1.46043e-10
1.46044e-10
1.46046e-10
1.46047e-10
1.46049e-10
1.46051e-10
1.46053e-10
1.46055e-10
1.46058e-10
1.46062e-10
1.46066e-10
1.4607e-10
1.46075e-10
1.46081e-10
1.46087e-10
1.46094e-10
1.46102e-10
1.46111e-10
1.4612e-10
1.46131e-10
1.46142e-10
1.46153e-10
1.46165e-10
1.46177e-10
1.4619e-10
1.46202e-10
1.46214e-10
1.46227e-10
1.46238e-10
1.4625e-10
1.46261e-10
1.4627e-10
1.46278e-10
1.46285e-10
1.46289e-10
1.46292e-10
1.46292e-10
1.46289e-10
1.46284e-10
1.46277e-10
1.46267e-10
1.46256e-10
1.46243e-10
1.46229e-10
1.46213e-10
1.46197e-10
1.46181e-10
1.46166e-10
1.4615e-10
1.46136e-10
1.46122e-10
1.4611e-10
1.46099e-10
1.46089e-10
1.4608e-10
1.46073e-10
1.46066e-10
1.4606e-10
1.46055e-10
1.46051e-10
1.46048e-10
1.46045e-10
1.46043e-10
1.46042e-10
1.46041e-10
1.4604e-10
1.46039e-10
1.46039e-10
1.46038e-10
1.46038e-10
1.46038e-10
1.46038e-10
1.46038e-10
1.46038e-10
1.46038e-10
1.46038e-10
1.46038e-10
1.46038e-10
1.46038e-10
1.46038e-10
1.46038e-10
1.46038e-10
1.46038e-10
1.46038e-10
1.46038e-10
1.46038e-10
1.46038e-10
1.46038e-10
1.46038e-10
1.46038e-10
1.46038e-10
1.46038e-10
1.46038e-10
1.46038e-10
1.46038e-10
1.46038e-10
1.46038e-10
1.46038e-10
1.46038e-10
1.46038e-10
1.46038e-10
1.46043e-10
1.46044e-10
1.46045e-10
1.46046e-10
1.46048e-10
1.4605e-10
1.46053e-10
1.46056e-10
1.46059e-10
1.46063e-10
1.46069e-10
1.46074e-10
1.46081e-10
1.4609e-10
1.461e-10
1.46111e-10
1.46125e-10
1.46141e-10
1.4616e-10
1.46181e-10
1.46207e-10
1.46235e-10
1.46268e-10
1.46306e-10
1.46349e-10
1.46398e-10
1.46454e-10
1.46518e-10
1.4659e-10
1.4667e-10
1.46761e-10
1.4686e-10
1.46968e-10
1.47084e-10
1.47206e-10
1.47334e-10
1.47466e-10
1.476e-10
1.47737e-10
1.47875e-10
1.48013e-10
1.48151e-10
1.48286e-10
1.48416e-10
1.48537e-10
1.48646e-10
1.48739e-10
1.48811e-10
1.48861e-10
1.48885e-10
1.48882e-10
1.48852e-10
1.48793e-10
1.48708e-10
1.48599e-10
1.48468e-10
1.4832e-10
1.48158e-10
1.47985e-10
1.47807e-10
1.47626e-10
1.47447e-10
1.47274e-10
1.4711e-10
1.46958e-10
1.46821e-10
1.467e-10
1.46592e-10
1.46498e-10
1.46414e-10
1.46341e-10
1.46278e-10
1.46225e-10
1.46181e-10
1.46145e-10
1.46118e-10
1.46097e-10
1.46081e-10
1.46069e-10
1.4606e-10
1.46054e-10
1.46049e-10
1.46045e-10
1.46043e-10
1.46041e-10
1.4604e-10
1.46039e-10
1.46039e-10
1.46038e-10
1.46038e-10
1.46038e-10
1.46038e-10
1.46038e-10
1.46038e-10
1.46038e-10
1.46038e-10
1.46038e-10
1.46038e-10
1.46038e-10
1.46038e-10
1.46038e-10
1.46038e-10
1.46038e-10
1.46038e-10
1.46038e-10
1.46038e-10
1.46038e-10
1.46038e-10
1.46038e-10
1.46038e-10
1.46038e-10
1.46038e-10
1.46038e-10
1.46038e-10
1.46038e-10
1.46091e-10
1.46102e-10
1.46115e-10
1.46132e-10
1.46151e-10
1.46174e-10
1.46202e-10
1.46235e-10
1.46275e-10
1.46321e-10
1.46377e-10
1.46442e-10
1.4652e-10
1.46612e-10
1.4672e-10
1.46849e-10
1.47001e-10
1.47179e-10
1.47388e-10
1.4763e-10
1.47909e-10
1.48229e-10
1.48594e-10
1.49011e-10
1.49487e-10
1.50033e-10
1.50657e-10
1.51368e-10
1.52173e-10
1.53078e-10
1.54083e-10
1.55186e-10
1.5638e-10
1.57654e-10
1.58997e-10
1.60391e-10
1.61825e-10
1.63288e-10
1.64777e-10
1.66291e-10
1.67823e-10
1.69358e-10
1.7087e-10
1.72325e-10
1.7368e-10
1.74891e-10
1.75912e-10
1.76704e-10
1.77233e-10
1.77478e-10
1.77428e-10
1.77062e-10
1.76386e-10
1.75421e-10
1.74194e-10
1.72739e-10
1.71093e-10
1.69296e-10
1.67391e-10
1.65421e-10
1.63426e-10
1.6145e-10
1.59533e-10
1.57717e-10
1.56037e-10
1.54523e-10
1.53183e-10
1.52009e-10
1.50979e-10
1.50074e-10
1.49284e-10
1.48603e-10
1.48029e-10
1.47556e-10
1.47176e-10
1.46879e-10
1.46653e-10
1.46485e-10
1.46361e-10
1.46269e-10
1.46201e-10
1.4615e-10
1.46114e-10
1.46089e-10
1.46072e-10
1.4606e-10
1.46052e-10
1.46047e-10
1.46044e-10
1.46042e-10
1.4604e-10
1.46039e-10
1.46039e-10
1.46038e-10
1.46038e-10
1.46038e-10
1.46038e-10
1.46038e-10
1.46038e-10
1.46038e-10
1.46038e-10
1.46038e-10
1.46038e-10
1.46038e-10
1.46038e-10
1.46038e-10
1.46038e-10
1.46038e-10
1.46038e-10
1.46038e-10
1.46038e-10
1.46038e-10
1.46038e-10
1.46038e-10
1.46038e-10
1.46038e-10
1.46185e-10
1.46217e-10
1.46257e-10
1.46304e-10
1.46362e-10
1.46432e-10
1.46516e-10
1.46616e-10
1.46737e-10
1.46883e-10
1.47058e-10
1.47269e-10
1.47522e-10
1.47826e-10
1.48189e-10
1.48621e-10
1.49132e-10
1.49737e-10
1.50451e-10
1.51297e-10
1.523e-10
1.5349e-10
1.549e-10
1.56564e-10
1.58518e-10
1.60797e-10
1.63435e-10
1.66463e-10
1.69919e-10
1.73858e-10
1.7836e-10
1.83519e-10
1.89437e-10
1.96212e-10
2.03925e-10
2.12636e-10
2.22374e-10
2.3313e-10
2.44852e-10
2.57448e-10
2.70796e-10
2.8475e-10
2.99159e-10
3.13909e-10
3.28982e-10
3.44415e-10
3.60215e-10
3.76304e-10
3.92481e-10
4.08431e-10
4.23743e-10
4.37949e-10
4.50554e-10
4.61091e-10
4.69166e-10
4.74448e-10
4.76751e-10
4.76053e-10
4.72003e-10
4.64757e-10
4.54561e-10
4.41729e-10
4.26587e-10
4.09491e-10
3.90844e-10
3.71066e-10
3.50568e-10
3.29764e-10
3.09084e-10
2.88957e-10
2.69794e-10
2.51991e-10
2.35891e-10
2.21671e-10
2.09238e-10
1.98349e-10
1.88785e-10
1.80423e-10
1.73212e-10
1.67115e-10
1.62081e-10
1.58034e-10
1.54874e-10
1.52481e-10
1.50706e-10
1.49399e-10
1.48432e-10
1.47716e-10
1.47191e-10
1.46815e-10
1.46554e-10
1.46378e-10
1.46261e-10
1.46182e-10
1.4613e-10
1.46096e-10
1.46074e-10
1.4606e-10
1.46051e-10
1.46046e-10
1.46043e-10
1.46041e-10
1.46039e-10
1.46039e-10
1.46038e-10
1.46038e-10
1.46038e-10
1.46038e-10
1.46038e-10
1.46038e-10
1.46038e-10
1.46038e-10
1.46038e-10
1.46038e-10
1.46038e-10
1.46038e-10
1.46038e-10
1.46038e-10
1.46038e-10
1.46038e-10
1.46038e-10
1.46038e-10
1.46038e-10
1.47616e-10
1.47964e-10
1.48387e-10
1.489e-10
1.4952e-10
1.50267e-10
1.51165e-10
1.52243e-10
1.53539e-10
1.55099e-10
1.56978e-10
1.59241e-10
1.61959e-10
1.65213e-10
1.6909e-10
1.73687e-10
1.79112e-10
1.85508e-10
1.93058e-10
2.01996e-10
2.12592e-10
2.25147e-10
2.39977e-10
2.57406e-10
2.77754e-10
3.01323e-10
3.28387e-10
3.5921e-10
3.94159e-10
4.3387e-10
4.79236e-10
5.31273e-10
5.90963e-10
6.59155e-10
7.36512e-10
8.23459e-10
9.20117e-10
1.02621e-09
1.14107e-09
1.26365e-09
1.39271e-09
1.52686e-09
1.66481e-09
1.80595e-09
1.95131e-09
2.10194e-09
2.25778e-09
2.41743e-09
2.5783e-09
2.7367e-09
2.88816e-09
3.02778e-09
3.15052e-09
3.25183e-09
3.32831e-09
3.37707e-09
3.39641e-09
3.38766e-09
3.3448e-09
3.27179e-09
3.17108e-09
3.04585e-09
2.89896e-09
2.73353e-09
2.55332e-09
2.36219e-09
2.16383e-09
1.96204e-09
1.7609e-09
1.56456e-09
1.37693e-09
1.20176e-09
1.04278e-09
9.02479e-10
7.80113e-10
6.72908e-10
5.78407e-10
4.95345e-10
4.23272e-10
3.61932e-10
3.10918e-10
2.69606e-10
2.37168e-10
2.12518e-10
1.94232e-10
1.80752e-10
1.70761e-10
1.63333e-10
1.57875e-10
1.53974e-10
1.51283e-10
1.49476e-10
1.48275e-10
1.47477e-10
1.46949e-10
1.46605e-10
1.46387e-10
1.4625e-10
1.46166e-10
1.46115e-10
1.46083e-10
1.46064e-10
1.46053e-10
1.46047e-10
1.46043e-10
1.46041e-10
1.46039e-10
1.46039e-10
1.46038e-10
1.46038e-10
1.46038e-10
1.46038e-10
1.46038e-10
1.46038e-10
1.46038e-10
1.46038e-10
1.46038e-10
1.46038e-10
1.46038e-10
1.46038e-10
1.46038e-10
1.46038e-10
1.46038e-10
1.62674e-10
1.6633e-10
1.70767e-10
1.76133e-10
1.82597e-10
1.90353e-10
1.99636e-10
2.1075e-10
2.24079e-10
2.40087e-10
2.59315e-10
2.82369e-10
3.09918e-10
3.42682e-10
3.81435e-10
4.2701e-10
4.80407e-10
5.43023e-10
6.16766e-10
7.03956e-10
8.07184e-10
9.29204e-10
1.07286e-09
1.24102e-09
1.43645e-09
1.6617e-09
1.91897e-09
2.21052e-09
2.54015e-09
2.91571e-09
3.34709e-09
3.84381e-09
4.41369e-09
5.0624e-09
5.79317e-09
6.60656e-09
7.49983e-09
8.46625e-09
9.49543e-09
1.05748e-08
1.1691e-08
1.28309e-08
1.39842e-08
1.51508e-08
1.6355e-08
1.7603e-08
1.88818e-08
2.01691e-08
2.14372e-08
2.26549e-08
2.37874e-08
2.47993e-08
2.56551e-08
2.63271e-08
2.68004e-08
2.70506e-08
2.71195e-08
2.69624e-08
2.65593e-08
2.59468e-08
2.51422e-08
2.41691e-08
2.30421e-08
2.17776e-08
2.04e-08
1.89331e-08
1.73977e-08
1.58172e-08
1.42203e-08
1.26374e-08
1.10979e-08
9.63189e-09
8.27458e-09
7.06088e-09
5.99264e-09
5.04549e-09
4.19915e-09
3.44559e-09
2.78406e-09
2.21484e-09
1.73642e-09
1.3451e-09
1.03514e-09
7.98353e-10
6.22115e-10
4.91419e-10
3.93565e-10
3.19982e-10
2.65363e-10
2.26078e-10
1.98924e-10
1.80697e-10
1.68573e-10
1.60491e-10
1.55134e-10
1.51658e-10
1.49466e-10
1.4811e-10
1.47278e-10
1.46771e-10
1.46466e-10
1.46285e-10
1.46179e-10
1.46118e-10
1.46083e-10
1.46063e-10
1.46052e-10
1.46046e-10
1.46042e-10
1.4604e-10
1.46039e-10
1.46038e-10
1.46038e-10
1.46038e-10
1.46038e-10
1.46038e-10
1.46038e-10
1.46038e-10
1.46038e-10
1.46038e-10
1.46038e-10
1.46038e-10
1.46038e-10
3.1387e-10
3.49878e-10
3.93292e-10
4.45405e-10
5.07675e-10
5.81802e-10
6.69957e-10
7.75066e-10
9.00846e-10
1.0517e-09
1.23257e-09
1.44894e-09
1.70672e-09
2.01228e-09
2.3723e-09
2.79399e-09
3.28636e-09
3.86361e-09
4.5448e-09
5.35079e-09
6.30233e-09
7.41928e-09
8.72002e-09
1.02206e-08
1.19334e-08
1.38661e-08
1.60211e-08
1.84012e-08
2.10277e-08
2.39698e-08
2.72832e-08
3.09939e-08
3.51057e-08
3.96054e-08
4.44657e-08
4.96458e-08
5.50897e-08
6.07252e-08
6.64713e-08
7.22511e-08
7.79986e-08
8.366e-08
8.92005e-08
9.46433e-08
1.00312e-07
1.06107e-07
1.11843e-07
1.1737e-07
1.22569e-07
1.27332e-07
1.31545e-07
1.35095e-07
1.37853e-07
1.39769e-07
1.4075e-07
1.41043e-07
1.40551e-07
1.39163e-07
1.36908e-07
1.33842e-07
1.30043e-07
1.25644e-07
1.20657e-07
1.15103e-07
1.0908e-07
1.02656e-07
9.58705e-08
8.87854e-08
8.14963e-08
7.41061e-08
6.67218e-08
5.9447e-08
5.24148e-08
4.5892e-08
3.99896e-08
3.45472e-08
2.9474e-08
2.47655e-08
2.04556e-08
1.65825e-08
1.3175e-08
1.02553e-08
7.83615e-09
5.91567e-09
4.44348e-09
3.31963e-09
2.4539e-09
1.78665e-09
1.28177e-09
9.13681e-10
6.57269e-10
4.84012e-10
3.67522e-10
2.88796e-10
2.35984e-10
2.01532e-10
1.79814e-10
1.66406e-10
1.58179e-10
1.53161e-10
1.50152e-10
1.48387e-10
1.47367e-10
1.46783e-10
1.46452e-10
1.46266e-10
1.46163e-10
1.46106e-10
1.46075e-10
1.46058e-10
1.46048e-10
1.46043e-10
1.46041e-10
1.46039e-10
1.46039e-10
1.46038e-10
1.46038e-10
1.46038e-10
1.46038e-10
1.46038e-10
1.46038e-10
1.46038e-10
1.46038e-10
1.46038e-10
1.46038e-10
1.70681e-09
2.03478e-09
2.42931e-09
2.90148e-09
3.46366e-09
4.13032e-09
4.9209e-09
5.86241e-09
6.98687e-09
8.32834e-09
9.92121e-09
1.17993e-08
1.39951e-08
1.65385e-08
1.94558e-08
2.2771e-08
2.65224e-08
3.07975e-08
3.56961e-08
4.12863e-08
4.76079e-08
5.46819e-08
6.25145e-08
7.10939e-08
8.03896e-08
9.03491e-08
1.00899e-07
1.11987e-07
1.2366e-07
1.36463e-07
1.50421e-07
1.65356e-07
1.81084e-07
1.97433e-07
2.14228e-07
2.31291e-07
2.48427e-07
2.65408e-07
2.82021e-07
2.98112e-07
3.13576e-07
3.28348e-07
3.42369e-07
3.55605e-07
3.68139e-07
3.79858e-07
3.9059e-07
4.00213e-07
4.08643e-07
4.15803e-07
4.21568e-07
4.25783e-07
4.28047e-07
4.28223e-07
4.27175e-07
4.24556e-07
4.20399e-07
4.14605e-07
4.07205e-07
3.98305e-07
3.88074e-07
3.7656e-07
3.63917e-07
3.5017e-07
3.35562e-07
3.20101e-07
3.03885e-07
2.87021e-07
2.69643e-07
2.51897e-07
2.33988e-07
2.16028e-07
1.98107e-07
1.8038e-07
1.62974e-07
1.4588e-07
1.2914e-07
1.12927e-07
9.74345e-08
8.28327e-08
6.92562e-08
5.68707e-08
4.5877e-08
3.6482e-08
2.88283e-08
2.25271e-08
1.72699e-08
1.28988e-08
9.35237e-09
6.60041e-09
4.58452e-09
3.16434e-09
2.17004e-09
1.47282e-09
9.91719e-10
6.725e-10
4.69334e-10
3.42616e-10
2.63792e-10
2.15138e-10
1.85819e-10
1.68637e-10
1.58743e-10
1.53098e-10
1.49914e-10
1.48144e-10
1.47172e-10
1.46645e-10
1.4636e-10
1.46208e-10
1.46128e-10
1.46085e-10
1.46063e-10
1.46051e-10
1.46045e-10
1.46041e-10
1.4604e-10
1.46039e-10
1.46038e-10
1.46038e-10
1.46038e-10
1.46038e-10
1.46038e-10
1.46038e-10
1.46038e-10
1.37376e-08
1.64521e-08
1.96363e-08
2.3336e-08
2.7595e-08
3.24646e-08
3.80301e-08
4.44232e-08
5.1751e-08
6.00859e-08
6.94745e-08
7.99444e-08
9.15066e-08
1.04156e-07
1.17866e-07
1.32602e-07
1.48398e-07
1.65717e-07
1.84845e-07
2.05662e-07
2.27991e-07
2.51676e-07
2.76569e-07
3.02517e-07
3.2935e-07
3.56856e-07
3.84783e-07
4.12949e-07
4.41261e-07
4.69877e-07
4.98863e-07
5.28163e-07
5.57673e-07
5.87258e-07
6.16751e-07
6.4593e-07
6.74555e-07
7.02284e-07
7.28868e-07
7.5427e-07
7.78456e-07
8.01529e-07
8.23352e-07
8.43678e-07
8.62624e-07
8.79929e-07
8.95432e-07
9.0898e-07
9.20424e-07
9.29618e-07
9.36479e-07
9.40431e-07
9.40243e-07
9.37836e-07
9.32737e-07
9.24608e-07
9.13754e-07
9.00304e-07
8.83913e-07
8.64851e-07
8.43558e-07
8.20269e-07
7.95034e-07
7.67857e-07
7.38849e-07