/*--------------------------------*- C++ -*----------------------------------*\
| =========                 |                                                 |
| \\      /  F ield         | OpenFOAM: The Open Source CFD Toolbox           |
|  \\    /   O peration     | Version:  v1706                                 |
|   \\  /    A nd           | Web:      www.OpenFOAM.com                      |
|    \\/     M anipulation  |                                                 |
\*---------------------------------------------------------------------------*/
FoamFile
{
    version     2.0;
    format      ascii;
    class       volScalarField;
    location    "1.1e-05";
    object      kappatr;
}
// * * * * * * * * * * * * * * * * * * * * * * * * * * * * * * * * * * * * * //

dimensions      [1 1 -3 -1 0 0 0];


internalField   nonuniform List<scalar> 
29871
(
0.014593
0.014593
0.014593
0.014593
0.014593
0.014593
0.014593
0.014593
0.014593
0.014593
0.014593
0.014593
0.014593
0.014593
0.014593
0.014593
0.014593
0.014593
0.014593
0.014593
0.014593
0.014593
0.014593
0.014593
0.014593
0.014593
0.014593
0.014593
0.014593
0.014593
0.014593
0.014593
0.014593
0.014593
0.014593
0.014593
0.014593
0.014593
0.014593
0.014593
0.014593
0.014593
0.014593
0.014593
0.014593
0.014593
0.014593
0.014593
0.014593
0.014593
0.014593
0.014593
0.014593
0.014593
0.014593
0.014593
0.014593
0.014593
0.014593
0.014593
0.014593
0.014593
0.014593
0.014593
0.014593
0.014593
0.014593
0.014593
0.014593
0.014593
0.014593
0.014593
0.014593
0.014593
0.014593
0.014593
0.014593
0.014593
0.014593
0.014593
0.014593
0.014593
0.014593
0.014593
0.014593
0.014593
0.014593
0.014593
0.014593
0.014593
0.014593
0.014593
0.014593
0.014593
0.014593
0.014593
0.014593
0.014593
0.014593
0.014593
0.014593
0.014593
0.014593
0.014593
0.014593
0.014593
0.014593
0.014593
0.014593
0.014593
0.014593
0.014593
0.014593
0.014593
0.014593
0.014593
0.014593
0.014593
0.014593
0.014593
0.014593
0.014593
0.014593
0.014593
0.014593
0.014593
0.014593
0.014593
0.014593
0.014593
0.014593
0.014593
0.014593
0.014593
0.014593
0.014593
0.014593
0.014593
0.014593
0.014593
0.014593
0.014593
0.014593
0.014593
0.014593
0.014593
0.014593
0.014593
0.014593
0.014593
0.014593
0.014593
0.014593
0.014593
0.014593
0.014593
0.014593
0.014593
0.014593
0.014593
0.014593
0.014593
0.014593
0.014593
0.014593
0.014593
0.014593
0.014593
0.014593
0.014593
0.014593
0.014593
0.014593
0.014593
0.014593
0.014593
0.014593
0.014593
0.014593
0.014593
0.014593
0.014593
0.014593
0.014593
0.014593
0.014593
0.014593
0.014593
0.014593
0.014593
0.014593
0.014593
0.014593
0.014593
0.014593
0.014593
0.014593
0.014593
0.014593
0.014593
0.014593
0.014593
0.014593
0.014593
0.014593
0.014593
0.014593
0.014593
0.014593
0.014593
0.014593
0.014593
0.014593
0.014593
0.014593
0.014593
0.014593
0.014593
0.014593
0.014593
0.014593
0.014593
0.014593
0.014593
0.014593
0.014593
0.014593
0.014593
0.014593
0.014593
0.014593
0.014593
0.014593
0.014593
0.014593
0.014593
0.014593
0.014593
0.014593
0.014593
0.014593
0.014593
0.014593
0.014593
0.014593
0.014593
0.014593
0.014593
0.014593
0.014593
0.014593
0.014593
0.014593
0.014593
0.014593
0.014593
0.014593
0.014593
0.014593
0.014593
0.014593
0.014593
0.014593
0.014593
0.014593
0.014593
0.014593
0.014593
0.014593
0.014593
0.014593
0.014593
0.014593
0.014593
0.014593
0.014593
0.014593
0.014593
0.014593
0.014593
0.014593
0.014593
0.014593
0.014593
0.014593
0.014593
0.014593
0.014593
0.014593
0.014593
0.014593
0.014593
0.014593
0.014593
0.014593
0.014593
0.014593
0.014593
0.014593
0.014593
0.014593
0.014593
0.014593
0.014593
0.014593
0.014593
0.014593
0.014593
0.014593
0.014593
0.014593
0.014593
0.014593
0.014593
0.014593
0.014593
0.014593
0.014593
0.014593
0.014593
0.014593
0.014593
0.014593
0.014593
0.014593
0.014593
0.014593
0.014593
0.014593
0.014593
0.014593
0.014593
0.014593
0.014593
0.014593
0.014593
0.014593
0.014593
0.014593
0.014593
0.014593
0.014593
0.014593
0.014593
0.014593
0.014593
0.014593
0.014593
0.014593
0.014593
0.014593
0.014593
0.014593
0.014593
0.014593
0.014593
0.014593
0.014593
0.014593
0.014593
0.014593
0.014593
0.014593
0.014593
0.014593
0.014593
0.014593
0.014593
0.014593
0.014593
0.014593
0.014593
0.014593
0.014593
0.014593
0.014593
0.014593
0.014593
0.014593
0.014593
0.014593
0.014593
0.014593
0.014593
0.014593
0.014593
0.014593
0.014593
0.014593
0.014593
0.014593
0.014593
0.014593
0.014593
0.014593
0.014593
0.014593
0.014593
0.014593
0.014593
0.014593
0.014593
0.014593
0.014593
0.014593
0.014593
0.014593
0.014593
0.014593
0.014593
0.014593
0.014593
0.014593
0.014593
0.014593
0.014593
0.014593
0.014593
0.014593
0.014593
0.014593
0.014593
0.014593
0.014593
0.014593
0.014593
0.014593
0.014593
0.014593
0.014593
0.014593
0.014593
0.014593
0.014593
0.014593
0.014593
0.014593
0.014593
0.014593
0.014593
0.014593
0.014593
0.014593
0.014593
0.014593
0.014593
0.014593
0.014593
0.014593
0.014593
0.014593
0.014593
0.014593
0.014593
0.014593
0.014593
0.014593
0.014593
0.014593
0.014593
0.014593
0.014593
0.014593
0.014593
0.014593
0.014593
0.014593
0.014593
0.014593
0.014593
0.014593
0.014593
0.014593
0.014593
0.014593
0.014593
0.014593
0.014593
0.014593
0.014593
0.014593
0.014593
0.014593
0.014593
0.014593
0.014593
0.014593
0.014593
0.014593
0.014593
0.014593
0.014593
0.014593
0.014593
0.014593
0.014593
0.014593
0.014593
0.014593
0.014593
0.014593
0.014593
0.014593
0.014593
0.014593
0.014593
0.014593
0.014593
0.014593
0.014593
0.014593
0.014593
0.014593
0.014593
0.014593
0.014593
0.014593
0.014593
0.014593
0.014593
0.014593
0.014593
0.014593
0.014593
0.014593
0.014593
0.014593
0.014593
0.014593
0.014593
0.014593
0.014593
0.014593
0.014593
0.014593
0.014593
0.014593
0.014593
0.014593
0.014593
0.014593
0.014593
0.014593
0.014593
0.014593
0.014593
0.014593
0.014593
0.014593
0.014593
0.014593
0.014593
0.014593
0.014593
0.014593
0.014593
0.014593
0.014593
0.014593
0.014593
0.014593
0.014593
0.014593
0.014593
0.014593
0.014593
0.014593
0.014593
0.014593
0.014593
0.014593
0.014593
0.014593
0.014593
0.014593
0.014593
0.014593
0.014593
0.014593
0.014593
0.014593
0.014593
0.014593
0.014593
0.014593
0.014593
0.014593
0.014593
0.014593
0.014593
0.014593
0.014593
0.014593
0.014593
0.014593
0.014593
0.014593
0.014593
0.014593
0.014593
0.014593
0.014593
0.014593
0.014593
0.014593
0.014593
0.014593
0.014593
0.014593
0.014593
0.014593
0.014593
0.014593
0.014593
0.014593
0.014593
0.014593
0.014593
0.014593
0.014593
0.014593
0.014593
0.014593
0.014593
0.014593
0.014593
0.014593
0.014593
0.014593
0.014593
0.014593
0.014593
0.014593
0.014593
0.014593
0.014593
0.014593
0.014593
0.014593
0.014593
0.014593
0.014593
0.014593
0.014593
0.014593
0.014593
0.014593
0.014593
0.014593
0.014593
0.014593
0.014593
0.014593
0.014593
0.014593
0.014593
0.014593
0.014593
0.014593
0.014593
0.014593
0.014593
0.014593
0.014593
0.014593
0.014593
0.014593
0.014593
0.014593
0.014593
0.014593
0.014593
0.014593
0.014593
0.014593
0.014593
0.014593
0.014593
0.014593
0.014593
0.014593
0.014593
0.014593
0.014593
0.014593
0.014593
0.014593
0.014593
0.014593
0.014593
0.014593
0.014593
0.014593
0.014593
0.014593
0.014593
0.014593
0.014593
0.014593
0.014593
0.014593
0.014593
0.014593
0.014593
0.014593
0.014593
0.014593
0.014593
0.014593
0.014593
0.014593
0.014593
0.014593
0.014593
0.014593
0.014593
0.014593
0.014593
0.014593
0.014593
0.014593
0.014593
0.014593
0.014593
0.014593
0.014593
0.014593
0.014593
0.014593
0.014593
0.014593
0.014593
0.014593
0.014593
0.014593
0.014593
0.014593
0.014593
0.014593
0.014593
0.014593
0.014593
0.014593
0.014593
0.014593
0.014593
0.014593
0.014593
0.014593
0.014593
0.014593
0.014593
0.014593
0.014593
0.014593
0.014593
0.014593
0.014593
0.014593
0.014593
0.014593
0.014593
0.014593
0.014593
0.014593
0.014593
0.014593
0.014593
0.014593
0.014593
0.014593
0.014593
0.014593
0.014593
0.014593
0.014593
0.014593
0.014593
0.014593
0.014593
0.014593
0.014593
0.014593
0.014593
0.014593
0.014593
0.014593
0.014593
0.014593
0.014593
0.014593
0.014593
0.014593
0.014593
0.014593
0.014593
0.014593
0.014593
0.014593
0.014593
0.014593
0.014593
0.014593
0.014593
0.014593
0.014593
0.014593
0.014593
0.014593
0.014593
0.014593
0.014593
0.014593
0.014593
0.014593
0.014593
0.014593
0.014593
0.014593
0.014593
0.014593
0.014593
0.014593
0.014593
0.014593
0.014593
0.014593
0.014593
0.014593
0.014593
0.014593
0.014593
0.014593
0.014593
0.014593
0.014593
0.014593
0.014593
0.014593
0.014593
0.014593
0.014593
0.014593
0.014593
0.014593
0.014593
0.014593
0.014593
0.014593
0.014593
0.014593
0.014593
0.014593
0.014593
0.014593
0.014593
0.014593
0.014593
0.014593
0.014593
0.014593
0.014593
0.014593
0.014593
0.014593
0.014593
0.014593
0.014593
0.014593
0.014593
0.014593
0.014593
0.014593
0.014593
0.014593
0.014593
0.014593
0.014593
0.014593
0.014593
0.014593
0.014593
0.014593
0.014593
0.014593
0.014593
0.014593
0.014593
0.014593
0.014593
0.014593
0.014593
0.014593
0.014593
0.014593
0.014593
0.014593
0.014593
0.014593
0.014593
0.014593
0.014593
0.014593
0.014593
0.014593
0.014593
0.014593
0.014593
0.014593
0.014593
0.014593
0.014593
0.014593
0.014593
0.014593
0.014593
0.014593
0.014593
0.014593
0.014593
0.014593
0.014593
0.014593
0.014593
0.014593
0.014593
0.014593
0.014593
0.014593
0.014593
0.014593
0.014593
0.014593
0.014593
0.014593
0.014593
0.014593
0.014593
0.014593
0.014593
0.014593
0.014593
0.014593
0.014593
0.014593
0.014593
0.014593
0.014593
0.014593
0.014593
0.014593
0.014593
0.014593
0.014593
0.014593
0.014593
0.014593
0.014593
0.014593
0.014593
0.014593
0.014593
0.014593
0.014593
0.014593
0.014593
0.014593
0.014593
0.014593
0.014593
0.014593
0.014593
0.014593
0.014593
0.014593
0.014593
0.014593
0.014593
0.014593
0.014593
0.014593
0.014593
0.014593
0.014593
0.014593
0.014593
0.014593
0.014593
0.014593
0.014593
0.014593
0.014593
0.014593
0.014593
0.014593
0.014593
0.014593
0.014593
0.014593
0.014593
0.014593
0.014593
0.014593
0.014593
0.014593
0.014593
0.014593
0.014593
0.014593
0.014593
0.014593
0.014593
0.014593
0.014593
0.014593
0.014593
0.014593
0.014593
0.014593
0.014593
0.014593
0.014593
0.014593
0.014593
0.014593
0.014593
0.014593
0.014593
0.014593
0.014593
0.014593
0.014593
0.014593
0.014593
0.014593
0.014593
0.014593
0.014593
0.014593
0.014593
0.014593
0.014593
0.014593
0.014593
0.014593
0.014593
0.014593
0.014593
0.014593
0.014593
0.014593
0.014593
0.014593
0.014593
0.014593
0.014593
0.014593
0.014593
0.014593
0.014593
0.014593
0.014593
0.014593
0.014593
0.014593
0.014593
0.014593
0.014593
0.014593
0.014593
0.014593
0.014593
0.014593
0.014593
0.014593
0.014593
0.014593
0.014593
0.014593
0.014593
0.014593
0.014593
0.014593
0.014593
0.014593
0.014593
0.014593
0.014593
0.014593
0.014593
0.014593
0.014593
0.014593
0.014593
0.014593
0.014593
0.014593
0.014593
0.014593
0.014593
0.014593
0.014593
0.014593
0.014593
0.014593
0.014593
0.014593
0.014593
0.014593
0.014593
0.014593
0.014593
0.014593
0.014593
0.014593
0.014593
0.014593
0.014593
0.014593
0.014593
0.014593
0.014593
0.014593
0.014593
0.014593
0.014593
0.014593
0.014593
0.014593
0.014593
0.014593
0.014593
0.014593
0.014593
0.014593
0.014593
0.014593
0.014593
0.014593
0.014593
0.014593
0.014593
0.014593
0.014593
0.014593
0.014593
0.014593
0.014593
0.014593
0.014593
0.014593
0.014593
0.014593
0.014593
0.014593
0.014593
0.014593
0.014593
0.014593
0.014593
0.014593
0.014593
0.014593
0.014593
0.014593
0.014593
0.014593
0.014593
0.014593
0.014593
0.014593
0.014593
0.014593
0.014593
0.014593
0.014593
0.014593
0.014593
0.014593
0.014593
0.014593
0.014593
0.014593
0.014593
0.014593
0.014593
0.014593
0.014593
0.014593
0.014593
0.014593
0.014593
0.014593
0.014593
0.014593
0.014593
0.014593
0.014593
0.014593
0.014593
0.014593
0.014593
0.014593
0.014593
0.014593
0.014593
0.014593
0.014593
0.014593
0.014593
0.014593
0.014593
0.014593
0.014593
0.014593
0.014593
0.014593
0.014593
0.014593
0.014593
0.014593
0.014593
0.014593
0.014593
0.014593
0.014593
0.014593
0.014593
0.014593
0.014593
0.0145931
0.0145931
0.0145931
0.0145931
0.0145931
0.0145931
0.0145931
0.0145931
0.0145931
0.0145931
0.0145931
0.014593
0.014593
0.014593
0.014593
0.014593
0.014593
0.014593
0.014593
0.014593
0.014593
0.014593
0.014593
0.014593
0.014593
0.014593
0.014593
0.014593
0.014593
0.014593
0.014593
0.014593
0.014593
0.014593
0.014593
0.014593
0.014593
0.014593
0.014593
0.014593
0.014593
0.014593
0.014593
0.014593
0.014593
0.014593
0.014593
0.014593
0.014593
0.014593
0.014593
0.014593
0.014593
0.014593
0.014593
0.014593
0.014593
0.014593
0.014593
0.014593
0.014593
0.014593
0.014593
0.014593
0.014593
0.014593
0.014593
0.014593
0.014593
0.014593
0.014593
0.014593
0.014593
0.014593
0.014593
0.014593
0.014593
0.014593
0.014593
0.014593
0.014593
0.014593
0.014593
0.014593
0.014593
0.014593
0.014593
0.014593
0.014593
0.0145931
0.0145931
0.0145931
0.0145931
0.0145931
0.0145931
0.0145931
0.0145931
0.0145931
0.0145931
0.0145932
0.0145932
0.0145932
0.0145932
0.0145932
0.0145932
0.0145933
0.0145933
0.0145933
0.0145933
0.0145933
0.0145933
0.0145934
0.0145934
0.0145934
0.0145934
0.0145934
0.0145934
0.0145934
0.0145934
0.0145934
0.0145934
0.0145934
0.0145933
0.0145933
0.0145933
0.0145933
0.0145933
0.0145932
0.0145932
0.0145932
0.0145932
0.0145932
0.0145931
0.0145931
0.0145931
0.0145931
0.0145931
0.0145931
0.0145931
0.014593
0.014593
0.014593
0.014593
0.014593
0.014593
0.014593
0.014593
0.014593
0.014593
0.014593
0.014593
0.014593
0.014593
0.014593
0.014593
0.014593
0.014593
0.014593
0.014593
0.014593
0.014593
0.014593
0.014593
0.014593
0.014593
0.014593
0.014593
0.014593
0.014593
0.014593
0.014593
0.014593
0.014593
0.014593
0.014593
0.014593
0.014593
0.014593
0.014593
0.014593
0.014593
0.014593
0.014593
0.014593
0.014593
0.014593
0.014593
0.014593
0.0145931
0.0145931
0.0145931
0.0145931
0.0145931
0.0145931
0.0145931
0.0145931
0.0145932
0.0145932
0.0145932
0.0145933
0.0145933
0.0145933
0.0145934
0.0145934
0.0145935
0.0145935
0.0145936
0.0145937
0.0145938
0.0145939
0.0145939
0.0145941
0.0145942
0.0145943
0.0145944
0.0145945
0.0145946
0.0145948
0.0145949
0.014595
0.0145951
0.0145953
0.0145954
0.0145955
0.0145956
0.0145957
0.0145958
0.0145958
0.0145959
0.0145959
0.0145959
0.0145959
0.0145958
0.0145957
0.0145956
0.0145955
0.0145954
0.0145952
0.0145951
0.0145949
0.0145948
0.0145946
0.0145944
0.0145943
0.0145941
0.014594
0.0145939
0.0145938
0.0145937
0.0145936
0.0145935
0.0145934
0.0145933
0.0145932
0.0145932
0.0145932
0.0145931
0.0145931
0.0145931
0.0145931
0.014593
0.014593
0.014593
0.014593
0.014593
0.014593
0.014593
0.014593
0.014593
0.014593
0.014593
0.014593
0.014593
0.014593
0.014593
0.014593
0.014593
0.014593
0.014593
0.014593
0.014593
0.014593
0.014593
0.014593
0.014593
0.014593
0.014593
0.014593
0.014593
0.014593
0.014593
0.014593
0.014593
0.0145931
0.0145931
0.0145931
0.0145931
0.0145931
0.0145932
0.0145932
0.0145932
0.0145933
0.0145933
0.0145934
0.0145934
0.0145935
0.0145936
0.0145937
0.0145938
0.0145939
0.014594
0.0145942
0.0145944
0.0145946
0.0145948
0.0145951
0.0145953
0.0145957
0.014596
0.0145964
0.0145969
0.0145974
0.0145979
0.0145986
0.0145992
0.0145999
0.0146007
0.0146015
0.0146023
0.0146032
0.014604
0.0146049
0.0146058
0.0146067
0.0146076
0.0146086
0.0146095
0.0146104
0.0146113
0.014612
0.0146127
0.0146133
0.0146138
0.0146141
0.0146142
0.0146141
0.0146139
0.0146135
0.0146129
0.0146123
0.0146114
0.0146105
0.0146094
0.0146083
0.0146071
0.0146059
0.0146046
0.0146035
0.0146023
0.0146013
0.0146003
0.0145994
0.0145986
0.0145978
0.0145971
0.0145964
0.0145958
0.0145952
0.0145948
0.0145944
0.0145941
0.0145939
0.0145937
0.0145935
0.0145934
0.0145933
0.0145932
0.0145932
0.0145931
0.0145931
0.0145931
0.014593
0.014593
0.014593
0.014593
0.014593
0.014593
0.014593
0.014593
0.014593
0.014593
0.014593
0.014593
0.014593
0.014593
0.014593
0.014593
0.014593
0.014593
0.014593
0.014593
0.014593
0.014593
0.014593
0.014593
0.014593
0.014593
0.014593
0.0145935
0.0145936
0.0145937
0.0145939
0.014594
0.0145942
0.0145944
0.0145946
0.0145949
0.0145952
0.0145956
0.014596
0.0145965
0.0145971
0.0145978
0.0145985
0.0145994
0.0146004
0.0146015
0.0146028
0.0146043
0.0146059
0.0146077
0.0146097
0.014612
0.0146146
0.0146175
0.0146208
0.0146244
0.0146284
0.0146328
0.0146376
0.0146426
0.014648
0.0146536
0.0146593
0.0146652
0.0146712
0.0146774
0.0146838
0.0146903
0.0146971
0.0147038
0.0147106
0.0147171
0.0147233
0.014729
0.014734
0.0147382
0.0147414
0.0147435
0.0147441
0.0147437
0.014742
0.0147393
0.0147354
0.0147304
0.0147245
0.0147178
0.0147102
0.0147021
0.0146936
0.0146848
0.014676
0.0146674
0.0146593
0.0146519
0.0146451
0.0146387
0.0146327
0.0146271
0.0146219
0.014617
0.0146127
0.0146089
0.0146057
0.014603
0.0146009
0.0145991
0.0145978
0.0145967
0.0145958
0.0145951
0.0145945
0.0145941
0.0145938
0.0145936
0.0145934
0.0145933
0.0145932
0.0145931
0.0145931
0.0145931
0.014593
0.014593
0.014593
0.014593
0.014593
0.014593
0.014593
0.014593
0.014593
0.014593
0.014593
0.014593
0.014593
0.014593
0.014593
0.014593
0.014593
0.014593
0.014593
0.014593
0.014593
0.014593
0.014593
0.0145941
0.0145944
0.0145946
0.0145949
0.0145953
0.0145957
0.0145962
0.0145967
0.0145974
0.0145982
0.0145991
0.0146001
0.0146014
0.0146028
0.0146045
0.0146065
0.0146087
0.0146113
0.0146143
0.0146177
0.0146217
0.0146263
0.0146316
0.0146378
0.0146448
0.0146528
0.0146617
0.0146718
0.014683
0.0146955
0.0147095
0.0147254
0.0147434
0.0147636
0.0147864
0.0148117
0.0148395
0.0148698
0.0149022
0.0149366
0.0149725
0.0150096
0.0150476
0.0150863
0.015126
0.015167
0.0152095
0.0152536
0.0152988
0.0153444
0.0153894
0.0154328
0.0154735
0.0155105
0.0155426
0.0155691
0.0155894
0.0156022
0.0156053
0.0156016
0.0155908
0.0155726
0.0155474
0.0155155
0.0154774
0.0154336
0.0153848
0.0153317
0.0152753
0.0152169
0.015158
0.0151002
0.0150456
0.0149952
0.0149492
0.0149065
0.0148665
0.0148285
0.0147929
0.0147599
0.01473
0.0147037
0.0146811
0.0146626
0.0146477
0.0146359
0.0146264
0.0146187
0.0146124
0.0146074
0.0146036
0.0146007
0.0145985
0.0145969
0.0145958
0.0145949
0.0145943
0.0145939
0.0145936
0.0145934
0.0145933
0.0145932
0.0145931
0.0145931
0.014593
0.014593
0.014593
0.014593
0.014593
0.014593
0.014593
0.014593
0.014593
0.014593
0.014593
0.014593
0.014593
0.014593
0.014593
0.014593
0.014593
0.014593
0.014593
0.0146008
0.0146023
0.014604
0.0146061
0.0146085
0.0146113
0.0146146
0.0146185
0.014623
0.0146283
0.0146345
0.0146418
0.0146503
0.0146603
0.0146717
0.014685
0.0147002
0.0147176
0.0147377
0.014761
0.0147879
0.0148192
0.0148553
0.0148966
0.0149437
0.0149967
0.0150558
0.0151214
0.0151938
0.0152744
0.0153646
0.0154664
0.0155808
0.0157088
0.0158506
0.016006
0.0161738
0.0163527
0.0165406
0.0167353
0.0169344
0.0171357
0.0173378
0.0175409
0.0177483
0.0179627
0.0181847
0.0184127
0.0186432
0.0188717
0.019093
0.0193019
0.0194935
0.0196636
0.0198085
0.0199255
0.020013
0.0200663
0.020074
0.0200541
0.0200023
0.0199186
0.0198033
0.0196572
0.0194816
0.0192779
0.0190473
0.0187918
0.0185149
0.0182214
0.0179172
0.0176106
0.017313
0.0170349
0.0167786
0.0165386
0.0163093
0.016088
0.0158757
0.015675
0.0154894
0.0153224
0.0151775
0.0150569
0.0149597
0.0148821
0.0148192
0.0147677
0.0147254
0.0146915
0.0146652
0.0146455
0.0146309
0.0146201
0.0146122
0.0146063
0.0146022
0.0145992
0.0145972
0.0145958
0.0145948
0.0145942
0.0145938
0.0145935
0.0145933
0.0145932
0.0145931
0.0145931
0.014593
0.014593
0.014593
0.014593
0.014593
0.014593
0.014593
0.014593
0.014593
0.014593
0.014593
0.014593
0.014593
0.014593
0.014593
0.0146455
0.0146554
0.014667
0.0146807
0.0146967
0.0147154
0.0147372
0.0147627
0.0147924
0.0148273
0.0148682
0.014916
0.0149716
0.015036
0.0151099
0.0151942
0.01529
0.015399
0.0155238
0.0156672
0.0158317
0.0160197
0.0162327
0.0164718
0.0167372
0.0170283
0.0173439
0.0176833
0.018048
0.0184447
0.0188803
0.0193591
0.0198815
0.020445
0.0210443
0.0216725
0.0223213
0.0229815
0.0236436
0.024299
0.0249411
0.0255648
0.0261688
0.0267601
0.0273597
0.0279729
0.028593
0.0292094
0.0298104
0.0303848
0.0309216
0.0314111
0.0318452
0.0322184
0.0325266
0.0327674
0.0329414
0.0330361
0.0330361
0.0329773
0.0328501
0.0326566
0.0323946
0.0320622
0.0316599
0.0311869
0.0306398
0.0300171
0.0293212
0.0285569
0.0277317
0.026861
0.0259742
0.0251129
0.0242917
0.0234908
0.0226879
0.0218728
0.0210479
0.0202235
0.0194151
0.0186428
0.0179326
0.0173122
0.0167935
0.0163651
0.0160066
0.0157021
0.0154445
0.0152325
0.0150657
0.0149392
0.0148449
0.0147743
0.0147216
0.0146828
0.0146549
0.0146352
0.0146215
0.014612
0.0146055
0.0146011
0.0145982
0.0145963
0.0145951
0.0145943
0.0145938
0.0145935
0.0145933
0.0145932
0.0145931
0.0145931
0.014593
0.014593
0.014593
0.014593
0.014593
0.014593
0.014593
0.014593
0.014593
0.014593
0.014593
0.014933
0.0149957
0.0150693
0.015155
0.0152545
0.0153692
0.0155014
0.015654
0.0158305
0.0160347
0.0162701
0.0165394
0.016845
0.0171882
0.0175698
0.0179901
0.0184512
0.0189593
0.0195229
0.0201482
0.0208376
0.0215898
0.0224006
0.0232631
0.0241686
0.025107
0.0260679
0.027045
0.0280448
0.0290932
0.0302001
0.0313586
0.0325539
0.0337692
0.0349878
0.036194
0.0373729
0.0385104
0.0395949
0.0406194
0.0415814
0.042481
0.0433236
0.0441287
0.0449899
0.0458846
0.0467724
0.0476255
0.0484258
0.0491603
0.0498183
0.0503926
0.0508771
0.0512755
0.0515881
0.051817
0.0519732
0.0520284
0.0519997
0.0519039
0.0517292
0.0514911
0.051182
0.0507922
0.050323
0.049769
0.0491155
0.0483513
0.0474719
0.0464728
0.0453521
0.0441096
0.0427639
0.0414198
0.0401464
0.03887
0.0375262
0.0360825
0.0345292
0.0328692
0.0311137
0.0292908
0.0274594
0.0257163
0.0241418
0.02273
0.021439
0.0202388
0.0191296
0.0181408
0.01731
0.0166466
0.0161277
0.0157221
0.0154068
0.015168
0.0149933
0.0148685
0.0147804
0.0147186
0.0146759
0.0146471
0.0146279
0.0146153
0.014607
0.0146018
0.0145984
0.0145963
0.014595
0.0145942
0.0145937
0.0145934
0.0145932
0.0145931
0.0145931
0.014593
0.014593
0.014593
0.014593
0.014593
0.014593
0.014593
0.014593
0.014593
0.014593
0.0165927
0.0169276
0.0173087
0.0177382
0.0182174
0.0187485
0.019336
0.0199879
0.0207116
0.0215114
0.0223871
0.0233355
0.0243501
0.0254226
0.0265431
0.0277027
0.0289023
0.0301593
0.0314866
0.0328789
0.0343209
0.0357946
0.0372823
0.038767
0.0402328
0.0416651
0.0430509
0.0443871
0.0456922
0.0470774
0.0485293
0.0499991
0.0514456
0.0528379
0.0541544
0.05538
0.0565051
0.0575225
0.0584312
0.0592373
0.0599493
0.0605775
0.0611303
0.0616156
0.0620308
0.0623803
0.0626701
0.0629064
0.0630948
0.0632402
0.0633433
0.0634087
0.0634194
0.0634025
0.0633582
0.0632849
0.0631905
0.0630649
0.0629166
0.0627634
0.0626036
0.0624064
0.0621876
0.0619512
0.061702
0.0614224
0.0611107
0.0607655
0.0603838
0.059962
0.0595009
0.058991
0.0584174
0.0577552
0.0569841
0.0560861
0.0550346
0.0538106
0.0523928
0.0507565
0.0488683
0.0467086
0.0443071
0.0418006
0.0394472
0.0371956
0.0349404
0.0326102
0.0301992
0.0277869
0.0255269
0.0235229
0.0217695
0.0202288
0.01889
0.0177759
0.0168996
0.0162358
0.015741
0.0153777
0.0151187
0.0149399
0.0148191
0.0147384
0.0146852
0.0146507
0.0146286
0.0146148
0.0146062
0.0146009
0.0145977
0.0145957
0.0145946
0.0145939
0.0145935
0.0145933
0.0145932
0.0145931
0.0145931
0.014593
0.014593
0.014593
0.014593
0.014593
0.014593
0.0233655
0.0244484
0.025605
0.0268264
0.0281028
0.0294291
0.0308116
0.0322646
0.0337868
0.0353648
0.0369804
0.038615
0.0402513
0.0418733
0.0434671
0.0450229
0.0465462
0.0481129
0.0497499
0.0514144
0.0530617
0.0546571
0.0561751
0.0575976
0.0589126
0.0601114
0.06119
0.062152
0.0630043
0.0637453
0.0643895
0.0649508
0.0654392
0.0658616
0.066222
0.066522
0.0667626
0.0669445
0.0670764
0.0671741
0.0672469
0.0673064
0.0673532
0.0673822
0.0674027
0.0674055
0.0673972
0.0673771
0.0673441
0.0672974
0.0672387
0.0671659
0.0670754
0.0669702
0.0668479
0.0667071
0.0665553
0.0664064
0.0662299
0.0660472
0.0658741
0.0656974
0.0655168
0.0653402
0.0651316
0.0648976
0.0646772
0.0644637
0.0642216
0.0639687
0.0637102
0.0634333
0.0631311
0.062799
0.0624445
0.0620556
0.0616179
0.0611286
0.0605795
0.0599709
0.059286
0.058502
0.0576271
0.0566102
0.0553807
0.0538901
0.0520843
0.0498971
0.0472738
0.044256
0.0411163
0.038125
0.0352256
0.0323253
0.0294233
0.0266521
0.0241786
0.0220458
0.0202253
0.0187052
0.0174997
0.0165965
0.0159443
0.0154843
0.0151686
0.0149584
0.0148215
0.0147339
0.0146787
0.0146445
0.0146236
0.014611
0.0146034
0.014599
0.0145964
0.0145949
0.0145941
0.0145936
0.0145933
0.0145932
0.0145931
0.0145931
0.014593
0.014593
0.014593
0.0366686
0.0383974
0.0401411
0.0418821
0.043605
0.0452974
0.046956
0.0486078
0.050322
0.0520703
0.0538127
0.0555131
0.057142
0.0586783
0.0601078
0.0614211
0.062613
0.06368
0.064618
0.0654344
0.0661464
0.0667682
0.067311
0.0677825
0.0681872
0.0685293
0.068809
0.0690233
0.0691894
0.0693235
0.069437
0.0695336
0.0696161
0.0696878
0.0697496
0.0697988
0.069835
0.0698494
0.0698422
0.0698137
0.0697615
0.0696923
0.0696199
0.069545
0.0694537
0.0693604
0.0692718
0.0691794
0.0690833
0.0689852
0.0688858
0.0687898
0.0686923
0.0685898
0.0684867
0.0683795
0.0682527
0.068117
0.0679834
0.0678237
0.0676513
0.067488
0.0673254
0.0671571
0.0669937
0.0667924
0.0665701
0.066366
0.0661693
0.0659471
0.0657111
0.0654731
0.0652262
0.0649444
0.0646461
0.0643503
0.0640458
0.0637521
0.0634025
0.0630306
0.0626569
0.0622895
0.0619556
0.0615687
0.0611107
0.0606112
0.0600583
0.0594264
0.0586804
0.057771
0.0567083
0.0554328
0.0538148
0.0517465
0.0491269
0.0459245
0.0423343
0.0388188
0.035431
0.032092
0.0288163
0.0257811
0.0231427
0.0209262
0.0191148
0.0177055
0.0166707
0.0159439
0.0154498
0.0151248
0.0149175
0.0147881
0.0147087
0.0146607
0.0146322
0.0146155
0.0146058
0.0146002
0.014597
0.0145952
0.0145942
0.0145937
0.0145934
0.0145932
0.0145931
0.0145931
0.0548656
0.0566186
0.0583003
0.0598884
0.0613675
0.0627293
0.0639672
0.0650744
0.0660446
0.0668917
0.0676306
0.0682753
0.0688372
0.0693257
0.0697463
0.0701037
0.0703963
0.0706266
0.0708107
0.0709656
0.0711019
0.0712217
0.0713283
0.0714223
0.0715045
0.0715721
0.0716251
0.0716409
0.0716297
0.0716054
0.0715706
0.0715273
0.0714815
0.0714313
0.0713822
0.0713355
0.0712911
0.0712537
0.0712249
0.0711991
0.0711631
0.0711073
0.0710395
0.0709581
0.0708544
0.0707475
0.0706442
0.0705369
0.0704248
0.0703091
0.0701924
0.0700795
0.0699643
0.0698443
0.0697292
0.0696139
0.0694802
0.0693427
0.0692124
0.0690621
0.0688944
0.0687404
0.0685905
0.0684315
0.0682799
0.0680791
0.0678691
0.0676751
0.0674902
0.067273
0.0670453
0.0668194
0.0665922
0.0663197
0.0660433
0.0657717
0.0654998
0.065246
0.0649354
0.0646028
0.0642693
0.063952
0.0636709
0.0633394
0.0629394
0.0625307
0.0621197
0.0616933
0.0612667
0.0608707
0.0604509
0.0599235
0.0592983
0.0585743
0.0576974
0.0566217
0.0553248
0.0536512
0.0514304
0.0485032
0.0448553
0.0408743
0.0369886
0.0332283
0.0295856
0.0262145
0.0232904
0.0208621
0.0189266
0.0174726
0.0164444
0.0157499
0.0152982
0.0150145
0.0148409
0.0147368
0.0146753
0.0146396
0.0146192
0.0146076
0.014601
0.0145974
0.0145954
0.0145943
0.0145937
0.0145934
0.0145932
0.0145931
0.0685994
0.0693127
0.0699324
0.0704699
0.0709342
0.0713325
0.0716665
0.0719349
0.0721508
0.0723316
0.0724892
0.07263
0.0727555
0.0728679
0.0729668
0.0730511
0.0731146
0.0731467
0.0731452
0.073138
0.0731249
0.073106
0.0730833
0.0730599
0.0730378
0.073018
0.0730087
0.0730126
0.0730127
0.0730002
0.0729648
0.0729132
0.0728516
0.0727793
0.0727049
0.0726306
0.0725566
0.0724888
0.0724308
0.0723797
0.0723259
0.0722654
0.0722034
0.0721241
0.0720231
0.0719164
0.0718086
0.0716948
0.0715749
0.0714511
0.0713264
0.0712003
0.0710707
0.0709405
0.070817
0.0706927
0.0705534
0.0704146
0.0702844
0.0701364
0.0699735
0.06983
0.0696874
0.0695346
0.0693805
0.069171
0.0689719
0.0687807
0.0685939
0.0683861
0.0681523
0.0679183
0.0676805
0.0674216
0.067155
0.0668834
0.0666224
0.0663805
0.0661173
0.0658325
0.0655373
0.0652534
0.0649843
0.0646937
0.0643566
0.0640039
0.0636441
0.0632634
0.062884
0.0625346
0.062175
0.0617251
0.061245
0.060751
0.06029
0.0598604
0.059342
0.0587064
0.0579313
0.05696
0.0557762
0.0542468
0.052142
0.0492467
0.045493
0.0412413
0.0370221
0.0329415
0.02904
0.0255127
0.0225185
0.0200964
0.0182455
0.0169237
0.0160322
0.0154572
0.0151005
0.0148861
0.0147598
0.0146868
0.0146452
0.0146218
0.0146088
0.0146016
0.0145977
0.0145955
0.0145943
0.0145937
0.0737708
0.0739307
0.0740731
0.0741994
0.0743117
0.0744102
0.0744904
0.0745434
0.0745643
0.0745673
0.0745671
0.0745637
0.0745572
0.074548
0.0745391
0.0745344
0.0745408
0.0745593
0.0745717
0.0745641
0.0745395
0.0745004
0.0744543
0.0744013
0.0743455
0.0742902
0.0742428
0.0742078
0.0741797
0.0741515
0.0741153
0.0740645
0.0740019
0.0739301
0.0738528
0.0737724
0.0736902
0.0736093
0.0735338
0.0734686
0.0734096
0.0733566
0.0733069
0.0732445
0.0731684
0.0730888
0.0730017
0.072904
0.0727977
0.072686
0.0725701
0.0724483
0.0723201
0.0721904
0.0720622
0.071929
0.0717842
0.071645
0.071507
0.0713548
0.0711908
0.0710475
0.0709042
0.0707583
0.0705831
0.0703751
0.0701834
0.069994
0.069795
0.0696006
0.0693678
0.0691223
0.0688762
0.0686216
0.0683573
0.0680862
0.0678237
0.0675703
0.0673086
0.0670318
0.0667442
0.0664562
0.0661676
0.0658665
0.065543
0.0652033
0.0648572
0.0645059
0.0641639
0.0638434
0.0635108
0.0631428
0.0627443
0.0623199
0.0619167
0.0615186
0.0610657
0.0605631
0.0600601
0.0595992
0.0591143
0.0585262
0.0577807
0.0568265
0.0556548
0.0540983
0.0518721
0.0487279
0.0446302
0.0401118
0.0356593
0.0313748
0.0273938
0.0239364
0.0211023
0.0189102
0.0173322
0.0162682
0.0155867
0.0151686
0.0149207
0.0147769
0.0146951
0.0146492
0.0146237
0.0146097
0.0146021
0.0145979
0.0760102
0.0760122
0.0760105
0.0760073
0.0760009
0.075997
0.0760009
0.0760173
0.0760419
0.0760434
0.0760313
0.0760042
0.075967
0.0759263
0.0758806
0.0758346
0.0757957
0.0757695
0.0757501
0.0757279
0.0756962
0.0756548
0.0756031
0.0755457
0.0754847
0.0754227
0.075363
0.0753105
0.0752703
0.0752402
0.0752149
0.0751863
0.07515
0.0751058
0.0750541
0.0749957
0.0749315
0.0748635
0.0747938
0.0747261
0.074663
0.0746085
0.0745576
0.0745011
0.0744405
0.074377
0.074304
0.0742202
0.0741275
0.0740278
0.0739208
0.0738057
0.0736832
0.0735564
0.0734252
0.0732862
0.0731396
0.072996
0.0728485
0.0726911
0.0725233
0.0723719
0.0722215
0.0720685
0.0718818
0.0716791
0.0714884
0.0712967
0.0710913
0.0708876
0.0706727