/*--------------------------------*- C++ -*----------------------------------*\
| =========                 |                                                 |
| \\      /  F ield         | OpenFOAM: The Open Source CFD Toolbox           |
|  \\    /   O peration     | Version:  v1706                                 |
|   \\  /    A nd           | Web:      www.OpenFOAM.com                      |
|    \\/     M anipulation  |                                                 |
\*---------------------------------------------------------------------------*/
FoamFile
{
    version     2.0;
    format      ascii;
    class       volScalarField;
    location    "1.1e-05";
    object      Mach;
}
// * * * * * * * * * * * * * * * * * * * * * * * * * * * * * * * * * * * * * //

dimensions      [0 0 0 0 0 0 0];


internalField   nonuniform List<scalar> 
29871
(
11.2859
11.2859
11.2859
11.2859
11.2859
11.2859
11.2859
11.2859
11.2859
11.2859
11.2859
11.2859
11.2859
11.2859
11.2859
11.2859
11.2859
11.2859
11.2859
11.2859
11.2859
11.2859
11.2859
11.2859
11.2859
11.2859
11.2859
11.2859
11.2859
11.2859
11.2859
11.2859
11.2859
11.2859
11.2859
11.2859
11.2859
11.2859
11.2859
11.2859
11.2859
11.2859
11.2859
11.2859
11.2859
11.2859
11.2859
11.2859
11.2859
11.2859
11.2859
11.2859
11.2859
11.2859
11.2859
11.2859
11.2859
11.2859
11.2859
11.2859
11.2859
11.2859
11.2859
11.2859
11.2859
11.2859
11.2859
11.2859
11.2859
11.2859
11.2859
11.2859
11.2859
11.2859
11.2859
11.2859
11.2859
11.2859
11.2859
11.2859
11.2859
11.2859
11.2859
11.2859
11.2859
11.2859
11.2859
11.2859
11.2859
11.2859
11.2859
11.2859
11.2859
11.2859
11.2859
11.2859
11.2859
11.2859
11.2859
11.2859
11.2859
11.2859
11.2859
11.2859
11.2859
11.2859
11.2859
11.2859
11.2859
11.2859
11.2859
11.2859
11.2859
11.2859
11.2859
11.2859
11.2859
11.2859
11.2859
11.2859
11.2859
11.2859
11.2859
11.2859
11.2859
11.2859
11.2859
11.2859
11.2859
11.2859
11.2859
11.2859
11.2859
11.2859
11.2859
11.2859
11.2859
11.2859
11.2859
11.2859
11.2859
11.2859
11.2859
11.2859
11.2859
11.2859
11.2859
11.2859
11.2859
11.2859
11.2859
11.2859
11.2859
11.2859
11.2859
11.2859
11.2859
11.2859
11.2859
11.2859
11.2859
11.2859
11.2859
11.2859
11.2859
11.2859
11.2859
11.2859
11.2859
11.2859
11.2859
11.2859
11.2859
11.2859
11.2859
11.2859
11.2859
11.2859
11.2859
11.2859
11.2859
11.2859
11.2859
11.2859
11.2859
11.2859
11.2859
11.2859
11.2859
11.2859
11.2859
11.2859
11.2859
11.2859
11.2859
11.2859
11.2859
11.2859
11.2859
11.2859
11.2859
11.2859
11.2859
11.2859
11.2859
11.2859
11.2859
11.2859
11.2859
11.2859
11.2859
11.2859
11.2859
11.2859
11.2859
11.2859
11.2859
11.2859
11.2859
11.2859
11.2859
11.2859
11.2859
11.2859
11.2859
11.2859
11.2859
11.2859
11.2859
11.2859
11.2859
11.2859
11.2859
11.2859
11.2859
11.2859
11.2859
11.2859
11.2859
11.2859
11.2859
11.2859
11.2859
11.2859
11.2859
11.2859
11.2859
11.2859
11.2859
11.2859
11.2859
11.2859
11.2859
11.2859
11.2859
11.2859
11.2859
11.2859
11.2859
11.2859
11.2859
11.2859
11.2859
11.2859
11.2859
11.2859
11.2859
11.2859
11.2859
11.2859
11.2859
11.2859
11.2859
11.2859
11.2859
11.2859
11.2859
11.2859
11.2859
11.2859
11.2859
11.2859
11.2859
11.2859
11.2859
11.2859
11.2859
11.2859
11.2859
11.2859
11.2859
11.2859
11.2859
11.2859
11.2859
11.2859
11.2859
11.2859
11.2859
11.2859
11.2859
11.2859
11.2859
11.2859
11.2859
11.2859
11.2859
11.2859
11.2859
11.2859
11.2859
11.2859
11.2859
11.2859
11.2859
11.2859
11.2859
11.2859
11.2859
11.2859
11.2859
11.2859
11.2859
11.2859
11.2859
11.2859
11.2859
11.2859
11.2859
11.2859
11.2859
11.2859
11.2859
11.2859
11.2859
11.2859
11.2859
11.2859
11.2859
11.2859
11.2859
11.2859
11.2859
11.2859
11.2859
11.2859
11.2859
11.2859
11.2859
11.2859
11.2859
11.2859
11.2859
11.2859
11.2859
11.2859
11.2859
11.2859
11.2859
11.2859
11.2859
11.2859
11.2859
11.2859
11.2859
11.2859
11.2859
11.2859
11.2859
11.2859
11.2859
11.2859
11.2859
11.2859
11.2859
11.2859
11.2859
11.2859
11.2859
11.2859
11.2859
11.2859
11.2859
11.2859
11.2859
11.2859
11.2859
11.2859
11.2859
11.2859
11.2859
11.2859
11.2859
11.2859
11.2859
11.2859
11.2859
11.2859
11.2859
11.2859
11.2859
11.2859
11.2859
11.2859
11.2859
11.2859
11.2859
11.2859
11.2859
11.2859
11.2859
11.2859
11.2859
11.2859
11.2859
11.2859
11.2859
11.2859
11.2859
11.2859
11.2859
11.2859
11.2859
11.2859
11.2859
11.2859
11.2859
11.2859
11.2859
11.2859
11.2859
11.2859
11.2859
11.2859
11.2859
11.2859
11.2859
11.2859
11.2859
11.2859
11.2859
11.2859
11.2859
11.2859
11.2859
11.2859
11.2859
11.2859
11.2859
11.2859
11.2859
11.2859
11.2859
11.2859
11.2859
11.2859
11.2859
11.2859
11.2859
11.2859
11.2859
11.2859
11.2859
11.2859
11.2859
11.2859
11.2859
11.2859
11.2859
11.2859
11.2859
11.2859
11.2859
11.2859
11.2859
11.2859
11.2859
11.2859
11.2859
11.2859
11.2859
11.2859
11.2859
11.2859
11.2859
11.2859
11.2859
11.2859
11.2859
11.2859
11.2859
11.2859
11.2859
11.2859
11.2859
11.2859
11.2859
11.2859
11.2859
11.2859
11.2859
11.2859
11.2859
11.2859
11.2859
11.2859
11.2859
11.2859
11.2859
11.2859
11.2859
11.2859
11.2859
11.2859
11.2859
11.2859
11.2859
11.2859
11.2859
11.2859
11.2859
11.2859
11.2859
11.2859
11.2859
11.2859
11.2859
11.2859
11.2859
11.2859
11.2859
11.2859
11.2859
11.2859
11.2859
11.2859
11.2859
11.2859
11.2859
11.2859
11.2859
11.2859
11.2859
11.2859
11.2859
11.2859
11.2859
11.2859
11.2859
11.2859
11.2859
11.2859
11.2859
11.2859
11.2859
11.2859
11.2859
11.2859
11.2859
11.2859
11.2859
11.2859
11.2859
11.2859
11.2859
11.2859
11.2859
11.2859
11.2859
11.2859
11.2859
11.2859
11.2859
11.2859
11.2859
11.2859
11.2859
11.2859
11.2859
11.2859
11.2859
11.2859
11.2859
11.2859
11.2859
11.2859
11.2859
11.2859
11.2859
11.2859
11.2859
11.2859
11.2859
11.2859
11.2859
11.2859
11.2859
11.2859
11.2859
11.2859
11.2859
11.2859
11.2859
11.2859
11.2859
11.2859
11.2859
11.2859
11.2859
11.2859
11.2859
11.2859
11.2859
11.2859
11.2859
11.2859
11.2859
11.2859
11.2859
11.2859
11.2859
11.2859
11.2859
11.2859
11.2859
11.2859
11.2859
11.2859
11.2859
11.2859
11.2859
11.2859
11.2859
11.2859
11.2859
11.2859
11.2859
11.2859
11.2859
11.2859
11.2859
11.2859
11.2859
11.2859
11.2859
11.2859
11.2859
11.2859
11.2859
11.2859
11.2859
11.2859
11.2859
11.2859
11.2859
11.2859
11.2859
11.2859
11.2859
11.2859
11.2859
11.2859
11.2859
11.2859
11.2859
11.2859
11.2859
11.2859
11.2859
11.2859
11.2859
11.2859
11.2859
11.2859
11.2859
11.2859
11.2859
11.2859
11.2859
11.2859
11.2859
11.2859
11.2859
11.2859
11.2859
11.2859
11.2859
11.2859
11.2859
11.2859
11.2859
11.2859
11.2859
11.2859
11.2859
11.2859
11.2859
11.2859
11.2859
11.2859
11.2859
11.2859
11.2859
11.2859
11.2859
11.2859
11.2859
11.2859
11.2859
11.2859
11.2859
11.2859
11.2859
11.2859
11.2859
11.2859
11.2859
11.2859
11.2859
11.2859
11.2859
11.2859
11.2859
11.2859
11.2859
11.2859
11.2859
11.2859
11.2859
11.2859
11.2859
11.2859
11.2859
11.2859
11.2859
11.2859
11.2859
11.2859
11.2859
11.2859
11.2859
11.2859
11.2859
11.2859
11.2859
11.2859
11.2859
11.2859
11.2859
11.2859
11.2859
11.2859
11.2859
11.2859
11.2859
11.2859
11.2859
11.2859
11.2859
11.2859
11.2859
11.2859
11.2859
11.2859
11.2859
11.2859
11.2859
11.2859
11.2859
11.2859
11.2859
11.2859
11.2859
11.2859
11.2859
11.2859
11.2859
11.2859
11.2859
11.2859
11.2859
11.2859
11.2859
11.2859
11.2859
11.2859
11.2859
11.2859
11.2859
11.2859
11.2859
11.2859
11.2859
11.2859
11.2859
11.2859
11.2859
11.2859
11.2859
11.2859
11.2859
11.2859
11.2859
11.2859
11.2859
11.2859
11.2859
11.2859
11.2859
11.2859
11.2859
11.2859
11.2859
11.2859
11.2859
11.2859
11.2859
11.2859
11.2859
11.2859
11.2859
11.2859
11.2859
11.2859
11.2859
11.2859
11.2859
11.2859
11.2859
11.2859
11.2859
11.2859
11.2859
11.2859
11.2859
11.2859
11.2859
11.2859
11.2859
11.2859
11.2859
11.2859
11.2859
11.2859
11.2859
11.2859
11.2859
11.2859
11.2859
11.2859
11.2859
11.2859
11.2859
11.2859
11.2859
11.2859
11.2859
11.2859
11.2859
11.2859
11.2859
11.2859
11.2859
11.2859
11.2859
11.2859
11.2859
11.2859
11.2859
11.2859
11.2859
11.2859
11.2859
11.2859
11.2859
11.2859
11.2859
11.2859
11.2859
11.2859
11.2859
11.2859
11.2859
11.2859
11.2859
11.2859
11.2859
11.2859
11.2859
11.2859
11.2859
11.2859
11.2859
11.2859
11.2859
11.2859
11.2859
11.2859
11.2859
11.2859
11.2859
11.2859
11.2859
11.2859
11.2859
11.2859
11.2859
11.2859
11.2859
11.2859
11.2859
11.2859
11.2859
11.2859
11.2859
11.2859
11.2859
11.2859
11.2859
11.2859
11.2859
11.2859
11.2859
11.2859
11.2859
11.2859
11.2859
11.2859
11.2859
11.2859
11.2859
11.2859
11.2859
11.2859
11.2859
11.2859
11.2859
11.2859
11.2859
11.2859
11.2859
11.2859
11.2859
11.2859
11.2859
11.2859
11.2859
11.2859
11.2859
11.2859
11.2859
11.2859
11.2859
11.2859
11.2859
11.2859
11.2859
11.2859
11.2859
11.2859
11.2859
11.2859
11.2859
11.2859
11.2859
11.2859
11.2859
11.2859
11.2859
11.2859
11.2859
11.2859
11.2859
11.2859
11.2859
11.2859
11.2859
11.2859
11.2859
11.2859
11.2859
11.2859
11.2859
11.2859
11.2859
11.2859
11.2859
11.2859
11.2859
11.2859
11.2859
11.2859
11.2859
11.2859
11.2859
11.2859
11.2859
11.2859
11.2859
11.2859
11.2859
11.2859
11.2859
11.2859
11.2859
11.2859
11.2859
11.2859
11.2859
11.2859
11.2859
11.2859
11.2859
11.2859
11.2859
11.2859
11.2859
11.2859
11.2859
11.2859
11.2859
11.2859
11.2859
11.2859
11.2859
11.2859
11.2859
11.2859
11.2859
11.2859
11.2859
11.2859
11.2859
11.2859
11.2859
11.2859
11.2859
11.2859
11.2859
11.2859
11.2859
11.2859
11.2859
11.2859
11.2859
11.2859
11.2859
11.2859
11.2859
11.2859
11.2859
11.2859
11.2859
11.2859
11.2859
11.2859
11.2859
11.2859
11.2859
11.2859
11.2859
11.2859
11.2859
11.2859
11.2859
11.2859
11.2859
11.2859
11.2859
11.2859
11.2859
11.2859
11.2859
11.2859
11.2859
11.2859
11.2859
11.2859
11.2859
11.2859
11.2859
11.2859
11.2859
11.2859
11.2859
11.2859
11.2859
11.2859
11.2859
11.2859
11.2859
11.2859
11.2859
11.2859
11.2859
11.2859
11.2859
11.2859
11.2859
11.2859
11.2859
11.2859
11.2859
11.2859
11.2859
11.2859
11.2859
11.2859
11.2859
11.2859
11.2859
11.2859
11.2859
11.2859
11.2859
11.2859
11.2859
11.2859
11.2859
11.2859
11.2859
11.2859
11.2859
11.2859
11.2859
11.2859
11.2859
11.2859
11.2859
11.2859
11.2859
11.2859
11.2859
11.2859
11.2859
11.2859
11.2859
11.2859
11.2859
11.2859
11.2859
11.2859
11.2859
11.2859
11.2859
11.2859
11.2859
11.2859
11.2859
11.2859
11.2859
11.2859
11.2859
11.2859
11.2859
11.2859
11.2859
11.2859
11.2859
11.2859
11.2859
11.2859
11.2859
11.2859
11.2859
11.2859
11.2859
11.2859
11.2859
11.2859
11.2859
11.2859
11.2859
11.2859
11.2859
11.2859
11.2859
11.2859
11.2859
11.2859
11.2859
11.2859
11.2859
11.2859
11.2859
11.2859
11.2859
11.2859
11.2859
11.2859
11.2859
11.2859
11.2859
11.2859
11.2859
11.2859
11.2859
11.2859
11.2859
11.2859
11.2859
11.2859
11.2859
11.2859
11.2859
11.2859
11.2859
11.2859
11.2859
11.2859
11.2859
11.2859
11.2859
11.2859
11.2859
11.2859
11.2858
11.2858
11.2858
11.2858
11.2858
11.2858
11.2858
11.2858
11.2858
11.2858
11.2858
11.2858
11.2858
11.2858
11.2858
11.2858
11.2858
11.2858
11.2858
11.2858
11.2858
11.2858
11.2858
11.2858
11.2858
11.2858
11.2858
11.2858
11.2858
11.2858
11.2858
11.2858
11.2858
11.2858
11.2858
11.2858
11.2858
11.2859
11.2859
11.2859
11.2859
11.2859
11.2859
11.2859
11.2859
11.2859
11.2859
11.2859
11.2859
11.2859
11.2859
11.2859
11.2859
11.2859
11.2859
11.2859
11.2859
11.2859
11.2859
11.2859
11.2859
11.2859
11.2859
11.2859
11.2859
11.2859
11.2859
11.2859
11.2859
11.2859
11.2859
11.2859
11.2859
11.2859
11.2859
11.2859
11.2859
11.2859
11.2859
11.2859
11.2859
11.2859
11.2859
11.2859
11.2859
11.2859
11.2859
11.2859
11.2859
11.2859
11.2859
11.2859
11.2859
11.2859
11.2859
11.2858
11.2858
11.2858
11.2858
11.2858
11.2858
11.2858
11.2858
11.2858
11.2858
11.2858
11.2858
11.2858
11.2858
11.2858
11.2858
11.2858
11.2858
11.2858
11.2858
11.2858
11.2857
11.2857
11.2857
11.2857
11.2857
11.2857
11.2857
11.2857
11.2857
11.2857
11.2857
11.2857
11.2856
11.2856
11.2856
11.2856
11.2856
11.2857
11.2857
11.2857
11.2857
11.2857
11.2857
11.2857
11.2857
11.2857
11.2857
11.2858
11.2858
11.2858
11.2858
11.2858
11.2858
11.2858
11.2858
11.2858
11.2858
11.2858
11.2858
11.2858
11.2858
11.2858
11.2859
11.2859
11.2859
11.2859
11.2859
11.2859
11.2859
11.2859
11.2859
11.2859
11.2859
11.2859
11.2859
11.2859
11.2859
11.2859
11.2859
11.2859
11.2859
11.2859
11.2859
11.2859
11.2859
11.2859
11.2859
11.2859
11.2859
11.2859
11.2859
11.2859
11.2859
11.2859
11.2859
11.2859
11.2859
11.2859
11.2859
11.2858
11.2858
11.2858
11.2858
11.2858
11.2858
11.2858
11.2858
11.2858
11.2858
11.2858
11.2858
11.2858
11.2858
11.2858
11.2858
11.2858
11.2857
11.2857
11.2857
11.2857
11.2857
11.2856
11.2856
11.2856
11.2855
11.2855
11.2854
11.2854
11.2853
11.2853
11.2852
11.2852
11.2851
11.285
11.285
11.2849
11.2848
11.2847
11.2847
11.2846
11.2845
11.2845
11.2844
11.2844
11.2843
11.2843
11.2843
11.2843
11.2843
11.2843
11.2843
11.2844
11.2844
11.2845
11.2845
11.2846
11.2847
11.2848
11.2849
11.285
11.2851
11.2852
11.2852
11.2853
11.2854
11.2854
11.2855
11.2856
11.2856
11.2857
11.2857
11.2857
11.2858
11.2858
11.2858
11.2858
11.2858
11.2858
11.2858
11.2858
11.2858
11.2859
11.2859
11.2859
11.2859
11.2859
11.2859
11.2859
11.2859
11.2859
11.2859
11.2859
11.2859
11.2859
11.2859
11.2859
11.2859
11.2859
11.2859
11.2859
11.2859
11.2859
11.2859
11.2859
11.2859
11.2859
11.2859
11.2859
11.2859
11.2859
11.2859
11.2858
11.2858
11.2858
11.2858
11.2858
11.2858
11.2857
11.2857
11.2857
11.2857
11.2857
11.2856
11.2856
11.2855
11.2855
11.2854
11.2854
11.2853
11.2852
11.2851
11.285
11.2849
11.2847
11.2846
11.2844
11.2842
11.284
11.2837
11.2834
11.2831
11.2828
11.2824
11.282
11.2816
11.2812
11.2807
11.2803
11.2798
11.2793
11.2788
11.2783
11.2778
11.2773
11.2768
11.2763
11.2758
11.2754
11.275
11.2747
11.2744
11.2743
11.2742
11.2742
11.2744
11.2746
11.2749
11.2753
11.2757
11.2762
11.2768
11.2775
11.2781
11.2788
11.2795
11.2801
11.2807
11.2813
11.2818
11.2823
11.2828
11.2832
11.2836
11.284
11.2844
11.2846
11.2849
11.2851
11.2853
11.2854
11.2855
11.2856
11.2856
11.2857
11.2857
11.2858
11.2858
11.2858
11.2858
11.2858
11.2858
11.2858
11.2859
11.2859
11.2859
11.2859
11.2859
11.2859
11.2859
11.2859
11.2859
11.2859
11.2859
11.2859
11.2859
11.2859
11.2859
11.2859
11.2859
11.2859
11.2859
11.2859
11.2859
11.2859
11.2859
11.2859
11.2856
11.2855
11.2855
11.2854
11.2853
11.2852
11.2851
11.2849
11.2848
11.2846
11.2844
11.2842
11.2839
11.2836
11.2832
11.2828
11.2823
11.2818
11.2811
11.2804
11.2796
11.2787
11.2777
11.2766
11.2754
11.274
11.2724
11.2706
11.2686
11.2664
11.2639
11.2613
11.2585
11.2556
11.2525
11.2494
11.2462
11.2429
11.2395
11.2361
11.2325
11.2289
11.2252
11.2216
11.2181
11.2148
11.2117
11.2091
11.2069
11.2052
11.2042
11.2039
11.2042
11.2051
11.2066
11.2087
11.2114
11.2146
11.2182
11.2223
11.2267
11.2313
11.236
11.2408
11.2454
11.2497
11.2537
11.2574
11.2609
11.2641
11.2672
11.2701
11.2727
11.2751
11.2772
11.2789
11.2804
11.2816
11.2825
11.2833
11.2839
11.2844
11.2847
11.285
11.2853
11.2854
11.2856
11.2856
11.2857
11.2858
11.2858
11.2858
11.2858
11.2858
11.2858
11.2859
11.2859
11.2859
11.2859
11.2859
11.2859
11.2859
11.2859
11.2859
11.2859
11.2859
11.2859
11.2859
11.2859
11.2859
11.2859
11.2859
11.2859
11.2859
11.2859
11.2859
11.2852
11.2851
11.285
11.2848
11.2846
11.2844
11.2841
11.2838
11.2834
11.283
11.2825
11.2819
11.2812
11.2804
11.2795
11.2784
11.2772
11.2758
11.2741
11.2723
11.2701
11.2676
11.2646
11.2613
11.2574
11.253
11.2481
11.2426
11.2365
11.2297
11.2221
11.2135
11.2037
11.1928
11.1806
11.1671
11.1523
11.1362
11.1191
11.1011
11.0823
11.063
11.0433
11.0233
11.0028
10.9818
10.96
10.9375
10.9145
10.8914
10.8686
10.8468
10.8265
10.8082
10.7923
10.7793
10.7694
10.7633
10.7619
10.7639
10.7693
10.7783
10.7908
10.8067
10.8257
10.8476
10.8721
10.8989
10.9274
10.9571
10.9874
11.0172
11.0457
11.072
11.0961
11.1185
11.1397
11.1597
11.1787
11.1963
11.2123
11.2263
11.2383
11.2482
11.2562
11.2626
11.2677
11.2719
11.2753
11.278
11.2801
11.2817
11.2829
11.2837
11.2844
11.2848
11.2851
11.2854
11.2855
11.2856
11.2857
11.2858
11.2858
11.2858
11.2858
11.2858
11.2858
11.2859
11.2859
11.2859
11.2859
11.2859
11.2859
11.2859
11.2859
11.2859
11.2859
11.2859
11.2859
11.2859
11.2859
11.2859
11.2859
11.2815
11.2807
11.2798
11.2786
11.2773
11.2758
11.2739
11.2718
11.2694
11.2665
11.2631
11.2591
11.2544
11.249
11.2427
11.2355
11.2272
11.2177
11.2069
11.1943
11.1798
11.163
11.1438
11.1218
11.097
11.0693
11.0385
11.0047
10.9676
10.9266
10.8811
10.8303
10.7736
10.7109
10.6424
10.5685
10.49
10.4079
10.3233
10.2375
10.1514
10.0661
9.98224
9.89954
9.8167
9.7327
9.64751
9.56195
9.4774
9.39556
9.31811
9.24658
9.18228
9.12627
9.07938
9.04217
9.01482
8.99861
8.99737
9.00534
9.02252
9.05042
9.08897
9.13812
9.19775
9.26782
9.34841
9.43934
9.54
9.64928
9.76536
9.88527
10.0047
10.1193
10.2281
10.3329
10.4356
10.5371
10.6366
10.7326
10.8232
10.9061
10.9793
11.041
11.0914
11.1321
11.1652
11.1925
11.215
11.233
11.247
11.2575
11.2654
11.2712
11.2755
11.2786
11.2809
11.2825
11.2836
11.2844
11.2849
11.2852
11.2854
11.2856
11.2857
11.2858
11.2858
11.2858
11.2858
11.2858
11.2859
11.2859
11.2859
11.2859
11.2859
11.2859
11.2859
11.2859
11.2859
11.2859
11.2859
11.2859
11.2859
11.2571
11.2517
11.2453
11.2379
11.2292
11.219
11.2072
11.1935
11.1775
11.1588
11.137
11.1116
11.0823
11.0486
11.0103
10.9671
10.9185
10.8637
10.8018
10.7316
10.6521
10.5629
10.4638
10.355
10.2372
10.1116
9.97938
9.84172
9.69854
9.54809
9.38886
9.22076
9.04518
8.86449
8.68145
8.49883
8.3193
8.1453
7.97884
7.82133
7.67356
7.5357
7.40718
7.28597
7.16696
7.04877
6.93268
6.82076
6.71509
6.61745
6.52921
6.45125
6.38413
6.32799
6.2829
6.24866
6.22477
6.21245
6.21448
6.22601
6.24565
6.27544
6.31595
6.36777
6.43118
6.50698
6.59665
6.70161
6.82284
6.96097
7.11686
7.2904
7.47641
7.66548
7.85503
8.05027
8.25737
8.48005
8.71915
8.97319
9.23848
9.5081
9.77122
10.0144
10.2291
10.4154
10.5784
10.7219
10.8472
10.9528
11.0375
11.1028
11.1522
11.1894
11.2172
11.2378
11.2526
11.2631
11.2705
11.2756
11.2791
11.2815
11.283
11.2841
11.2847
11.2852
11.2854
11.2856
11.2857
11.2858
11.2858
11.2858
11.2858
11.2858
11.2859
11.2859
11.2859
11.2859
11.2859
11.2859
11.2859
11.2859
11.2859
11.1028
11.0698
11.0314
10.9871
10.9363
10.8784
10.8127
10.7379
10.6529
10.5563
10.4474
10.3258
10.1916
10.0454
9.88848
9.72204
9.5467
9.36157
9.1655
8.95861
8.7426
8.5202
8.29468
8.06931
7.84715
7.63092
7.42264
7.22308
7.03059
6.83951
6.64806
6.45807
6.27268
6.09486
5.92678
5.76977
5.62464
5.49188
5.37149
5.26293
5.16527
5.07751
4.99825
4.92475
4.84872
4.77232
4.69904
4.63089
4.56893
4.51382
4.46598
4.42555
4.39256
4.36652
4.34722
4.33424
4.32674
4.32619
4.33225
4.34639
4.36042
4.38008
4.4059
4.43813
4.47641
4.52133
4.57449
4.63726
4.7105
4.79522
4.89271
5.00423
5.12925
5.25942
5.38976
5.52843
5.68322
5.85967
6.06206
6.29439
6.56056
6.86327
7.19979
7.55462
7.90929
8.26099
8.61578
8.97825
9.34443
9.6991
10.021
10.2966
10.5259
10.7146
10.8672
10.9863
11.0755
11.1402
11.1864
11.219
11.2416
11.2568
11.2671
11.2739
11.2783
11.2811
11.283
11.2841
11.2848
11.2852
11.2855
11.2856
11.2857
11.2858
11.2858
11.2858
11.2858
11.2859
11.2859
11.2859
11.2859
11.2859
11.2859
11.2859
11.2859
10.3028
10.157
9.99659
9.82256
9.63629
9.43908
9.23126
9.01239
8.7827
8.54384
8.29864
8.05056
7.8031
7.55948
7.32237
7.0934
6.87239
6.65564
6.44074
6.2289
6.02296
5.82571
5.63923
5.46478
5.30301
5.15409
5.018
4.89352
4.77743
4.66035
4.54341
4.43047
4.32414
4.22593
4.13656
4.05623
3.9849
3.92248
3.86854
3.82221
3.7825
3.74844
3.71933
3.69455
3.67417
3.65784
3.645
3.63509
3.62778
3.62289
3.62037
3.62015
3.62273
3.62709
3.6332
3.64108
3.6505
3.66196
3.67495
3.68949
3.70391
3.71619
3.73242
3.75029
3.76847
3.78828
3.81034
3.83441
3.86058
3.88896
3.91962
3.95379
3.99255
4.03721
4.08942
4.15074
4.22324
4.30873
4.40941
4.52891
4.67225
4.84437
5.0476
5.27569
5.50987
5.75887
6.037
6.35798
6.73181
7.15703
7.61192
8.07312
8.53313
8.99006
9.43384
9.84203
10.1929
10.4798
10.7075
10.8827
11.0121
11.1036
11.1664
11.2088
11.2368
11.255
11.2667
11.2741
11.2788
11.2816
11.2834
11.2844
11.285
11.2854
11.2856
11.2857
11.2858
11.2858
11.2858
11.2858
11.2859
11.2859
11.2859
11.2859
11.2859
8.04439
7.78082
7.51985
7.26465
7.01751
6.77933
6.54879
6.32301
6.10201
5.88772
5.68255
5.48851
5.30685
5.13809
4.9823
4.83918
4.70613
4.57684
4.4489
4.3254
4.20899
4.10118
4.00266
3.91368
3.83416
3.76389
3.70258
3.64942
3.60361
3.56495
3.53221
3.50431
3.48048
3.46021
3.44319
3.42923
3.41811
3.41006
3.40489
3.40184
3.40035
3.4
3.40045
3.40181
3.40405
3.40731
3.41139
3.41625
3.42185
3.42815
3.43507
3.443
3.45219
3.46238
3.47294
3.48499
3.49879
3.51337
3.52432
3.53912
3.55375
3.56824
3.58363
3.5992
3.61145
3.62775
3.64698
3.6645
3.68131
3.70122
3.7208
3.74146
3.7642
3.78895
3.81488
3.84232
3.8718
3.90362
3.93876
3.9771
4.01932
4.06584
4.117
4.17842
4.25646
4.35558
4.48099
4.6403
4.84266
5.0929
5.37846
5.68515
6.02663
6.42127
6.88004
7.39178
7.92699
8.46629
8.99834
9.50393
9.95304
10.324
10.6142
10.8317
10.9876
11.0945
11.1654
11.2112
11.2403
11.2584
11.2695
11.2762
11.2803
11.2826
11.284
11.2848
11.2853
11.2855
11.2857
11.2858
11.2858
11.2858
11.2858
11.2859
11.2859
5.72628
5.5199
5.32541
5.14381
4.97541
4.82018
4.67663
4.54143
4.40909
4.28132
4.16041
4.0479
3.94467
3.85099
3.76678
3.69181
3.62575
3.56819
3.51901
3.47734
3.4418
3.4113
3.38503
3.36243
3.34316
3.32692
3.31361
3.30345
3.29585
3.2901
3.2856
3.28214
3.27976
3.27807
3.27694
3.27636
3.27635
3.27728
3.2792
3.28273
3.28738
3.29286
3.29964
3.30521
3.31031
3.31763
3.32443
3.33138
3.33911
3.34713
3.3555
3.36454
3.37321
3.38318
3.39342
3.40371
3.4145
3.42749
3.44058
3.45129
3.4651
3.4795
3.49422
3.50907
3.52406
3.53559
3.55261
3.57015
3.587
3.60147
3.62033
3.6406
3.65893
3.67709
3.6995
3.72331
3.74519
3.76836
3.78718
3.81464
3.84294
3.87246
3.90039
3.92112
3.94907
3.98462
4.02425
4.06732
4.1153
4.1695
4.23
4.30485
4.40673
4.54653
4.73572
4.98513
5.2933
5.63603
6.02233
6.47318
6.99963
7.58251
8.18843
8.79171
9.3659
9.87581
10.2943
10.6158
10.8494
11.0102
11.1159
11.183
11.2246
11.2498
11.2649
11.2738
11.279
11.282
11.2837
11.2847
11.2852
11.2855
11.2857
11.2858
11.2858
11.2858
4.09425
3.98149
3.87799
3.78401
3.69946
3.62405
3.55739
3.49939
3.44991
3.40774
3.37169
3.34076
3.31413
3.29117
3.27147
3.25472
3.24086
3.22995
3.22143
3.21453
3.20869
3.20378
3.19944
3.19586
3.19276
3.19017
3.18788
3.18736
3.18832
3.18988
3.19145
3.19376
3.19682
3.19928
3.20214
3.20507
3.20822
3.21306
3.21609
3.21942
3.22345
3.22879
3.23609
3.24132
3.24815
3.25646
3.26457
3.27296
3.28207
3.29159
3.30138
3.31132
3.32091
3.33073
3.34144
3.35103
3.36106
3.37381
3.38596
3.39667
3.40974
3.42393
3.43756
3.45132
3.46591
3.47735
3.49475
3.51099
3.52701
3.54022
3.55897
3.57729
3.59593
3.61255
3.63473
3.6556
3.67736
3.69893
3.71528
3.73861
3.76204
3.78805
3.8144
3.83442
3.8605
3.89159
3.91996
3.94965
3.98474
4.0177
4.0427
4.07129
4.11265
4.16201
4.21801
4.28054
4.35456
4.45639
4.60343
4.81366
5.10066
5.45359
5.85711
6.327
6.87961
7.5023
8.15948
8.81628
9.43395
9.96853
10.3932
10.7069
10.9243
11.0665
11.1557
11.2099
11.2421
11.261
11.2718
11.2781
11.2816
11.2835
11.2846
11.2852
11.2855
11.2857
11.2858
11.2858
3.32947
3.29576
3.26689
3.24211
3.22083
3.2026
3.18721
3.17473
3.16483
3.15674
3.14985
3.14378
3.13842
3.13358
3.12921
3.12535
3.12203
3.12033
3.11986
3.1196
3.11927
3.11959
3.11971
3.1207
3.12132
3.12216
3.12304
3.12388
3.12478
3.12618
3.12805
3.13235
3.13578
3.13988
3.14464
3.14975
3.15523
3.16112
3.16611
3.17033
3.17437
3.18022
3.18685
3.19297
3.20055
3.20911
3.21758
3.22637
3.23564
3.24515
3.25478
3.26456
3.27472
3.28523
3.29602
3.30614
3.31644
3.32932
3.34094
3.35198
3.36494
3.3788
3.39115
3.40431
3.41702
3.42956
3.44747
3.46269
3.47876
3.49237
3.5094
3.52663
3.54396
3.56189
3.58162
3.60061
3.62103
3.64059
3.65949
3.67976
3.70073
3.72273
3.74475
3.76826
3.79207
3.81775
3.84472
3.87154
3.89959
3.92887
3.95581
3.98193
4.01698
4.05007
4.0884
4.11814
4.14591
4.18498
4.23653
4.29754
4.36599
4.45538
4.58795
4.78674
5.07117
5.43783
5.86948
6.37994
6.98266
7.65695
8.36187
9.05297
9.6777
10.191
10.5774
10.8471
11.0233
11.1326
11.1979
11.2361
11.258
11.2704
11.2774
11.2813
11.2834
11.2845
11.2851
11.2855
3.09841
3.09152
3.0854
3.07995
3.07501
3.07049
3.06649
3.06351
3.06195
3.06076
3.05973
3.05866
3.05802
3.05744
3.05671
3.05649
3.05639
3.05587
3.05543
3.05563
3.05646
3.05783
3.06032
3.06244
3.06514
3.06821
3.07144
3.07379
3.07547
3.07793
3.08087
3.08443
3.08866
3.09343
3.09854
3.10388
3.10938
3.11479
3.12025
3.12546
3.13029
3.13587
3.14143
3.14733
3.15432
3.16196
3.16982
3.1783
3.18727
3.1965
3.20598
3.2158
3.22602
3.2366
3.24729
3.25797
3.26889
3.28144
3.29284
3.30431
3.31724
3.33134
3.34318
3.35584
3.36644
3.38118
3.39823
3.41318
3.42802
3.44474
3.45804
3.47508
3.49188
3.50939
3.52767
3.54629
3.56574
3.58489
3.60412
3.62389
3.64422
3.66505
3.68705
3.71028
3.7336
3.75716
3.78135
3.80616
3.83111
3.85569
3.8823
3.91154
3.94065
3.97094
4.00234
4.03354
4.0597
4.09233
4.13008
4.16654
4.19333
4.22768
4.27672
4.33594
4.40283
4.49325
4.63283
4.84766
5.16021
5.56064
6.04046
6.61623
7.28706
8.01583
8.75401
9.44369
10.0263
10.4721
10.7853
10.9894
11.1149
11.189
11.2317
11.2559
11.2694
11.2769
11.281
11.2832
3.0042
3.00299
3.00171
3.00084
2.99997
2.99898
2.99862
2.99796
2.99685
2.99632
2.99627
2.99675
2.99767
2.99914
3.0006
3.00236
3.00427
3.00525
3.00609
3.0073
3.00889
3.01095
3.01343
3.01621
3.01915
3.02212
3.02482
3.02744
3.02988
3.03231
3.03495
3.03786
3.04132
3.04534
3.04984
3.05478
3.06007
3.06554
3.0712
3.07694
3.08256
3.0882
3.0938
3.09962
3.10606
3.1129
3.12021
3.12817
3.1366
3.14544
3.15469
3.16437
3.17446
3.18493
3.19566
3.20656
3.21785
3.22987
3.24148
3.25309
3.26558
3.27977
3.29178
3.30364
3.31549
3.33064
3.34643
3.361
3.37544
3.39196
3.40639
3.42105
3.43805
3.45476
3.47217
3.49049
3.50938
3.52811
3.54698
3.5664
3.58639
3.60704
3.62862
3.65092
3.67349
3.69626
3.71937
3.74292
3.76689
3.79202
3.81939
3.84693
3.87366
3.90103
3.92882
3.95631
3.98544
4.01688
4.04873
4.07896
4.11
4.14287
4.18152
4.21491
4.24131
4.27787
4.32826
4.3857
4.45494
4.55929
4.72705
4.9873
5.35517
5.8116
6.36589
7.02761
7.76737
8.53522
9.26962
9.90254
10.393
10.7391
10.9642
11.1017
11.1822
11.2282
11.254
11.2684
11.2763
2.9402
2.94063
2.94144
2.9426
2.94389
2.94533
2.94648
2.94683
2.94755
2.94846
2.94968
2.95116
2.95285
2.95461
2.95624
2.95751
2.95868
2.95984
2.96091
2.9621
2.96356
2.96531
2.96743
2.96988
2.97256
2.97534
2.97822
2.9811
2.98385
2.98653
2.98928
2.9923
2.99571
2.9996
3.00397
3.0088
3.01403
3.01961
3.02547
3.03145
3.03746
3.04348
3.04956
3.05584
3.06242
3.06945
3.07694
3.08487
3.09328
3.1022
3.11153
3.12129
3.13155
3.14221
3.15309
3.16431
3.17603
3.18789
3.19953
3.21139
3.22531
3.23796
3.24978
3.26245
3.27731
3.29233
3.30654
3.32075
3.33638
3.35183
3.36568
3.3825
3.39887
3.41566
3.43341
3.45188
3.47022
3.48867
3.50767
3.52732
3.54761
3.56852
3.58993
3.61168
3.6337
3.65606
3.67893
3.70271
3.72797
3.75433
3.78069
3.80673
3.83287
3.8595
3.8874
3.91721
3.94729
3.9764
4.00407
4.0337
4.06628
4.09764
4.12805
4.16199
4.19834
4.23367
4.26018
4.28939
4.33108
4.38075
4.43773
4.52094
4.6587
4.88208
5.21926
5.65743
6.19623
6.84923
7.59369
8.37933
9.1428
9.81011
10.332
10.7019
10.9425
11.0892
11.1749
11.2238
2.89299
2.89418
2.89553
2.89693
2.89827
2.89931
2.90001
2.90071
2.90137
2.90197
2.90268
2.90355
2.90462
2.90587
2.90723
2.90858
2.90994
2.91127
2.91248
2.91359
2.91473
2.91603
2.9176
2.91949
2.9217
2.92422
2.927
2.92995
2.93296
2.93594
2.93889
2.94191
2.94514
2.94869
2.95264
2.95702
2.96184
2.96709
2.97275
2.97872
2.98489
2.9912
2.99756
3.00402
3.01071
3.01768
3.02495
3.0326
3.04071
3.04929
3.05824
3.06763
3.07759
3.08804
3.09874
3.10968
3.12109
3.13309
3.14487
3.15637
3.16945
3.18276
3.19504
3.20773
3.22209
3.23663
3.25059
3.26468
3.27921
3.29475
3.30961
3.32589
3.34216
3.35853
3.37572
3.39368
3.4116
3.42963
3.4482
3.46739
3.48713
3.50735
3.52796
3.54893
3.57026
3.59202
3.61445
3.63789
3.66244
3.68763
3.71295
3.73825
3.76376
3.79013
3.81802
3.84712
3.87622
3.90464
3.9331
3.96312
3.99381
4.0234
4.05269
4.08527
4.11859
4.14818
4.18136
4.21584
4.25067
4.27571
4.30111
4.33676
4.37873
4.426
4.49533
4.61362
4.81258
5.1253
5.5496
6.07679
6.72144
7.46542
8.25886
9.03848
9.72757
10.2717
10.6603
10.9149
2.84804
2.84881
2.84966
2.85058
2.85146
2.85228
2.85305
2.85372
2.85426
2.85472
2.85521
2.85581
2.85657
2.8575
2.85859
2.85983
2.86115
2.86247
2.86372
2.86492
2.86614
2.86748
2.86903
2.87085
2.87298
2.87544
2.87818
2.88115
2.88424
2.88739
2.89059
2.8939
2.8974
2.90117
2.90528
2.90978
2.9147
2.92006
2.9258
2.93188
2.93821
2.94471
2.95138
2.95823
2.96528
2.97255
2.98012
2.98807
2.9964
3.00507
3.01415
3.02377
3.03393
3.04438
3.055
3.06594
3.0779
3.09009
3.10137
3.11349
3.12717
3.13984
3.15227
3.1661
3.18024
3.19398
3.20789
3.22208
3.23706
3.25249
3.26862
3.2848
3.30097
3.31781
3.3352
3.35264
3.37025
3.38836
3.40703
3.42618
3.44574
3.46566
3.48595
3.50666
3.5279
3.54985
3.57267
3.59628
3.62038
3.64471
3.66925
3.69427
3.72027
3.74747
3.77543
3.80352
3.83165
3.86044
3.89014
3.92001
3.94974
3.98026
4.01183
4.04261
4.07245
4.10481
4.1391
4.16991
4.20051
4.23233
4.26316
4.28623
4.30839
4.33923
4.37335
4.41176
4.47067
4.57527
4.75748
5.05223
5.46433
5.9795
6.61216
7.34743
8.13695
8.92038
9.62239
2.80186
2.80228
2.80276
2.8033
2.80391
2.80456
2.80519
2.80576
2.80624
2.80666
2.80708
2.80756
2.80816
2.80892
2.80985
2.81094
2.81216
2.81343
2.81471
2.81598
2.81731
2.81876
2.82039
2.82226
2.82443
2.82689
2.82965
2.83265
2.83583
2.83913
2.84255
2.84612
2.84988
2.8539
2.85823
2.86293
2.86802
2.87351
2.87938
2.88557
2.89205
2.89877
2.90571
2.91284
2.92018
2.92778
2.93566
2.94386
2.95238
2.96125
2.97056
2.98044
2.99061
3.00096
3.01154
3.02328
3.03566
3.0467
3.05834
3.07169
3.08472
3.09688
3.1102
3.12395
3.1375
3.15119
3.16522
3.1799
3.19533
3.21123
3.22715
3.24332
3.25988
3.27672
3.29369
3.31091
3.32856
3.3467
3.36528
3.38424
3.40355
3.42325
3.4434
3.46411
3.48548
3.50756
3.53025
3.55336
3.57678
3.60058
3.62501
3.65035
3.67658
3.70337
3.73049
3.75807
3.78642
3.81541
3.84476
3.87461
3.90524
3.93612
3.96677
3.99798
4.03034
4.0623
4.09299
4.12466
4.15774
4.18764
4.21639
4.24525
4.27155
4.29079
4.30961
4.33483
4.36001
4.3897
4.43948
4.53292
4.70161
4.98039
5.3781
5.87505
6.48539
7.19836
7.96855
8.74176
2.75511
2.75533
2.75555
2.75581
2.75613
2.75651
2.75696
2.75742
2.75787
2.75828
2.75867
2.75905
2.75949
2.76003
2.76071
2.76155
2.76254
2.76368
2.76491
2.7662
2.76756
2.769