/*--------------------------------*- C++ -*----------------------------------*\
| =========                 |                                                 |
| \\      /  F ield         | OpenFOAM: The Open Source CFD Toolbox           |
|  \\    /   O peration     | Version:  v1706                                 |
|   \\  /    A nd           | Web:      www.OpenFOAM.com                      |
|    \\/     M anipulation  |                                                 |
\*---------------------------------------------------------------------------*/
FoamFile
{
    version     2.0;
    format      ascii;
    class       volScalarField;
    location    "1.1e-05";
    object      mu;
}
// * * * * * * * * * * * * * * * * * * * * * * * * * * * * * * * * * * * * * //

dimensions      [1 -1 -1 0 0 0 0];


internalField   nonuniform List<scalar> 
29871
(
1.0351e-05
1.0351e-05
1.0351e-05
1.0351e-05
1.0351e-05
1.0351e-05
1.0351e-05
1.0351e-05
1.0351e-05
1.0351e-05
1.0351e-05
1.0351e-05
1.0351e-05
1.0351e-05
1.0351e-05
1.0351e-05
1.0351e-05
1.0351e-05
1.0351e-05
1.0351e-05
1.0351e-05
1.0351e-05
1.0351e-05
1.0351e-05
1.0351e-05
1.0351e-05
1.0351e-05
1.0351e-05
1.0351e-05
1.0351e-05
1.0351e-05
1.0351e-05
1.0351e-05
1.0351e-05
1.0351e-05
1.0351e-05
1.0351e-05
1.0351e-05
1.0351e-05
1.0351e-05
1.0351e-05
1.0351e-05
1.0351e-05
1.0351e-05
1.0351e-05
1.0351e-05
1.0351e-05
1.0351e-05
1.0351e-05
1.0351e-05
1.0351e-05
1.0351e-05
1.0351e-05
1.0351e-05
1.0351e-05
1.0351e-05
1.0351e-05
1.0351e-05
1.0351e-05
1.0351e-05
1.0351e-05
1.0351e-05
1.0351e-05
1.0351e-05
1.0351e-05
1.0351e-05
1.0351e-05
1.0351e-05
1.0351e-05
1.0351e-05
1.0351e-05
1.0351e-05
1.0351e-05
1.0351e-05
1.0351e-05
1.0351e-05
1.0351e-05
1.0351e-05
1.0351e-05
1.0351e-05
1.0351e-05
1.0351e-05
1.0351e-05
1.0351e-05
1.0351e-05
1.0351e-05
1.0351e-05
1.0351e-05
1.0351e-05
1.0351e-05
1.0351e-05
1.0351e-05
1.0351e-05
1.0351e-05
1.0351e-05
1.0351e-05
1.0351e-05
1.0351e-05
1.0351e-05
1.0351e-05
1.0351e-05
1.0351e-05
1.0351e-05
1.0351e-05
1.0351e-05
1.0351e-05
1.0351e-05
1.0351e-05
1.0351e-05
1.0351e-05
1.0351e-05
1.0351e-05
1.0351e-05
1.0351e-05
1.0351e-05
1.0351e-05
1.0351e-05
1.0351e-05
1.0351e-05
1.0351e-05
1.0351e-05
1.0351e-05
1.0351e-05
1.0351e-05
1.0351e-05
1.0351e-05
1.0351e-05
1.0351e-05
1.0351e-05
1.0351e-05
1.0351e-05
1.0351e-05
1.0351e-05
1.0351e-05
1.0351e-05
1.0351e-05
1.0351e-05
1.0351e-05
1.0351e-05
1.0351e-05
1.0351e-05
1.0351e-05
1.0351e-05
1.0351e-05
1.0351e-05
1.0351e-05
1.0351e-05
1.0351e-05
1.0351e-05
1.0351e-05
1.0351e-05
1.0351e-05
1.0351e-05
1.0351e-05
1.0351e-05
1.0351e-05
1.0351e-05
1.0351e-05
1.0351e-05
1.0351e-05
1.0351e-05
1.0351e-05
1.0351e-05
1.0351e-05
1.0351e-05
1.0351e-05
1.0351e-05
1.0351e-05
1.0351e-05
1.0351e-05
1.0351e-05
1.0351e-05
1.0351e-05
1.0351e-05
1.0351e-05
1.0351e-05
1.0351e-05
1.0351e-05
1.0351e-05
1.0351e-05
1.0351e-05
1.0351e-05
1.0351e-05
1.0351e-05
1.0351e-05
1.0351e-05
1.0351e-05
1.0351e-05
1.0351e-05
1.0351e-05
1.0351e-05
1.0351e-05
1.0351e-05
1.0351e-05
1.0351e-05
1.0351e-05
1.0351e-05
1.0351e-05
1.0351e-05
1.0351e-05
1.0351e-05
1.0351e-05
1.0351e-05
1.0351e-05
1.0351e-05
1.0351e-05
1.0351e-05
1.0351e-05
1.0351e-05
1.0351e-05
1.0351e-05
1.0351e-05
1.0351e-05
1.0351e-05
1.0351e-05
1.0351e-05
1.0351e-05
1.0351e-05
1.0351e-05
1.0351e-05
1.0351e-05
1.0351e-05
1.0351e-05
1.0351e-05
1.0351e-05
1.0351e-05
1.0351e-05
1.0351e-05
1.0351e-05
1.0351e-05
1.0351e-05
1.0351e-05
1.0351e-05
1.0351e-05
1.0351e-05
1.0351e-05
1.0351e-05
1.0351e-05
1.0351e-05
1.0351e-05
1.0351e-05
1.0351e-05
1.0351e-05
1.0351e-05
1.0351e-05
1.0351e-05
1.0351e-05
1.0351e-05
1.0351e-05
1.0351e-05
1.0351e-05
1.0351e-05
1.0351e-05
1.0351e-05
1.0351e-05
1.0351e-05
1.0351e-05
1.0351e-05
1.0351e-05
1.0351e-05
1.0351e-05
1.0351e-05
1.0351e-05
1.0351e-05
1.0351e-05
1.0351e-05
1.0351e-05
1.0351e-05
1.0351e-05
1.0351e-05
1.0351e-05
1.0351e-05
1.0351e-05
1.0351e-05
1.0351e-05
1.0351e-05
1.0351e-05
1.0351e-05
1.0351e-05
1.0351e-05
1.0351e-05
1.0351e-05
1.0351e-05
1.0351e-05
1.0351e-05
1.0351e-05
1.0351e-05
1.0351e-05
1.0351e-05
1.0351e-05
1.0351e-05
1.0351e-05
1.0351e-05
1.0351e-05
1.0351e-05
1.0351e-05
1.0351e-05
1.0351e-05
1.0351e-05
1.0351e-05
1.0351e-05
1.0351e-05
1.0351e-05
1.0351e-05
1.0351e-05
1.0351e-05
1.0351e-05
1.0351e-05
1.0351e-05
1.0351e-05
1.0351e-05
1.0351e-05
1.0351e-05
1.0351e-05
1.0351e-05
1.0351e-05
1.0351e-05
1.0351e-05
1.0351e-05
1.0351e-05
1.0351e-05
1.0351e-05
1.0351e-05
1.0351e-05
1.0351e-05
1.0351e-05
1.0351e-05
1.0351e-05
1.0351e-05
1.0351e-05
1.0351e-05
1.0351e-05
1.0351e-05
1.0351e-05
1.0351e-05
1.0351e-05
1.0351e-05
1.0351e-05
1.0351e-05
1.0351e-05
1.0351e-05
1.0351e-05
1.0351e-05
1.0351e-05
1.0351e-05
1.0351e-05
1.0351e-05
1.0351e-05
1.0351e-05
1.0351e-05
1.0351e-05
1.0351e-05
1.0351e-05
1.0351e-05
1.0351e-05
1.0351e-05
1.0351e-05
1.0351e-05
1.0351e-05
1.0351e-05
1.0351e-05
1.0351e-05
1.0351e-05
1.0351e-05
1.0351e-05
1.0351e-05
1.0351e-05
1.0351e-05
1.0351e-05
1.0351e-05
1.0351e-05
1.0351e-05
1.0351e-05
1.0351e-05
1.0351e-05
1.0351e-05
1.0351e-05
1.0351e-05
1.0351e-05
1.0351e-05
1.0351e-05
1.0351e-05
1.0351e-05
1.0351e-05
1.0351e-05
1.0351e-05
1.0351e-05
1.0351e-05
1.0351e-05
1.0351e-05
1.0351e-05
1.0351e-05
1.0351e-05
1.0351e-05
1.0351e-05
1.0351e-05
1.0351e-05
1.0351e-05
1.0351e-05
1.0351e-05
1.0351e-05
1.0351e-05
1.0351e-05
1.0351e-05
1.0351e-05
1.0351e-05
1.0351e-05
1.0351e-05
1.0351e-05
1.0351e-05
1.0351e-05
1.0351e-05
1.0351e-05
1.0351e-05
1.0351e-05
1.0351e-05
1.0351e-05
1.0351e-05
1.0351e-05
1.0351e-05
1.0351e-05
1.0351e-05
1.0351e-05
1.0351e-05
1.0351e-05
1.0351e-05
1.0351e-05
1.0351e-05
1.0351e-05
1.0351e-05
1.0351e-05
1.0351e-05
1.0351e-05
1.0351e-05
1.0351e-05
1.0351e-05
1.0351e-05
1.0351e-05
1.0351e-05
1.0351e-05
1.0351e-05
1.0351e-05
1.0351e-05
1.0351e-05
1.0351e-05
1.0351e-05
1.0351e-05
1.0351e-05
1.0351e-05
1.0351e-05
1.0351e-05
1.0351e-05
1.0351e-05
1.0351e-05
1.0351e-05
1.0351e-05
1.0351e-05
1.0351e-05
1.0351e-05
1.0351e-05
1.0351e-05
1.0351e-05
1.0351e-05
1.0351e-05
1.0351e-05
1.0351e-05
1.0351e-05
1.0351e-05
1.0351e-05
1.0351e-05
1.0351e-05
1.0351e-05
1.0351e-05
1.0351e-05
1.0351e-05
1.0351e-05
1.0351e-05
1.0351e-05
1.0351e-05
1.0351e-05
1.0351e-05
1.0351e-05
1.0351e-05
1.0351e-05
1.0351e-05
1.0351e-05
1.0351e-05
1.0351e-05
1.0351e-05
1.0351e-05
1.0351e-05
1.0351e-05
1.0351e-05
1.0351e-05
1.0351e-05
1.0351e-05
1.0351e-05
1.0351e-05
1.0351e-05
1.0351e-05
1.0351e-05
1.0351e-05
1.0351e-05
1.0351e-05
1.0351e-05
1.0351e-05
1.0351e-05
1.0351e-05
1.0351e-05
1.0351e-05
1.0351e-05
1.0351e-05
1.0351e-05
1.0351e-05
1.0351e-05
1.0351e-05
1.0351e-05
1.0351e-05
1.0351e-05
1.0351e-05
1.0351e-05
1.0351e-05
1.0351e-05
1.0351e-05
1.0351e-05
1.0351e-05
1.0351e-05
1.0351e-05
1.0351e-05
1.0351e-05
1.0351e-05
1.0351e-05
1.0351e-05
1.0351e-05
1.0351e-05
1.0351e-05
1.0351e-05
1.0351e-05
1.0351e-05
1.0351e-05
1.0351e-05
1.0351e-05
1.0351e-05
1.0351e-05
1.0351e-05
1.0351e-05
1.0351e-05
1.0351e-05
1.0351e-05
1.0351e-05
1.0351e-05
1.0351e-05
1.0351e-05
1.0351e-05
1.0351e-05
1.0351e-05
1.0351e-05
1.0351e-05
1.0351e-05
1.0351e-05
1.0351e-05
1.0351e-05
1.0351e-05
1.0351e-05
1.0351e-05
1.0351e-05
1.0351e-05
1.0351e-05
1.0351e-05
1.0351e-05
1.0351e-05
1.0351e-05
1.0351e-05
1.0351e-05
1.0351e-05
1.0351e-05
1.0351e-05
1.0351e-05
1.0351e-05
1.0351e-05
1.0351e-05
1.0351e-05
1.0351e-05
1.0351e-05
1.0351e-05
1.0351e-05
1.0351e-05
1.0351e-05
1.0351e-05
1.0351e-05
1.0351e-05
1.0351e-05
1.0351e-05
1.0351e-05
1.0351e-05
1.0351e-05
1.0351e-05
1.0351e-05
1.0351e-05
1.0351e-05
1.0351e-05
1.0351e-05
1.0351e-05
1.0351e-05
1.0351e-05
1.0351e-05
1.0351e-05
1.0351e-05
1.0351e-05
1.0351e-05
1.0351e-05
1.0351e-05
1.0351e-05
1.0351e-05
1.0351e-05
1.0351e-05
1.0351e-05
1.0351e-05
1.0351e-05
1.0351e-05
1.0351e-05
1.0351e-05
1.0351e-05
1.0351e-05
1.0351e-05
1.0351e-05
1.0351e-05
1.0351e-05
1.0351e-05
1.0351e-05
1.0351e-05
1.0351e-05
1.0351e-05
1.0351e-05
1.0351e-05
1.0351e-05
1.0351e-05
1.0351e-05
1.0351e-05
1.0351e-05
1.0351e-05
1.0351e-05
1.0351e-05
1.0351e-05
1.0351e-05
1.0351e-05
1.0351e-05
1.0351e-05
1.0351e-05
1.0351e-05
1.0351e-05
1.0351e-05
1.0351e-05
1.0351e-05
1.0351e-05
1.0351e-05
1.0351e-05
1.0351e-05
1.0351e-05
1.0351e-05
1.0351e-05
1.0351e-05
1.0351e-05
1.0351e-05
1.0351e-05
1.0351e-05
1.0351e-05
1.0351e-05
1.0351e-05
1.0351e-05
1.0351e-05
1.0351e-05
1.0351e-05
1.0351e-05
1.0351e-05
1.0351e-05
1.0351e-05
1.0351e-05
1.0351e-05
1.0351e-05
1.0351e-05
1.0351e-05
1.0351e-05
1.0351e-05
1.0351e-05
1.0351e-05
1.0351e-05
1.0351e-05
1.0351e-05
1.0351e-05
1.0351e-05
1.0351e-05
1.0351e-05
1.0351e-05
1.0351e-05
1.0351e-05
1.0351e-05
1.0351e-05
1.0351e-05
1.0351e-05
1.0351e-05
1.0351e-05
1.0351e-05
1.0351e-05
1.0351e-05
1.0351e-05
1.0351e-05
1.0351e-05
1.0351e-05
1.0351e-05
1.0351e-05
1.0351e-05
1.0351e-05
1.0351e-05
1.0351e-05
1.0351e-05
1.0351e-05
1.0351e-05
1.0351e-05
1.0351e-05
1.0351e-05
1.0351e-05
1.0351e-05
1.0351e-05
1.0351e-05
1.0351e-05
1.0351e-05
1.0351e-05
1.0351e-05
1.0351e-05
1.0351e-05
1.0351e-05
1.0351e-05
1.0351e-05
1.0351e-05
1.0351e-05
1.0351e-05
1.0351e-05
1.0351e-05
1.0351e-05
1.0351e-05
1.0351e-05
1.0351e-05
1.0351e-05
1.0351e-05
1.0351e-05
1.0351e-05
1.0351e-05
1.0351e-05
1.0351e-05
1.0351e-05
1.0351e-05
1.0351e-05
1.0351e-05
1.0351e-05
1.0351e-05
1.0351e-05
1.0351e-05
1.0351e-05
1.0351e-05
1.0351e-05
1.0351e-05
1.0351e-05
1.0351e-05
1.0351e-05
1.0351e-05
1.0351e-05
1.0351e-05
1.0351e-05
1.0351e-05
1.0351e-05
1.0351e-05
1.0351e-05
1.0351e-05
1.0351e-05
1.0351e-05
1.0351e-05
1.0351e-05
1.0351e-05
1.0351e-05
1.0351e-05
1.0351e-05
1.0351e-05
1.0351e-05
1.0351e-05
1.0351e-05
1.0351e-05
1.0351e-05
1.0351e-05
1.0351e-05
1.0351e-05
1.0351e-05
1.0351e-05
1.0351e-05
1.0351e-05
1.0351e-05
1.0351e-05
1.0351e-05
1.0351e-05
1.0351e-05
1.0351e-05
1.0351e-05
1.0351e-05
1.0351e-05
1.0351e-05
1.0351e-05
1.0351e-05
1.0351e-05
1.0351e-05
1.0351e-05
1.0351e-05
1.0351e-05
1.0351e-05
1.0351e-05
1.0351e-05
1.0351e-05
1.0351e-05
1.0351e-05
1.0351e-05
1.0351e-05
1.0351e-05
1.0351e-05
1.0351e-05
1.0351e-05
1.0351e-05
1.0351e-05
1.0351e-05
1.0351e-05
1.0351e-05
1.0351e-05
1.0351e-05
1.0351e-05
1.0351e-05
1.0351e-05
1.0351e-05
1.0351e-05
1.0351e-05
1.0351e-05
1.0351e-05
1.0351e-05
1.0351e-05
1.0351e-05
1.0351e-05
1.0351e-05
1.0351e-05
1.0351e-05
1.0351e-05
1.0351e-05
1.0351e-05
1.0351e-05
1.0351e-05
1.0351e-05
1.0351e-05
1.0351e-05
1.0351e-05
1.0351e-05
1.0351e-05
1.0351e-05
1.0351e-05
1.0351e-05
1.0351e-05
1.0351e-05
1.0351e-05
1.0351e-05
1.0351e-05
1.0351e-05
1.0351e-05
1.0351e-05
1.0351e-05
1.0351e-05
1.0351e-05
1.0351e-05
1.0351e-05
1.0351e-05
1.0351e-05
1.0351e-05
1.0351e-05
1.0351e-05
1.0351e-05
1.0351e-05
1.0351e-05
1.0351e-05
1.0351e-05
1.0351e-05
1.0351e-05
1.0351e-05
1.0351e-05
1.0351e-05
1.0351e-05
1.0351e-05
1.0351e-05
1.0351e-05
1.0351e-05
1.0351e-05
1.0351e-05
1.0351e-05
1.0351e-05
1.0351e-05
1.0351e-05
1.0351e-05
1.0351e-05
1.0351e-05
1.0351e-05
1.0351e-05
1.0351e-05
1.0351e-05
1.0351e-05
1.0351e-05
1.0351e-05
1.0351e-05
1.0351e-05
1.0351e-05
1.0351e-05
1.0351e-05
1.0351e-05
1.0351e-05
1.0351e-05
1.0351e-05
1.0351e-05
1.0351e-05
1.0351e-05
1.0351e-05
1.0351e-05
1.0351e-05
1.0351e-05
1.0351e-05
1.0351e-05
1.0351e-05
1.0351e-05
1.0351e-05
1.0351e-05
1.0351e-05
1.0351e-05
1.0351e-05
1.0351e-05
1.0351e-05
1.0351e-05
1.0351e-05
1.0351e-05
1.0351e-05
1.0351e-05
1.0351e-05
1.0351e-05
1.0351e-05
1.0351e-05
1.0351e-05
1.0351e-05
1.0351e-05
1.0351e-05
1.0351e-05
1.0351e-05
1.0351e-05
1.0351e-05
1.0351e-05
1.0351e-05
1.0351e-05
1.0351e-05
1.0351e-05
1.0351e-05
1.0351e-05
1.0351e-05
1.0351e-05
1.0351e-05
1.0351e-05
1.0351e-05
1.0351e-05
1.0351e-05
1.0351e-05
1.0351e-05
1.0351e-05
1.0351e-05
1.0351e-05
1.0351e-05
1.0351e-05
1.0351e-05
1.0351e-05
1.0351e-05
1.0351e-05
1.0351e-05
1.0351e-05
1.0351e-05
1.0351e-05
1.0351e-05
1.0351e-05
1.0351e-05
1.0351e-05
1.0351e-05
1.0351e-05
1.0351e-05
1.0351e-05
1.0351e-05
1.0351e-05
1.0351e-05
1.0351e-05
1.0351e-05
1.0351e-05
1.0351e-05
1.0351e-05
1.0351e-05
1.0351e-05
1.0351e-05
1.0351e-05
1.0351e-05
1.0351e-05
1.0351e-05
1.0351e-05
1.0351e-05
1.0351e-05
1.0351e-05
1.0351e-05
1.0351e-05
1.0351e-05
1.0351e-05
1.0351e-05
1.0351e-05
1.0351e-05
1.0351e-05
1.0351e-05
1.0351e-05
1.0351e-05
1.0351e-05
1.0351e-05
1.0351e-05
1.0351e-05
1.0351e-05
1.0351e-05
1.0351e-05
1.0351e-05
1.0351e-05
1.0351e-05
1.0351e-05
1.0351e-05
1.0351e-05
1.0351e-05
1.0351e-05
1.0351e-05
1.0351e-05
1.0351e-05
1.0351e-05
1.0351e-05
1.0351e-05
1.0351e-05
1.0351e-05
1.0351e-05
1.0351e-05
1.0351e-05
1.0351e-05
1.0351e-05
1.0351e-05
1.0351e-05
1.0351e-05
1.0351e-05
1.0351e-05
1.0351e-05
1.0351e-05
1.0351e-05
1.0351e-05
1.0351e-05
1.0351e-05
1.0351e-05
1.0351e-05
1.0351e-05
1.0351e-05
1.0351e-05
1.0351e-05
1.0351e-05
1.0351e-05
1.0351e-05
1.0351e-05
1.0351e-05
1.0351e-05
1.0351e-05
1.0351e-05
1.0351e-05
1.0351e-05
1.0351e-05
1.0351e-05
1.0351e-05
1.0351e-05
1.0351e-05
1.0351e-05
1.0351e-05
1.0351e-05
1.0351e-05
1.0351e-05
1.0351e-05
1.0351e-05
1.0351e-05
1.0351e-05
1.0351e-05
1.0351e-05
1.0351e-05
1.0351e-05
1.0351e-05
1.0351e-05
1.0351e-05
1.0351e-05
1.0351e-05
1.0351e-05
1.0351e-05
1.0351e-05
1.0351e-05
1.0351e-05
1.0351e-05
1.0351e-05
1.0351e-05
1.0351e-05
1.0351e-05
1.0351e-05
1.0351e-05
1.0351e-05
1.0351e-05
1.0351e-05
1.0351e-05
1.0351e-05
1.0351e-05
1.0351e-05
1.0351e-05
1.0351e-05
1.0351e-05
1.0351e-05
1.0351e-05
1.0351e-05
1.0351e-05
1.0351e-05
1.0351e-05
1.0351e-05
1.0351e-05
1.0351e-05
1.0351e-05
1.0351e-05
1.0351e-05
1.0351e-05
1.0351e-05
1.0351e-05
1.0351e-05
1.0351e-05
1.0351e-05
1.0351e-05
1.0351e-05
1.0351e-05
1.0351e-05
1.0351e-05
1.0351e-05
1.0351e-05
1.0351e-05
1.0351e-05
1.0351e-05
1.0351e-05
1.0351e-05
1.0351e-05
1.0351e-05
1.0351e-05
1.0351e-05
1.0351e-05
1.0351e-05
1.0351e-05
1.0351e-05
1.0351e-05
1.0351e-05
1.0351e-05
1.0351e-05
1.0351e-05
1.0351e-05
1.0351e-05
1.0351e-05
1.0351e-05
1.0351e-05
1.0351e-05
1.0351e-05
1.0351e-05
1.0351e-05
1.0351e-05
1.0351e-05
1.0351e-05
1.0351e-05
1.0351e-05
1.0351e-05
1.0351e-05
1.0351e-05
1.0351e-05
1.0351e-05
1.0351e-05
1.0351e-05
1.0351e-05
1.0351e-05
1.0351e-05
1.0351e-05
1.0351e-05
1.0351e-05
1.0351e-05
1.0351e-05
1.0351e-05
1.0351e-05
1.0351e-05
1.0351e-05
1.0351e-05
1.0351e-05
1.0351e-05
1.0351e-05
1.0351e-05
1.0351e-05
1.0351e-05
1.0351e-05
1.0351e-05
1.0351e-05
1.0351e-05
1.0351e-05
1.0351e-05
1.0351e-05
1.0351e-05
1.0351e-05
1.0351e-05
1.0351e-05
1.0351e-05
1.0351e-05
1.0351e-05
1.0351e-05
1.0351e-05
1.0351e-05
1.0351e-05
1.0351e-05
1.0351e-05
1.0351e-05
1.0351e-05
1.0351e-05
1.0351e-05
1.0351e-05
1.0351e-05
1.0351e-05
1.0351e-05
1.0351e-05
1.0351e-05
1.0351e-05
1.0351e-05
1.0351e-05
1.0351e-05
1.0351e-05
1.0351e-05
1.0351e-05
1.0351e-05
1.0351e-05
1.0351e-05
1.0351e-05
1.0351e-05
1.0351e-05
1.0351e-05
1.0351e-05
1.0351e-05
1.0351e-05
1.0351e-05
1.0351e-05
1.0351e-05
1.0351e-05
1.0351e-05
1.0351e-05
1.0351e-05
1.0351e-05
1.0351e-05
1.0351e-05
1.0351e-05
1.0351e-05
1.0351e-05
1.0351e-05
1.0351e-05
1.0351e-05
1.0351e-05
1.0351e-05
1.0351e-05
1.0351e-05
1.0351e-05
1.0351e-05
1.0351e-05
1.0351e-05
1.0351e-05
1.0351e-05
1.0351e-05
1.0351e-05
1.0351e-05
1.0351e-05
1.0351e-05
1.0351e-05
1.0351e-05
1.0351e-05
1.0351e-05
1.0351e-05
1.0351e-05
1.0351e-05
1.0351e-05
1.0351e-05
1.0351e-05
1.0351e-05
1.0351e-05
1.0351e-05
1.0351e-05
1.0351e-05
1.0351e-05
1.0351e-05
1.0351e-05
1.0351e-05
1.0351e-05
1.0351e-05
1.0351e-05
1.0351e-05
1.0351e-05
1.0351e-05
1.0351e-05
1.0351e-05
1.0351e-05
1.0351e-05
1.0351e-05
1.0351e-05
1.0351e-05
1.0351e-05
1.0351e-05
1.0351e-05
1.0351e-05
1.0351e-05
1.0351e-05
1.0351e-05
1.0351e-05
1.0351e-05
1.03511e-05
1.03511e-05
1.03511e-05
1.03511e-05
1.03511e-05
1.03511e-05
1.03511e-05
1.03511e-05
1.03511e-05
1.03511e-05
1.03511e-05
1.03512e-05
1.03512e-05
1.03512e-05
1.03512e-05
1.03512e-05
1.03512e-05
1.03512e-05
1.03512e-05
1.03512e-05
1.03513e-05
1.03513e-05
1.03513e-05
1.03513e-05
1.03513e-05
1.03513e-05
1.03513e-05
1.03513e-05
1.03513e-05
1.03512e-05
1.03512e-05
1.03512e-05
1.03512e-05
1.03512e-05
1.03512e-05
1.03512e-05
1.03512e-05
1.03511e-05
1.03511e-05
1.03511e-05
1.03511e-05
1.03511e-05
1.03511e-05
1.03511e-05
1.03511e-05
1.0351e-05
1.0351e-05
1.0351e-05
1.0351e-05
1.0351e-05
1.0351e-05
1.0351e-05
1.0351e-05
1.0351e-05
1.0351e-05
1.0351e-05
1.0351e-05
1.0351e-05
1.0351e-05
1.0351e-05
1.0351e-05
1.0351e-05
1.0351e-05
1.0351e-05
1.0351e-05
1.0351e-05
1.0351e-05
1.0351e-05
1.0351e-05
1.0351e-05
1.0351e-05
1.0351e-05
1.0351e-05
1.0351e-05
1.0351e-05
1.0351e-05
1.0351e-05
1.0351e-05
1.0351e-05
1.0351e-05
1.0351e-05
1.0351e-05
1.0351e-05
1.0351e-05
1.0351e-05
1.0351e-05
1.0351e-05
1.0351e-05
1.0351e-05
1.0351e-05
1.0351e-05
1.0351e-05
1.0351e-05
1.0351e-05
1.0351e-05
1.0351e-05
1.0351e-05
1.0351e-05
1.0351e-05
1.03511e-05
1.03511e-05
1.03511e-05
1.03511e-05
1.03511e-05
1.03511e-05
1.03511e-05
1.03512e-05
1.03512e-05
1.03512e-05
1.03512e-05
1.03513e-05
1.03513e-05
1.03513e-05
1.03514e-05
1.03514e-05
1.03515e-05
1.03515e-05
1.03516e-05
1.03517e-05
1.03517e-05
1.03518e-05
1.03519e-05
1.0352e-05
1.03521e-05
1.03522e-05
1.03522e-05
1.03523e-05
1.03524e-05
1.03525e-05
1.03526e-05
1.03527e-05
1.03528e-05
1.03528e-05
1.03529e-05
1.0353e-05
1.0353e-05
1.0353e-05
1.0353e-05
1.0353e-05
1.0353e-05
1.0353e-05
1.03529e-05
1.03529e-05
1.03528e-05
1.03527e-05
1.03526e-05
1.03525e-05
1.03524e-05
1.03522e-05
1.03521e-05
1.0352e-05
1.03519e-05
1.03518e-05
1.03517e-05
1.03516e-05
1.03515e-05
1.03515e-05
1.03514e-05
1.03513e-05
1.03513e-05
1.03512e-05
1.03512e-05
1.03511e-05
1.03511e-05
1.03511e-05
1.03511e-05
1.03511e-05
1.0351e-05
1.0351e-05
1.0351e-05
1.0351e-05
1.0351e-05
1.0351e-05
1.0351e-05
1.0351e-05
1.0351e-05
1.0351e-05
1.0351e-05
1.0351e-05
1.0351e-05
1.0351e-05
1.0351e-05
1.0351e-05
1.0351e-05
1.0351e-05
1.0351e-05
1.0351e-05
1.0351e-05
1.0351e-05
1.0351e-05
1.0351e-05
1.0351e-05
1.0351e-05
1.0351e-05
1.0351e-05
1.0351e-05
1.0351e-05
1.0351e-05
1.0351e-05
1.0351e-05
1.0351e-05
1.03511e-05
1.03511e-05
1.03511e-05
1.03511e-05
1.03511e-05
1.03511e-05
1.03511e-05
1.03512e-05
1.03512e-05
1.03512e-05
1.03513e-05
1.03513e-05
1.03514e-05
1.03514e-05
1.03515e-05
1.03515e-05
1.03516e-05
1.03517e-05
1.03518e-05
1.0352e-05
1.03521e-05
1.03523e-05
1.03525e-05
1.03527e-05
1.03529e-05
1.03531e-05
1.03534e-05
1.03537e-05
1.03541e-05
1.03545e-05
1.03549e-05
1.03554e-05
1.03559e-05
1.03565e-05
1.0357e-05
1.03576e-05
1.03582e-05
1.03588e-05
1.03594e-05
1.03601e-05
1.03607e-05
1.03614e-05
1.0362e-05
1.03627e-05
1.03633e-05
1.03639e-05
1.03645e-05
1.0365e-05
1.03654e-05
1.03657e-05
1.03659e-05
1.0366e-05
1.0366e-05
1.03658e-05
1.03655e-05
1.03651e-05
1.03647e-05
1.03641e-05
1.03634e-05
1.03626e-05
1.03618e-05
1.0361e-05
1.03601e-05
1.03593e-05
1.03584e-05
1.03576e-05
1.03569e-05
1.03562e-05
1.03556e-05
1.0355e-05
1.03544e-05
1.03539e-05
1.03534e-05
1.0353e-05
1.03526e-05
1.03523e-05
1.0352e-05
1.03518e-05
1.03516e-05
1.03515e-05
1.03514e-05
1.03513e-05
1.03512e-05
1.03512e-05
1.03511e-05
1.03511e-05
1.03511e-05
1.0351e-05
1.0351e-05
1.0351e-05
1.0351e-05
1.0351e-05
1.0351e-05
1.0351e-05
1.0351e-05
1.0351e-05
1.0351e-05
1.0351e-05
1.0351e-05
1.0351e-05
1.0351e-05
1.0351e-05
1.0351e-05
1.0351e-05
1.0351e-05
1.0351e-05
1.0351e-05
1.0351e-05
1.0351e-05
1.0351e-05
1.0351e-05
1.0351e-05
1.0351e-05
1.0351e-05
1.0351e-05
1.03514e-05
1.03514e-05
1.03515e-05
1.03516e-05
1.03517e-05
1.03518e-05
1.0352e-05
1.03522e-05
1.03524e-05
1.03526e-05
1.03529e-05
1.03532e-05
1.03535e-05
1.03539e-05
1.03544e-05
1.03549e-05
1.03555e-05
1.03562e-05
1.03571e-05
1.0358e-05
1.0359e-05
1.03601e-05
1.03614e-05
1.03629e-05
1.03645e-05
1.03663e-05
1.03684e-05
1.03707e-05
1.03733e-05
1.03761e-05
1.03792e-05
1.03826e-05
1.03862e-05
1.039e-05
1.0394e-05
1.0398e-05
1.04022e-05
1.04065e-05
1.04109e-05
1.04154e-05
1.042e-05
1.04248e-05
1.04296e-05
1.04344e-05
1.04391e-05
1.04435e-05
1.04475e-05
1.0451e-05
1.0454e-05
1.04563e-05
1.04577e-05
1.04582e-05
1.04579e-05
1.04567e-05
1.04547e-05
1.0452e-05
1.04485e-05
1.04443e-05
1.04395e-05
1.04342e-05
1.04284e-05
1.04223e-05
1.04161e-05
1.04098e-05
1.04038e-05
1.03981e-05
1.03928e-05
1.03879e-05
1.03834e-05
1.03792e-05
1.03752e-05
1.03715e-05
1.0368e-05
1.0365e-05
1.03623e-05
1.036e-05
1.03581e-05
1.03566e-05
1.03554e-05
1.03544e-05
1.03536e-05
1.0353e-05
1.03525e-05
1.03521e-05
1.03518e-05
1.03516e-05
1.03514e-05
1.03513e-05
1.03512e-05
1.03511e-05
1.03511e-05
1.03511e-05
1.0351e-05
1.0351e-05
1.0351e-05
1.0351e-05
1.0351e-05
1.0351e-05
1.0351e-05
1.0351e-05
1.0351e-05
1.0351e-05
1.0351e-05
1.0351e-05
1.0351e-05
1.0351e-05
1.0351e-05
1.0351e-05
1.0351e-05
1.0351e-05
1.0351e-05
1.0351e-05
1.0351e-05
1.0351e-05
1.0351e-05
1.0351e-05
1.03518e-05
1.0352e-05
1.03521e-05
1.03524e-05
1.03526e-05
1.03529e-05
1.03532e-05
1.03536e-05
1.03541e-05
1.03547e-05
1.03553e-05
1.03561e-05
1.03569e-05
1.0358e-05
1.03592e-05
1.03605e-05
1.03621e-05
1.0364e-05
1.03661e-05
1.03685e-05
1.03713e-05
1.03746e-05
1.03784e-05
1.03827e-05
1.03877e-05
1.03934e-05
1.03998e-05
1.04069e-05
1.04148e-05
1.04237e-05
1.04337e-05
1.04449e-05
1.04576e-05
1.0472e-05
1.04881e-05
1.05061e-05
1.05258e-05
1.05473e-05
1.05703e-05
1.05947e-05
1.06202e-05
1.06465e-05
1.06734e-05
1.07009e-05
1.0729e-05
1.07581e-05
1.07883e-05
1.08196e-05
1.08516e-05
1.0884e-05
1.09159e-05
1.09467e-05
1.09756e-05
1.10018e-05
1.10246e-05
1.10434e-05
1.10577e-05
1.10668e-05
1.1069e-05
1.10664e-05
1.10587e-05
1.10459e-05
1.1028e-05
1.10054e-05
1.09783e-05
1.09472e-05
1.09126e-05
1.08749e-05
1.0835e-05
1.07936e-05
1.07518e-05
1.07108e-05
1.0672e-05
1.06363e-05
1.06036e-05
1.05734e-05
1.0545e-05
1.05181e-05
1.04928e-05
1.04694e-05
1.04482e-05
1.04295e-05
1.04135e-05
1.04004e-05
1.03898e-05
1.03814e-05
1.03747e-05
1.03692e-05
1.03648e-05
1.03612e-05
1.03585e-05
1.03564e-05
1.03549e-05
1.03538e-05
1.0353e-05
1.03524e-05
1.03519e-05
1.03516e-05
1.03514e-05
1.03513e-05
1.03512e-05
1.03511e-05
1.03511e-05
1.03511e-05
1.0351e-05
1.0351e-05
1.0351e-05
1.0351e-05
1.0351e-05
1.0351e-05
1.0351e-05
1.0351e-05
1.0351e-05
1.0351e-05
1.0351e-05
1.0351e-05
1.0351e-05
1.0351e-05
1.0351e-05
1.0351e-05
1.0351e-05
1.0351e-05
1.0351e-05
1.03566e-05
1.03576e-05
1.03588e-05
1.03603e-05
1.0362e-05
1.0364e-05
1.03663e-05
1.03691e-05
1.03723e-05
1.0376e-05
1.03804e-05
1.03856e-05
1.03917e-05
1.03987e-05
1.04069e-05
1.04162e-05
1.0427e-05
1.04394e-05
1.04536e-05
1.04701e-05
1.04893e-05
1.05114e-05
1.0537e-05
1.05664e-05
1.05997e-05
1.06373e-05
1.06793e-05
1.07258e-05
1.07772e-05
1.08343e-05
1.08983e-05
1.09705e-05
1.10517e-05
1.11425e-05
1.12431e-05
1.13532e-05
1.14723e-05
1.15992e-05
1.17325e-05
1.18706e-05
1.20118e-05
1.21546e-05
1.22979e-05
1.2442e-05
1.25891e-05
1.27412e-05
1.28987e-05
1.30604e-05
1.32239e-05
1.3386e-05
1.35429e-05
1.36911e-05
1.3827e-05
1.39477e-05
1.40504e-05
1.41334e-05
1.41955e-05
1.42333e-05
1.42387e-05
1.42246e-05
1.41879e-05
1.41285e-05
1.40467e-05
1.39431e-05
1.38185e-05
1.3674e-05
1.35105e-05
1.33293e-05
1.31329e-05
1.29247e-05
1.27089e-05
1.24914e-05
1.22803e-05
1.20831e-05
1.19013e-05
1.1731e-05
1.15684e-05
1.14114e-05
1.12608e-05
1.11185e-05
1.09868e-05
1.08684e-05
1.07656e-05
1.06801e-05
1.06111e-05
1.0556e-05
1.05115e-05
1.04749e-05
1.04449e-05
1.04209e-05
1.04022e-05
1.03882e-05
1.03779e-05
1.03702e-05
1.03646e-05
1.03605e-05
1.03575e-05
1.03554e-05
1.0354e-05
1.0353e-05
1.03523e-05
1.03518e-05
1.03515e-05
1.03513e-05
1.03512e-05
1.03511e-05
1.03511e-05
1.03511e-05
1.0351e-05
1.0351e-05
1.0351e-05
1.0351e-05
1.0351e-05
1.0351e-05
1.0351e-05
1.0351e-05
1.0351e-05
1.0351e-05
1.0351e-05
1.0351e-05
1.0351e-05
1.0351e-05
1.0351e-05
1.03883e-05
1.03953e-05
1.04035e-05
1.04132e-05
1.04246e-05
1.04378e-05
1.04533e-05
1.04713e-05
1.04924e-05
1.05172e-05
1.05462e-05
1.05801e-05
1.06196e-05
1.06652e-05
1.07177e-05
1.07774e-05
1.08454e-05
1.09227e-05
1.10112e-05
1.11129e-05
1.12296e-05
1.1363e-05
1.15141e-05
1.16837e-05
1.18719e-05
1.20784e-05
1.23023e-05
1.2543e-05
1.28017e-05
1.3083e-05
1.3392e-05
1.37316e-05
1.41022e-05
1.45019e-05
1.4927e-05
1.53725e-05
1.58328e-05
1.63011e-05
1.67707e-05
1.72356e-05
1.7691e-05
1.81334e-05
1.85618e-05
1.89813e-05
1.94066e-05
1.98415e-05
2.02814e-05
2.07186e-05
2.11449e-05
2.15523e-05
2.1933e-05
2.22803e-05
2.25882e-05
2.28529e-05
2.30715e-05
2.32424e-05
2.33658e-05
2.34329e-05
2.34329e-05
2.33912e-05
2.3301e-05
2.31637e-05
2.29779e-05
2.27421e-05
2.24568e-05
2.21212e-05
2.17332e-05
2.12915e-05
2.07979e-05
2.02558e-05
1.96704e-05
1.90528e-05
1.84238e-05
1.78129e-05
1.72304e-05
1.66623e-05
1.60928e-05
1.55147e-05
1.49296e-05
1.43448e-05
1.37713e-05
1.32235e-05
1.27198e-05
1.22798e-05
1.19118e-05
1.16079e-05
1.13537e-05
1.11377e-05
1.0955e-05
1.08046e-05
1.06863e-05
1.05966e-05
1.05296e-05
1.04796e-05
1.04422e-05
1.04147e-05
1.03949e-05
1.03809e-05
1.03712e-05
1.03644e-05
1.03598e-05
1.03568e-05
1.03547e-05
1.03534e-05
1.03525e-05
1.03519e-05
1.03516e-05
1.03513e-05
1.03512e-05
1.03511e-05
1.03511e-05
1.0351e-05
1.0351e-05
1.0351e-05
1.0351e-05
1.0351e-05
1.0351e-05
1.0351e-05
1.0351e-05
1.0351e-05
1.0351e-05
1.0351e-05
1.0351e-05
1.05922e-05
1.06366e-05
1.06888e-05
1.07497e-05
1.08202e-05
1.09016e-05
1.09953e-05
1.11036e-05
1.12288e-05
1.13736e-05
1.15406e-05
1.17316e-05
1.19483e-05
1.21918e-05
1.24625e-05
1.27606e-05
1.30876e-05
1.34481e-05
1.38479e-05
1.42914e-05
1.47804e-05
1.53139e-05
1.5889e-05
1.65008e-05
1.71431e-05
1.78087e-05
1.84903e-05
1.91834e-05
1.98926e-05
2.06362e-05
2.14213e-05
2.2243e-05
2.30909e-05
2.39529e-05
2.48173e-05
2.56729e-05
2.65091e-05
2.73159e-05
2.80851e-05
2.88119e-05
2.94942e-05
3.01323e-05
3.073e-05
3.13011e-05
3.19119e-05
3.25465e-05
3.31763e-05
3.37814e-05
3.4349e-05
3.487e-05
3.53368e-05
3.57441e-05
3.60877e-05
3.63703e-05
3.65921e-05
3.67544e-05
3.68652e-05
3.69044e-05
3.6884e-05
3.68161e-05
3.66922e-05
3.65233e-05
3.6304e-05
3.60275e-05
3.56947e-05
3.53018e-05
3.48383e-05
3.42962e-05
3.36724e-05
3.29637e-05
3.21688e-05
3.12875e-05
3.03329e-05
2.93796e-05
2.84764e-05
2.7571e-05
2.66178e-05
2.55937e-05
2.4492e-05
2.33146e-05
2.20694e-05
2.07763e-05
1.94773e-05
1.82409e-05
1.71241e-05
1.61227e-05
1.5207e-05
1.43556e-05
1.35688e-05
1.28675e-05
1.22782e-05
1.18076e-05
1.14396e-05
1.11519e-05
1.09283e-05
1.07588e-05
1.06349e-05
1.05464e-05
1.04839e-05
1.04401e-05
1.04098e-05
1.03894e-05
1.03757e-05
1.03668e-05
1.0361e-05
1.03572e-05
1.03548e-05
1.03533e-05
1.03524e-05
1.03518e-05
1.03515e-05
1.03513e-05
1.03512e-05
1.03511e-05
1.03511e-05
1.0351e-05
1.0351e-05
1.0351e-05
1.0351e-05
1.0351e-05
1.0351e-05
1.0351e-05
1.0351e-05
1.0351e-05
1.0351e-05
1.17694e-05
1.2007e-05
1.22773e-05
1.25819e-05
1.29219e-05
1.32985e-05
1.37152e-05
1.41776e-05
1.4691e-05
1.52583e-05
1.58795e-05
1.65521e-05
1.72718e-05
1.80325e-05
1.88273e-05
1.96499e-05
2.05008e-05
2.13924e-05
2.23339e-05
2.33214e-05
2.43443e-05
2.53896e-05
2.64448e-05
2.74979e-05
2.85377e-05
2.95535e-05
3.05365e-05
3.14843e-05
3.241e-05
3.33926e-05
3.44225e-05
3.5465e-05
3.6491e-05
3.74786e-05
3.84124e-05
3.92817e-05
4.00798e-05
4.08014e-05
4.1446e-05
4.20177e-05
4.25228e-05
4.29684e-05
4.33605e-05
4.37047e-05
4.39992e-05
4.42471e-05
4.44527e-05
4.46203e-05
4.47539e-05
4.48571e-05
4.49302e-05
4.49766e-05
4.49842e-05
4.49722e-05
4.49408e-05
4.48888e-05
4.48218e-05
4.47328e-05
4.46275e-05
4.45189e-05
4.44055e-05
4.42656e-05
4.41105e-05
4.39428e-05
4.3766e-05
4.35677e-05
4.33466e-05
4.31017e-05
4.2831e-05
4.25318e-05
4.22048e-05
4.18431e-05
4.14362e-05
4.09665e-05
4.04195e-05
3.97826e-05
3.90367e-05
3.81685e-05
3.71629e-05
3.60022e-05
3.46629e-05
3.3131e-05
3.14276e-05
2.96497e-05
2.79804e-05
2.63833e-05
2.47837e-05
2.31308e-05
2.14207e-05
1.97096e-05
1.81066e-05
1.66851e-05
1.54414e-05
1.43485e-05
1.33989e-05
1.26086e-05
1.19871e-05
1.15163e-05
1.11653e-05
1.09076e-05
1.07239e-05
1.05971e-05
1.05114e-05
1.04541e-05
1.04164e-05
1.03919e-05
1.03763e-05
1.03664e-05
1.03603e-05
1.03566e-05
1.03543e-05
1.03529e-05
1.03521e-05
1.03516e-05
1.03514e-05
1.03512e-05
1.03511e-05
1.03511e-05
1.0351e-05
1.0351e-05
1.0351e-05
1.0351e-05
1.0351e-05
1.0351e-05
1.0351e-05
1.65734e-05
1.73415e-05
1.8162e-05
1.90283e-05
1.99337e-05
2.08744e-05
2.18551e-05
2.28857e-05
2.39654e-05
2.50847e-05
2.62307e-05
2.73901e-05
2.85507e-05
2.97013e-05
3.08318e-05
3.19353e-05
3.30158e-05
3.41271e-05
3.52882e-05
3.64689e-05
3.76374e-05
3.8769e-05
3.98457e-05
4.08547e-05
4.17874e-05
4.26378e-05
4.34029e-05
4.40852e-05
4.46898e-05
4.52154e-05
4.56723e-05
4.60704e-05
4.64168e-05
4.67164e-05
4.69721e-05
4.71849e-05
4.73556e-05
4.74846e-05
4.75781e-05
4.76474e-05
4.7699e-05
4.77413e-05
4.77745e-05
4.7795e-05
4.78096e-05
4.78116e-05
4.78056e-05
4.77915e-05
4.7768e-05
4.77349e-05
4.76932e-05
4.76416e-05
4.75774e-05
4.75028e-05
4.74161e-05
4.73162e-05
4.72085e-05
4.71029e-05
4.69777e-05
4.68481e-05
4.67253e-05
4.66e-05
4.64719e-05
4.63466e-05
4.61987e-05
4.60327e-05
4.58763e-05
4.57249e-05
4.55532e-05
4.53738e-05
4.51905e-05
4.4994e-05
4.47797e-05
4.45441e-05
4.42927e-05
4.40168e-05
4.37063e-05
4.33593e-05
4.29698e-05
4.25381e-05
4.20523e-05
4.14962e-05
4.08756e-05
4.01543e-05
3.92822e-05
3.82249e-05
3.6944e-05
3.53927e-05
3.35319e-05
3.13914e-05
2.91643e-05
2.70425e-05
2.49859e-05
2.29287e-05
2.08703e-05
1.89046e-05
1.71502e-05
1.56373e-05
1.4346e-05
1.32678e-05
1.24128e-05
1.17721e-05
1.13095e-05
1.09832e-05
1.07593e-05
1.06102e-05
1.05131e-05
1.04509e-05
1.04118e-05
1.03875e-05
1.03727e-05
1.03637e-05
1.03584e-05
1.03553e-05
1.03534e-05
1.03524e-05
1.03518e-05
1.03514e-05
1.03512e-05
1.03511e-05
1.03511e-05
1.0351e-05
1.0351e-05
1.0351e-05
1.0351e-05
2.60095e-05
2.72357e-05
2.84726e-05
2.97075e-05
3.09296e-05
3.213e-05
3.33065e-05
3.44781e-05
3.5694e-05
3.69341e-05
3.817e-05
3.93761e-05
4.05316e-05
4.16213e-05
4.26352e-05
4.35668e-05
4.44122e-05
4.51691e-05
4.58344e-05
4.64134e-05
4.69184e-05
4.73595e-05
4.77446e-05
4.8079e-05
4.8366e-05
4.86087e-05
4.88071e-05
4.89591e-05
4.90769e-05
4.9172e-05
4.92525e-05
4.9321e-05
4.93796e-05
4.94304e-05
4.94742e-05
4.95092e-05
4.95349e-05
4.9545e-05
4.95399e-05
4.95197e-05
4.94827e-05
4.94336e-05
4.93823e-05
4.93291e-05
4.92644e-05
4.91982e-05
4.91353e-05
4.90698e-05
4.90016e-05
4.8932e-05
4.88616e-05
4.87935e-05
4.87243e-05
4.86516e-05
4.85785e-05
4.85024e-05
4.84125e-05
4.83163e-05
4.82215e-05
4.81082e-05
4.79859e-05
4.78701e-05
4.77548e-05
4.76354e-05
4.75195e-05
4.73767e-05
4.7219e-05