/*--------------------------------*- C++ -*----------------------------------*\
| =========                 |                                                 |
| \\      /  F ield         | OpenFOAM: The Open Source CFD Toolbox           |
|  \\    /   O peration     | Version:  v1706                                 |
|   \\  /    A nd           | Web:      www.OpenFOAM.com                      |
|    \\/     M anipulation  |                                                 |
\*---------------------------------------------------------------------------*/
FoamFile
{
    version     2.0;
    format      ascii;
    class       volScalarField;
    location    "1.1e-05";
    object      p;
}
// * * * * * * * * * * * * * * * * * * * * * * * * * * * * * * * * * * * * * //

dimensions      [1 -1 -2 0 0 0 0];


internalField   nonuniform List<scalar> 
29871
(
21.9139
21.9139
21.9139
21.9139
21.9139
21.9139
21.9139
21.9139
21.9139
21.9139
21.9139
21.9139
21.9139
21.9139
21.9139
21.9139
21.9139
21.9139
21.9139
21.9139
21.9139
21.9139
21.9139
21.9139
21.9139
21.9139
21.9139
21.9139
21.9139
21.9139
21.9139
21.9139
21.9139
21.9139
21.9139
21.9139
21.9139
21.9139
21.9139
21.9139
21.9139
21.9139
21.9139
21.9139
21.9139
21.9139
21.9139
21.9139
21.9139
21.9139
21.9139
21.9139
21.9139
21.9139
21.9139
21.9139
21.9139
21.9139
21.9139
21.9139
21.9139
21.9139
21.9139
21.9139
21.9139
21.9139
21.9139
21.9139
21.9139
21.9139
21.9139
21.9139
21.9139
21.9139
21.9139
21.9139
21.9139
21.9139
21.9139
21.9139
21.9139
21.9139
21.9139
21.9139
21.9139
21.9139
21.9139
21.9139
21.9139
21.9139
21.9139
21.9139
21.9139
21.9139
21.9139
21.9139
21.9139
21.9139
21.9139
21.9139
21.9139
21.9139
21.9139
21.9139
21.9139
21.9139
21.9139
21.9139
21.9139
21.9139
21.9139
21.9139
21.9139
21.9139
21.9139
21.9139
21.9139
21.9139
21.9139
21.9139
21.9139
21.9139
21.9139
21.9139
21.9139
21.9139
21.9139
21.9139
21.9139
21.9139
21.9139
21.9139
21.9139
21.9139
21.9139
21.9139
21.9139
21.9139
21.9139
21.9139
21.9139
21.9139
21.9139
21.9139
21.9139
21.9139
21.9139
21.9139
21.9139
21.9139
21.9139
21.9139
21.9139
21.9139
21.9139
21.9139
21.9139
21.9139
21.9139
21.9139
21.9139
21.9139
21.9139
21.9139
21.9139
21.9139
21.9139
21.9139
21.9139
21.9139
21.9139
21.9139
21.9139
21.9139
21.9139
21.9139
21.9139
21.9139
21.9139
21.9139
21.9139
21.9139
21.9139
21.9139
21.9139
21.9139
21.9139
21.9139
21.9139
21.9139
21.9139
21.9139
21.9139
21.9139
21.9139
21.9139
21.9139
21.9139
21.9139
21.9139
21.9139
21.9139
21.9139
21.9139
21.9139
21.9139
21.9139
21.9139
21.9139
21.9139
21.9139
21.9139
21.9139
21.9139
21.9139
21.9139
21.9139
21.9139
21.9139
21.9139
21.9139
21.9139
21.9139
21.9139
21.9139
21.9139
21.9139
21.9139
21.9139
21.9139
21.9139
21.9139
21.9139
21.9139
21.9139
21.9139
21.9139
21.9139
21.9139
21.9139
21.9139
21.9139
21.9139
21.9139
21.9139
21.9139
21.9139
21.9139
21.9139
21.9139
21.9139
21.9139
21.9139
21.9139
21.9139
21.9139
21.9139
21.9139
21.9139
21.9139
21.9139
21.9139
21.9139
21.9139
21.9139
21.9139
21.9139
21.9139
21.9139
21.9139
21.9139
21.9139
21.9139
21.9139
21.9139
21.9139
21.9139
21.9139
21.9139
21.9139
21.9139
21.9139
21.9139
21.9139
21.9139
21.9139
21.9139
21.9139
21.9139
21.9139
21.9139
21.9139
21.9139
21.9139
21.9139
21.9139
21.9139
21.9139
21.9139
21.9139
21.9139
21.9139
21.9139
21.9139
21.9139
21.9139
21.9139
21.9139
21.9139
21.9139
21.9139
21.9139
21.9139
21.9139
21.9139
21.9139
21.9139
21.9139
21.9139
21.9139
21.9139
21.9139
21.9139
21.9139
21.9139
21.9139
21.9139
21.9139
21.9139
21.9139
21.9139
21.9139
21.9139
21.9139
21.9139
21.9139
21.9139
21.9139
21.9139
21.9139
21.9139
21.9139
21.9139
21.9139
21.9139
21.9139
21.9139
21.9139
21.9139
21.9139
21.9139
21.9139
21.9139
21.9139
21.9139
21.9139
21.9139
21.9139
21.9139
21.9139
21.9139
21.9139
21.9139
21.9139
21.9139
21.9139
21.9139
21.9139
21.9139
21.9139
21.9139
21.9139
21.9139
21.9139
21.9139
21.9139
21.9139
21.9139
21.9139
21.9139
21.9139
21.9139
21.9139
21.9139
21.9139
21.9139
21.9139
21.9139
21.9139
21.9139
21.9139
21.9139
21.9139
21.9139
21.9139
21.9139
21.9139
21.9139
21.9139
21.9139
21.9139
21.9139
21.9139
21.9139
21.9139
21.9139
21.9139
21.9139
21.9139
21.9139
21.9139
21.9139
21.9139
21.9139
21.9139
21.9139
21.9139
21.9139
21.9139
21.9139
21.9139
21.9139
21.9139
21.9139
21.9139
21.9139
21.9139
21.9139
21.9139
21.9139
21.9139
21.9139
21.9139
21.9139
21.9139
21.9139
21.9139
21.9139
21.9139
21.9139
21.9139
21.9139
21.9139
21.9139
21.9139
21.9139
21.9139
21.9139
21.9139
21.9139
21.9139
21.9139
21.9139
21.9139
21.9139
21.9139
21.9139
21.9139
21.9139
21.9139
21.9139
21.9139
21.9139
21.9139
21.9139
21.9139
21.9139
21.9139
21.9139
21.9139
21.9139
21.9139
21.9139
21.9139
21.9139
21.9139
21.9139
21.9139
21.9139
21.9139
21.9139
21.9139
21.9139
21.9139
21.9139
21.9139
21.9139
21.9139
21.9139
21.9139
21.9139
21.9139
21.9139
21.9139
21.9139
21.9139
21.9139
21.9139
21.9139
21.9139
21.9139
21.9139
21.9139
21.9139
21.9139
21.9139
21.9139
21.9139
21.9139
21.9139
21.9139
21.9139
21.9139
21.9139
21.9139
21.9139
21.9139
21.9139
21.9139
21.9139
21.9139
21.9139
21.9139
21.9139
21.9139
21.9139
21.9139
21.9139
21.9139
21.9139
21.9139
21.9139
21.9139
21.9139
21.9139
21.9139
21.9139
21.9139
21.9139
21.9139
21.9139
21.9139
21.9139
21.9139
21.9139
21.9139
21.9139
21.9139
21.9139
21.9139
21.9139
21.9139
21.9139
21.9139
21.9139
21.9139
21.9139
21.9139
21.9139
21.9139
21.9139
21.9139
21.9139
21.9139
21.9139
21.9139
21.9139
21.9139
21.9139
21.9139
21.9139
21.9139
21.9139
21.9139
21.9139
21.9139
21.9139
21.9139
21.9139
21.9139
21.9139
21.9139
21.9139
21.9139
21.9139
21.9139
21.9139
21.9139
21.9139
21.9139
21.9139
21.9139
21.9139
21.9139
21.9139
21.9139
21.9139
21.9139
21.9139
21.9139
21.9139
21.9139
21.9139
21.9139
21.9139
21.9139
21.9139
21.9139
21.9139
21.9139
21.9139
21.9139
21.9139
21.9139
21.9139
21.9139
21.9139
21.9139
21.9139
21.9139
21.9139
21.9139
21.9139
21.9139
21.9139
21.9139
21.9139
21.9139
21.9139
21.9139
21.9139
21.9139
21.9139
21.9139
21.9139
21.9139
21.9139
21.9139
21.9139
21.9139
21.9139
21.9139
21.9139
21.9139
21.9139
21.9139
21.9139
21.9139
21.9139
21.9139
21.9139
21.9139
21.9139
21.9139
21.9139
21.9139
21.9139
21.9139
21.9139
21.9139
21.9139
21.9139
21.9139
21.9139
21.9139
21.9139
21.9139
21.9139
21.9139
21.9139
21.9139
21.9139
21.9139
21.9139
21.9139
21.9139
21.9139
21.9139
21.9139
21.9139
21.9139
21.9139
21.9139
21.9139
21.9139
21.9139
21.9139
21.9139
21.9139
21.9139
21.9139
21.9139
21.9139
21.9139
21.9139
21.9139
21.9139
21.9139
21.9139
21.9139
21.9139
21.9139
21.9139
21.9139
21.9139
21.9139
21.9139
21.9139
21.9139
21.9139
21.9139
21.9139
21.9139
21.9139
21.9139
21.9139
21.9139
21.9139
21.9139
21.9139
21.9139
21.9139
21.9139
21.9139
21.9139
21.9139
21.9139
21.9139
21.9139
21.9139
21.9139
21.9139
21.9139
21.9139
21.9139
21.9139
21.9139
21.9139
21.9139
21.9139
21.9139
21.9139
21.9139
21.9139
21.9139
21.9139
21.9139
21.9139
21.9139
21.9139
21.9139
21.9139
21.9139
21.9139
21.9139
21.9139
21.9139
21.9139
21.9139
21.9139
21.9139
21.9139
21.9139
21.9139
21.9139
21.9139
21.9139
21.9139
21.9139
21.9139
21.9139
21.9139
21.9139
21.9139
21.9139
21.9139
21.9139
21.9139
21.9139
21.9139
21.9139
21.9139
21.9139
21.9139
21.9139
21.9139
21.9139
21.9139
21.9139
21.9139
21.9139
21.9139
21.9139
21.9139
21.9139
21.9139
21.9139
21.9139
21.9139
21.9139
21.9139
21.9139
21.9139
21.9139
21.9139
21.9139
21.9139
21.9139
21.9139
21.9139
21.9139
21.9139
21.9139
21.9139
21.9139
21.9139
21.9139
21.9139
21.9139
21.9139
21.9139
21.9139
21.9139
21.9139
21.9139
21.9139
21.9139
21.9139
21.9139
21.9139
21.9139
21.9139
21.9139
21.9139
21.9139
21.9139
21.9139
21.9139
21.9139
21.9139
21.9139
21.9139
21.9139
21.9139
21.9139
21.9139
21.9139
21.9139
21.9139
21.9139
21.9139
21.9139
21.9139
21.9139
21.9139
21.9139
21.9139
21.9139
21.9139
21.9139
21.9139
21.9139
21.9139
21.9139
21.9139
21.9139
21.9139
21.9139
21.9139
21.9139
21.9139
21.9139
21.9139
21.9139
21.9139
21.9139
21.9139
21.9139
21.9139
21.9139
21.9139
21.9139
21.9139
21.9139
21.9139
21.9139
21.9139
21.9139
21.9139
21.9139
21.9139
21.9139
21.9139
21.9139
21.9139
21.9139
21.9139
21.9139
21.9139
21.9139
21.9139
21.9139
21.9139
21.9139
21.9139
21.9139
21.9139
21.9139
21.9139
21.9139
21.9139
21.9139
21.9139
21.9139
21.9139
21.9139
21.9139
21.9139
21.9139
21.9139
21.9139
21.9139
21.9139
21.9139
21.9139
21.9139
21.9139
21.9139
21.9139
21.9139
21.9139
21.9139
21.9139
21.9139
21.9139
21.9139
21.9139
21.9139
21.9139
21.9139
21.9139
21.9139
21.9139
21.9139
21.9139
21.9139
21.9139
21.9139
21.9139
21.9139
21.9139
21.9139
21.9139
21.9139
21.9139
21.9139
21.9139
21.9139
21.9139
21.9139
21.9139
21.9139
21.9139
21.9139
21.9139
21.9139
21.9139
21.9139
21.9139
21.9139
21.9139
21.9139
21.9139
21.9139
21.9139
21.9139
21.9139
21.9139
21.9139
21.9139
21.9139
21.9139
21.9139
21.9139
21.9139
21.9139
21.9139
21.9139
21.9139
21.9139
21.9139
21.9139
21.9139
21.9139
21.9139
21.9139
21.9139
21.9139
21.9139
21.9139
21.9139
21.9139
21.9139
21.9139
21.9139
21.9139
21.9139
21.9139
21.9139
21.9139
21.9139
21.9139
21.9139
21.9139
21.9139
21.9139
21.9139
21.9139
21.9139
21.9139
21.9139
21.9139
21.9139
21.9139
21.9139
21.9139
21.9139
21.9139
21.9139
21.9139
21.9139
21.9139
21.9139
21.9139
21.9139
21.9139
21.9139
21.9139
21.9139
21.9139
21.9139
21.9139
21.9139
21.9139
21.9139
21.9139
21.9139
21.9139
21.9139
21.9139
21.9139
21.9139
21.9139
21.9139
21.9139
21.9139
21.9139
21.9139
21.9139
21.9139
21.9139
21.9139
21.9139
21.9139
21.9139
21.9139
21.9139
21.9139
21.9139
21.9139
21.9139
21.9139
21.9139
21.9139
21.9139
21.9139
21.9139
21.9139
21.9139
21.9139
21.9139
21.9139
21.9139
21.9139
21.9139
21.9139
21.9139
21.9139
21.9139
21.9139
21.9139
21.9139
21.9139
21.9139
21.9139
21.9139
21.9139
21.9139
21.9139
21.9139
21.9139
21.9139
21.9139
21.9139
21.9139
21.9139
21.9139
21.9139
21.9139
21.9139
21.9139
21.9139
21.9139
21.9139
21.9139
21.9139
21.9139
21.9139
21.9139
21.9139
21.9139
21.9139
21.9139
21.9139
21.9139
21.9139
21.9139
21.9139
21.9139
21.9139
21.9139
21.9139
21.9139
21.9139
21.9139
21.9139
21.9139
21.9139
21.9139
21.9139
21.9139
21.9139
21.9139
21.9139
21.9139
21.9139
21.9139
21.9139
21.9139
21.9139
21.9139
21.9139
21.9139
21.9139
21.9139
21.9139
21.9139
21.9139
21.9139
21.9139
21.9139
21.9139
21.9139
21.9139
21.9139
21.9139
21.9139
21.9139
21.9139
21.9139
21.9139
21.9139
21.9139
21.9139
21.9139
21.9139
21.9139
21.9139
21.9139
21.9139
21.9139
21.9139
21.9139
21.9139
21.9139
21.9139
21.9139
21.9139
21.9139
21.9139
21.9139
21.9139
21.9139
21.9139
21.9139
21.9139
21.9139
21.9139
21.9139
21.9139
21.9139
21.9139
21.9139
21.9139
21.9139
21.9139
21.9139
21.9139
21.9139
21.9139
21.9139
21.9139
21.9139
21.9139
21.9139
21.9139
21.9139
21.9139
21.9139
21.914
21.914
21.914
21.914
21.914
21.914
21.914
21.914
21.914
21.914
21.914
21.914
21.914
21.914
21.914
21.914
21.914
21.914
21.914
21.914
21.914
21.914
21.914
21.914
21.914
21.914
21.914
21.914
21.914
21.914
21.914
21.9139
21.9139
21.9139
21.9139
21.9139
21.9139
21.9139
21.9139
21.9139
21.9139
21.9139
21.9139
21.9139
21.9139
21.9139
21.9139
21.9139
21.9139
21.9139
21.9139
21.9139
21.9139
21.9139
21.9139
21.9139
21.9139
21.9139
21.9139
21.9139
21.9139
21.9139
21.9139
21.9139
21.9139
21.9139
21.9139
21.9139
21.9139
21.9139
21.9139
21.9139
21.9139
21.9139
21.9139
21.9139
21.9139
21.9139
21.9139
21.9139
21.9139
21.9139
21.9139
21.9139
21.9139
21.9139
21.9139
21.9139
21.9139
21.9139
21.9139
21.9139
21.9139
21.9139
21.9139
21.914
21.914
21.914
21.914
21.914
21.914
21.914
21.914
21.9141
21.9141
21.9141
21.9141
21.9142
21.9142
21.9142
21.9142
21.9143
21.9143
21.9144
21.9144
21.9144
21.9145
21.9145
21.9145
21.9146
21.9146
21.9147
21.9147
21.9147
21.9147
21.9148
21.9148
21.9148
21.9148
21.9148
21.9147
21.9147
21.9147
21.9147
21.9146
21.9146
21.9145
21.9145
21.9144
21.9144
21.9143
21.9143
21.9143
21.9142
21.9142
21.9141
21.9141
21.9141
21.914
21.914
21.914
21.914
21.914
21.9139
21.9139
21.9139
21.9139
21.9139
21.9139
21.9139
21.9139
21.9139
21.9139
21.9139
21.9139
21.9139
21.9139
21.9139
21.9139
21.9139
21.9139
21.9139
21.9139
21.9139
21.9139
21.9139
21.9139
21.9139
21.9139
21.9139
21.9139
21.9139
21.9139
21.9139
21.9139
21.9139
21.9139
21.9139
21.9139
21.9139
21.9139
21.9139
21.9139
21.9139
21.914
21.914
21.914
21.914
21.914
21.914
21.914
21.9141
21.9141
21.9141
21.9141
21.9142
21.9142
21.9143
21.9143
21.9144
21.9144
21.9145
21.9146
21.9147
21.9148
21.9149
21.9151
21.9152
21.9154
21.9156
21.9158
21.916
21.9162
21.9165
21.9167
21.917
21.9173
21.9175
21.9178
21.9181
21.9184
21.9187
21.919
21.9192
21.9195
21.9197
21.9199
21.9201
21.9203
21.9204
21.9204
21.9204
21.9203
21.9202
21.9201
21.9198
21.9196
21.9193
21.919
21.9186
21.9183
21.9179
21.9175
21.9172
21.9168
21.9165
21.9162
21.9159
21.9157
21.9154
21.9152
21.915
21.9148
21.9146
21.9145
21.9143
21.9142
21.9142
21.9141
21.9141
21.914
21.914
21.914
21.9139
21.9139
21.9139
21.9139
21.9139
21.9139
21.9139
21.9139
21.9139
21.9139
21.9139
21.9139
21.9139
21.9139
21.9139
21.9139
21.9139
21.9139
21.9139
21.9139
21.9139
21.9139
21.9139
21.9139
21.9139
21.9139
21.9139
21.9139
21.9139
21.9139
21.9139
21.9141
21.9141
21.9141
21.9142
21.9142
21.9143
21.9143
21.9144
21.9145
21.9146
21.9147
21.9148
21.915
21.9152
21.9154
21.9156
21.9159
21.9162
21.9165
21.9169
21.9174
21.9179
21.9185
21.9191
21.9198
21.9206
21.9215
21.9225
21.9236
21.9249
21.9262
21.9277
21.9293
21.931
21.9328
21.9346
21.9365
21.9385
21.9404
21.9424
21.9445
21.9466
21.9486
21.9507
21.9527
21.9546
21.9563
21.9579
21.9592
21.9602
21.9609
21.9611
21.961
21.9606
21.9597
21.9585
21.957
21.9552
21.9531
21.9508
21.9482
21.9456
21.9429
21.9402
21.9375
21.935
21.9327
21.9306
21.9286
21.9266
21.9248
21.9232
21.9216
21.9202
21.919
21.918
21.9171
21.9164
21.9159
21.9154
21.9151
21.9148
21.9146
21.9144
21.9143
21.9142
21.9141
21.914
21.914
21.914
21.9139
21.9139
21.9139
21.9139
21.9139
21.9139
21.9139
21.9139
21.9139
21.9139
21.9139
21.9139
21.9139
21.9139
21.9139
21.9139
21.9139
21.9139
21.9139
21.9139
21.9139
21.9139
21.9139
21.9139
21.9139
21.9151
21.9153
21.9155
21.9158
21.9161
21.9165
21.917
21.9175
21.9181
21.9189
21.9197
21.9206
21.9217
21.9229
21.9244
21.9261
21.928
21.9302
21.9327
21.9356
21.9388
21.9424
21.9464
21.9509
21.956
21.9617
21.9681
21.9753
21.9833
21.9921
22.0018
22.0122
22.0234
22.0352
22.0476
22.0603
22.0734
22.0868
22.1005
22.1147
22.1293
22.1443
22.1595
22.1746
22.1893
22.2033
22.2162
22.2275
22.237
22.2444
22.2492
22.251
22.2501
22.2467
22.2407
22.2323
22.2214
22.2084
22.1935
22.1768
22.1588
22.1398
22.1202
22.1005
22.0814
22.0632
22.0465
22.0311
22.0169
22.0035
21.9909
21.9791
21.9683
21.9585
21.95
21.9427
21.9367
21.9319
21.928
21.9249
21.9223
21.9203
21.9187
21.9174
21.9164
21.9157
21.9152
21.9148
21.9145
21.9143
21.9142
21.9141
21.914
21.914
21.914
21.9139
21.9139
21.9139
21.9139
21.9139
21.9139
21.9139
21.9139
21.9139
21.9139
21.9139
21.9139
21.9139
21.9139
21.9139
21.9139
21.9139
21.9139
21.9139
21.9139
21.9139
21.9164
21.9169
21.9174
21.9181
21.9189
21.9198
21.9208
21.9221
21.9235
21.9252
21.9272
21.9296
21.9323
21.9355
21.9392
21.9435
21.9484
21.9541
21.9607
21.9683
21.977
21.9872
21.9989
22.0123
22.0277
22.0452
22.0649
22.0869
22.1115
22.139
22.1698
22.2047
22.2443
22.289
22.3394
22.3955
22.4573
22.5247
22.597
22.6737
22.754
22.8372
22.9224
23.0095
23.0988
23.1912
23.287
23.3861
23.4876
23.5901
23.6914
23.7893
23.8814
23.9652
24.0386
24.0995
24.1465
24.1768
24.1852
24.178
24.1546
24.1145
24.0584
23.9868
23.9012
23.8027
23.693
23.5737
23.4472
23.3162
23.1839
23.0546
22.9325
22.8199
22.7168
22.6211
22.531
22.4458
22.3657
22.2915
22.2243
22.1649
22.1141
22.072
22.0382
22.0113
21.9897
21.9722
21.9581
21.9468
21.9381
21.9315
21.9266
21.923
21.9203
21.9184
21.917
21.916
21.9153
21.9148
21.9145
21.9143
21.9142
21.9141
21.914
21.914
21.9139
21.9139
21.9139
21.9139
21.9139
21.9139
21.9139
21.9139
21.9139
21.9139
21.9139
21.9139
21.9139
21.9139
21.9139
21.9139
21.9139
21.9311
21.9343
21.9381
21.9426
21.9479
21.954
21.9613
21.9698
21.9797
21.9913
22.0049
22.0209
22.0395
22.0612
22.0863
22.1153
22.1485
22.1866
22.2306
22.2815
22.3407
22.4094
22.4889
22.5803
22.6845
22.8022
22.9339
23.0801
23.2421
23.4227
23.6254
23.8542
24.1122
24.4015
24.7232
25.0773
25.4624
25.8758
26.3138
26.7715
27.2439
27.7263
28.2151
28.7104
29.2202
29.7521
30.3088
30.8874
31.4797
32.074
32.6563
33.2123
33.7282
34.1914
34.5908
34.9176
35.1665
35.3254
35.3622
35.3188
35.19
34.9747
34.6746
34.292
33.8314
33.298
32.6967
32.0344
31.3212
30.5713
29.8009
29.0305
28.2892
27.6045
26.9813
26.405
25.8599
25.3387
24.8426
24.3774
23.9501
23.5683
23.2389
22.9658
22.7459
22.5701
22.4278
22.3112
22.2155
22.1386
22.0788
22.0338
22.0004
21.9758
21.9577
21.9445
21.935
21.9283
21.9236
21.9204
21.9182
21.9167
21.9157
21.915
21.9146
21.9143
21.9142
21.9141
21.914
21.914
21.9139
21.9139
21.9139
21.9139
21.9139
21.9139
21.9139
21.9139
21.9139
21.9139
21.9139
21.9139
21.9139
22.0286
22.0502
22.0756
22.1055
22.1404
22.1812
22.2287
22.2842
22.3492
22.4255
22.5151
22.6202
22.7429
22.8852
23.0491
23.2367
23.4506
23.695
23.9757
24.2992
24.672
25.0999
25.5876
26.139
26.7564
27.4408
28.1917
29.0094
29.8997
30.8816
31.9778
33.2056
34.5738
36.0827
37.7251
39.4884
41.355
43.3022
45.305
47.3392
49.3831
51.4184
53.437
55.4582
57.5342
59.6754
61.8608
64.06
66.2412
68.3709
70.4124
72.3279
74.078
75.6294
76.9515
78.0218
78.8309
79.3288
79.4334
79.261
78.8095
78.0771
77.0567
75.7483
74.1643
72.3128
70.1961
67.8273
65.2361
62.4557
59.5279
56.5378
53.5975
50.8041
48.1757
45.6554
43.1886
40.7549
38.364
36.0436
33.8324
31.7766
29.9314
28.3551
27.0653
26.0226
25.1672
24.4529
23.8564
23.3705
22.9904
22.7028
22.4883
22.3278
22.2079
22.1194
22.0555
22.0104
21.979
21.9574
21.9426
21.9326
21.926
21.9216
21.9188
21.9169
21.9158
21.915
21.9146
21.9143
21.9141
21.914
21.914
21.9139
21.9139
21.9139
21.9139
21.9139
21.9139
21.9139
21.9139
21.9139
21.9139
22.6554
22.793
22.955
23.1447
23.3655
23.6214
23.9176
24.2611
24.6607
25.1255
25.6646
26.2862
26.9977
27.8054
28.7145
29.7304
30.8618
32.1299
33.5641
35.1917
37.0326
39.0983
41.3921
43.9099
46.6409
49.568
52.6702
55.9369
59.3992
63.1367
67.1864
71.5412
76.1793
81.0801
86.2223
91.5785
97.1094
102.763
108.484
114.224
119.947
125.626
131.252
136.86
143.348
150.756
158.842
167.358
176.073
184.767
193.222
201.247
208.668
215.378
221.236
226.12
230.047
232.808
234.351
234.421
233.177
231.066
227.866
223.446
217.906
211.305
203.559
194.671
184.788
174.076
162.733
150.97
139.201
128.711
119.954
112.002
104.237
96.4479
88.6359
80.8822
73.2848
65.9795
59.1822
53.1383
47.9582
43.517
39.634
36.1858
33.1344
30.5152
28.3845
26.7312
25.4716
24.5096
23.7758
23.227
22.828
22.5438
22.3428
22.2017
22.1041
22.0379
21.9939
21.965
21.9462
21.9341
21.9264
21.9215
21.9185
21.9166
21.9155
21.9148
21.9144
21.9142
21.9141
21.914
21.914
21.9139
21.9139
21.9139
21.9139
21.9139
21.9139
21.9139
21.9139
26.3981
27.1791
28.0777
29.1035
30.2654
31.5745
33.0494
34.7206
36.6215
38.7812
41.2211
43.9542
46.9858
50.3139
53.9308
57.8276
62.0316
66.6119
71.6218
77.0653
82.9256
89.1883
95.8477
102.899
110.329
118.117
126.23
134.658
143.45
153.813
166.134
180.353
196.301
213.768
232.541
252.427
273.226
294.682
316.534
338.579
360.638
382.56
404.213
425.576
445.628
464.023
480.77
495.982
509.751
522.11
532.914
542.111
549.6
555.631
560.103
563.268
565.431
565.975
565.255
564.259
562.586
559.245
554.552
548.891
542.86
535.648
526.903
516.584
504.792
491.556
476.954
460.756
442.726
421.974
398.071
371.555
342.947
312.981
282.257
251.244
220.358
190.215
161.871
137.501
119.004
104.397
91.8754
80.5215
70.0848
60.7255
52.7312
46.1409
40.7244
36.2351
32.5372
29.5978
27.3732
25.7426
24.5609
23.7126
23.1165
22.7078
22.4319
22.2474
22.1255
22.0462
21.9957
21.9639
21.9442
21.9321
21.9247
21.9202
21.9176
21.916
21.9151
21.9146
21.9143
21.9141
21.914
21.914
21.9139
21.9139
21.9139
21.9139
21.9139
43.9077
47.1062
50.6629
54.5825
58.8636
63.5213
68.6075
74.19
80.2872
86.8832
93.9589
101.508
109.536
118.052
127.063
136.59
146.628
158.043
171.647
187.603
205.861
226.302
248.788
273.165
299.268
326.885
355.755
385.648
416.368
446.564
475.73
503.81
530.772
556.508
580.853
603.558
624.471
643.195
659.647
674.257
687.348
699.519
710.883
721.216
730.868
739.679
747.384
753.993
759.579
764.21
768.086
770.91
772.564
773.273
772.941
771.135
768.568
766.329
762.596
758.195
754.518
750.794
747.312
744.738
740.666
734.65
729.486
725.151
719.402
713.156
706.661
699.074
689.844
678.312
664.648
648.383
629.344
608.184
584.759
559.175
530.685
498.906
465.108
427.752
385.427
340.259
294.493
249.429
206.115
166.687
135.097
112.051
94.3703
79.7578
67.2807
56.8139
48.3611
41.6334
36.2767
32.07
28.9032
26.6306
25.0476
23.9627
23.2323
22.7506
22.4379
22.2374
22.1106
22.032
21.984
21.9551
21.938
21.9278
21.9218
21.9184
21.9164
21.9153
21.9147
21.9143
21.9141
21.914
21.914
21.9139
21.9139
91.9902
99.859
108.248
117.162
126.618
136.652
147.299
158.855
172.408
188.343
206.803
227.794
251.234
277.005
304.978
334.998
366.848
400.33
434.404
468.046
500.961
533.022
564.114
594.07
622.59
649.481
674.397
696.749
716.725
734.775
751.336
766.481
780.157
792.6
803.982
814.26
823.345
830.982
837.19
841.326
843.167
843.327
842.872
841.583
839.105
836.137
833.67
830.986
827.822
824.242
820.561
817.402
814.327
811.107
808.458
806.174
802.978
799.631
797.119
793.321
788.605
784.59
780.785
777.466
775.218
771.068
764.912
760.081
756.42
751.552
745.72
740.573
735.736
729.145
721.463
714.992
710
706.303
699.849
692.021
685.196
679.925
676.758
670.007
657.614
639.068
614.593
584.655
549.111
507.571
462.747
413.533
358.559
300.944
244.312
192.071
149.03
118.38
96.2437
79.0301
65.0507
53.838
45.0868
38.3363
33.2024
29.4425
26.8178
25.0488
23.8835
23.1323
22.6574
22.3615
22.1794
22.0693
22.0038
21.9654
21.9432
21.9305
21.9232
21.919
21.9167
21.9154
21.9147
21.9143
21.9141
21.914
211.549
232.994
257.113
283.828
313.017
344.544
378.234
413.621
449.416
485.032
520.125
554.465
587.828
620.001
650.694
679.715
706.548
730.773
752.493
772.018
789.722
805.726
820.3
833.487
845.489
856.231
865.779
873.098
877.523
880.135
881.518
881.934
881.201
880.016
878.55
876.954
875.139
873.08
872.344
872.31
872.518
872.059
871.145
869.453
866.119
862.434
859.182
855.685
851.636
847.045
842.34
838.058
833.765
829.213
825.461
822.091
817.599
813.26
810.201
806.126
800.757
796.492
793.02
790.158
788.388
783.944
777.998
773.577
770.705
766.217
760.635
756.312
752.826
746.994
740.474
735.376
731.431
729.131
723.574
716.895
711.244
707.056
705.214
699.703
690.078
680.971
673.973
667.489
661.959
659.457
653.692
640.777
617.037
582.473
537.822
486.122
430.475
368.752
303.331
238.584
180.502
136.409
106.28
84.7401
68.2456
55.4079
45.5822
38.165
32.6947
28.8419
26.2593
24.5872
23.5314
22.8788
22.4819
22.2435
22.1025
22.0206
21.9738
21.9473
21.9324
21.924
21.9194
21.9169
21.9155
21.9147
21.9143
21.9141
513.385
549.92
585.597
620.127
653.23
684.677
714.167
741.063
765.14
786.632
805.912
823.333
839.052
853.344
866.281
877.886
887.996
895.534
900.082
903.204
905.219
906.492
907.089
906.716
906.218
905.491
905.308
906.117
907.85
909.74
910.696
910.221
908.966
906.886
904.343
901.463
898.067
894.316
890.979
888.334
885.747
883.153
880.991
877.9
873.254
868.401
863.88
859.101
853.778
848.123
842.619
837.23
831.535
825.817
820.987
816.367
810.676
805.621
801.954
797.222
791.264
787.101
784.014
781.641
779.64
774.284
768.649
764.651
762.096
758.559
753.276
748.913
745.366
741.034
736.366
732.118
728.797
727.376
725.103
721.681
718.248
716.253
715.633
712.182
706.358
700.78
695.874
691.102
687.569
686.445
682.284
673.046
663.034
655.225
650.246
646.507
635.992
614.429
577.829
527.032
468.591
403.029
330.864
257.562
191.066
140.522
106.751
83.3904
66.0554
52.9531
43.1532
35.9494
30.8544
27.4415
25.2559
23.8982
23.0749
22.5842
22.2957
22.1284
22.0331
21.9797
21.95
21.9336
21.9246
21.9197
21.917
21.9155
807.389
827.085
844.779
860.631
874.927
887.765
899.074
908.29
914.363
918.276
921.201
923.221
924.631
925.327
925.579
925.642
926.275
928.248
931.086
933.61
935.003
935.61
935.096
933.852
932.015
929.609
926.923
924.634
922.908
921.628
920.264
918.093
915.152
911.601
907.661
903.431
898.856
894.035
889.058
884.382
879.898
876.143
873.106
869.333
864.848
860.729
856.561
851.809
846.517
841.097
835.775
830.301
824.485
818.789
813.558
808.129
802.005
796.951
792.587
787.265
780.93
776.598
773.608
771.597
768.209
762.232
757.169
753.339
750.309
748.067
743.854
738.993
734.906
731.085
727.207
723.298
720.028
718.021
716.386
714.284
711.978
710.179
708.502
705.978
702.779
699.605
696.982
695.007
694.724
696.321
694.745
689.541
683.819
678.245
675.455
673.005
665.999
657.717
650.993
647.092
639.365
622.465
588.774
537.639
476.601
406.404
327.889
248.605
179.347
130.099
98.04
75.8941
59.6475
47.631
38.8429
32.6231
28.4606
25.8169
24.1965
23.229
22.6619
22.3338
22.1466
22.0417
21.9837
21.952
21.9346
21.9251
933.902
936.86
938.909
940.429
941.183
941.557
942.126
943.741
946.782
949.798
952.128
953.334
953.835
953.301
952.144
950.393
948.267
946.472
945.418
944.614
943.45
941.864
939.571
936.798
933.623
930.156
926.517
922.714
919.092
915.919
913.255
910.662
907.802
904.632
901.121
897.221
892.913
888.298
883.418
878.364
873.34
868.908
864.762
860.281
855.978
852.084
847.9
843.166
838.16
833.148
828.038
822.641
817.025
811.523
806.079
800.281
794.314
789.161
784.242
778.68
772.32
767.746
764.608
762.006
757.549
751.748
747.125
743.359
740.038
737.749
735.045
730.219
725.718
721.886
718.157
714.458
711.335
709.123
707.421
705.707
703.906
702.07
700.047
697.796
695.437
693.157
691.241
690.12
690.284
690.788
689.859
688.156
686.128
683.986
683.631
684.5
682.374
677.895
674.236
672.404
666.207
658.488
652.64
648.936
640.604
621.542
582.934
527.544
461.364
383.015
297.234
215.742
152.207
111.086
84.1925
65.1632
51.2717
41.1643
34.0202
29.2513
26.2442
24.42
23.3431
22.7193
22.3623
22.1608
22.049
21.9877
21.9543
968.324
969.452
969.939
969.299
968.045
966.245
964.266
962.878
961.983
960.992
959.624
957.828
955.528
952.92
950.09
947.14
943.991
941.048
938.543
936.411
934.465
932.376
930.002
927.292
924.273
920.986
917.403
913.651
909.972
906.541
903.323
900.209
897.066
893.728
890.064
886.044
881.726
877.114
872.198
867.187
862.327
857.447
852.567
848.105
843.854
839.35
834.618
829.91
825.168
820.184
814.946
809.644
804.346
798.835
793.05
787.426
782.136
776.803
771.259
765.293
760.435
756.983
753.645
748.773
743.288
738.881
735.151
731.749
729.048
726.893
722.641
718.062
714.158
710.485
706.871
703.806
701.575
699.827
698.176
696.474
694.646
692.65
690.558
688.496
686.603
685.093
684.268
684.098
683.88
683.283
682.594
681.83
681.227
681.439
682.089
681.908
680.867
680.699
681.986
681.122
677.887
675.827
673.712
666.919
659.984
656.58
651.82
639.956
610.996
562.134
499.477
422.919
333.958
244.539
170.448
121.504
90.58
69.3504
54.0226
42.9098
35.0654
29.844
26.5706
24.5976
23.4399
22.7727
22.3923
22.1782
976.449
974.673
972.544
970.089
967.392
964.566
961.619
958.617
955.98
953.744
951.812
949.957
947.988
945.826
943.472
940.952
938.183
935.293
932.461
929.836
927.45
925.184
922.884
920.421
917.727
914.769
911.523
908.018
904.355
900.666
897.056
893.575
890.165
886.698
883.055
879.184
875.076
870.691
866.01
861.144
856.151
851.016
845.955
841.153
836.402
831.55
826.766
822.112
817.358
812.387
807.345
802.332
797.154
791.656
786.134
780.833
775.352
769.663
764.406
759.208
754.1
750.176
746.413
741.54
736.331
731.995
728.24
724.801
721.74
719.227
715.772
711.551
707.688
704.071
700.517
697.458
695.192
693.411
691.749
690.048
688.255
686.365
684.437
682.58
680.936
679.676
678.908
678.47
678.054
677.612
677.248
677.049
677.152
677.554
677.931
678.062
678.307
679.43
681.106
681.829
681.887
683.216
684.644
682.97
680.717
680.277
675.924
669.127
665.643
663.364
654.345
630.365
586.337
526.561
451
359.763
264.755
183.65
128.985
95.1856
72.4478
56.1206
44.2834
35.924
30.3668
26.8902
24.7952
23.5633
965.933
963.74
961.559
959.293
956.951
954.491
951.878
949.264
946.787
944.547
942.505
940.562
938.602
936.556
934.377
932.011
929.469
926.807
924.131
921.533
919.033
916.581
914.092
911.486
908.695
905.668
902.388
898.875
895.192
891.441
887.704
883.998
880.281
876.495
872.596
868.539
864.262
859.747
855.017
850.068
844.948
839.829
834.766
829.669
824.589
819.676
814.849
809.915
804.917
800.034
795.158
789.966
784.546
779.416
774.364
768.536
762.58
758.025
753.534
748.327
743.895
739.953
735.25
730.301
726.006
722.201
718.699
715.482
712.531
709.302
705.587
701.98
698.488
695.051
692.046
689.715
687.847
686.134
684.422
682.667
680.879
679.104
677.436
675.995
674.898
674.161
673.662
673.277
672.993
672.877
673.022
673.434
673.927
674.29
674.63
675.395
676.837
678.481
679.825
681.36
683.631
685.484
686.166
687.525
690.053
689.881
687.782
687.929
686.163
680.799
678.355
677.239
669.126
646.429
604.941
546.727
470.67
377.028
277.849
192.345
134.168
98.6911
75.0651
58.0731
45.6931
36.9098
31.0459
955.511
953.416
951.379
949.355
947.286
945.119
942.869
940.594
938.376
936.261
934.245
932.281
930.314
928.285
926.141
923.847
921.401
918.84
916.221
913.608
910.999
908.378
905.703
902.914
899.954
896.792
893.402
889.799
886.041
882.192
878.296
874.366
870.399
866.373
862.247
857.972
853.522
848.878
844.023
839.003
833.903
828.731
823.49
818.296
813.224
808.164
803.043
798.014
793.172
788.256
782.967
777.691
772.907
767.995
761.982
755.974
751.956
747.827
742.757
737.848
733.873
729.434
724.781
720.545
716.713
713.169
709.841
706.646
703.403
700.044
696.694
693.349
690.119
687.241
684.867
682.89
681.103
679.372
677.655
675.959
674.328
672.835
671.573
670.612
669.946
669.508
669.242
669.147
669.271
669.651
670.223
670.816
671.338
671.968
673.022
674.536
676.205
677.946
680.054
682.434
684.505
686.478
689.156
691.859
693.284
694.903
698.073
699.412
698.617
699.649
698.92
694.952
694.377
693.916
685.412
662.067
621.616
563.343
485.364
388.924
286.69
198.75
138.633
102.312
78.1771
60.6575
47.7529
38.4972
948.62
946.569
944.611
942.712
940.826
938.906
936.924
934.881
932.807
930.74
928.707
926.705
924.719
922.71
920.636
918.459
916.151
913.708
911.15
908.514
905.826
903.097
900.316
897.454
894.47
891.328
887.995
884.451
880.729