/*--------------------------------*- C++ -*----------------------------------*\
| =========                 |                                                 |
| \\      /  F ield         | OpenFOAM: The Open Source CFD Toolbox           |
|  \\    /   O peration     | Version:  v1706                                 |
|   \\  /    A nd           | Web:      www.OpenFOAM.com                      |
|    \\/     M anipulation  |                                                 |
\*---------------------------------------------------------------------------*/
FoamFile
{
    version     2.0;
    format      ascii;
    class       volScalarField;
    location    "1.1e-05";
    object      rho;
}
// * * * * * * * * * * * * * * * * * * * * * * * * * * * * * * * * * * * * * //

dimensions      [1 -3 0 0 0 0 0];


internalField   nonuniform List<scalar> 
29871
(
0.000511309
0.000511309
0.000511309
0.000511309
0.000511309
0.000511309
0.000511309
0.000511309
0.000511309
0.000511309
0.000511309
0.000511309
0.000511309
0.000511309
0.000511309
0.000511309
0.000511309
0.000511309
0.000511309
0.000511309
0.000511309
0.000511309
0.000511309
0.000511309
0.000511309
0.000511309
0.000511309
0.000511309
0.000511309
0.000511309
0.000511309
0.000511309
0.000511309
0.000511309
0.000511309
0.000511309
0.000511309
0.000511309
0.000511309
0.000511309
0.000511309
0.000511309
0.000511309
0.000511309
0.000511309
0.000511309
0.000511309
0.000511309
0.000511309
0.000511309
0.000511309
0.000511309
0.000511309
0.000511309
0.000511309
0.000511309
0.000511309
0.000511309
0.000511309
0.000511309
0.000511309
0.000511309
0.000511309
0.000511309
0.000511309
0.000511309
0.000511309
0.000511309
0.000511309
0.000511309
0.000511309
0.000511309
0.000511309
0.000511309
0.000511309
0.000511309
0.000511309
0.000511309
0.000511309
0.000511309
0.000511309
0.000511309
0.000511309
0.000511309
0.000511309
0.000511309
0.000511309
0.000511309
0.000511309
0.000511309
0.000511309
0.000511309
0.000511309
0.000511309
0.000511309
0.000511309
0.000511309
0.000511309
0.000511309
0.000511309
0.000511309
0.000511309
0.000511309
0.000511309
0.000511309
0.000511309
0.000511309
0.000511309
0.000511309
0.000511309
0.000511309
0.000511309
0.000511309
0.000511309
0.000511309
0.000511309
0.000511309
0.000511309
0.000511309
0.000511309
0.000511309
0.000511309
0.000511309
0.000511309
0.000511309
0.000511309
0.000511309
0.000511309
0.000511309
0.000511309
0.000511309
0.000511309
0.000511309
0.000511309
0.000511309
0.000511309
0.000511309
0.000511309
0.000511309
0.000511309
0.000511309
0.000511309
0.000511309
0.000511309
0.000511309
0.000511309
0.000511309
0.000511309
0.000511309
0.000511309
0.000511309
0.000511309
0.000511309
0.000511309
0.000511309
0.000511309
0.000511309
0.000511309
0.000511309
0.000511309
0.000511309
0.000511309
0.000511309
0.000511309
0.000511309
0.000511309
0.000511309
0.000511309
0.000511309
0.000511309
0.000511309
0.000511309
0.000511309
0.000511309
0.000511309
0.000511309
0.000511309
0.000511309
0.000511309
0.000511309
0.000511309
0.000511309
0.000511309
0.000511309
0.000511309
0.000511309
0.000511309
0.000511309
0.000511309
0.000511309
0.000511309
0.000511309
0.000511309
0.000511309
0.000511309
0.000511309
0.000511309
0.000511309
0.000511309
0.000511309
0.000511309
0.000511309
0.000511309
0.000511309
0.000511309
0.000511309
0.000511309
0.000511309
0.000511309
0.000511309
0.000511309
0.000511309
0.000511309
0.000511309
0.000511309
0.000511309
0.000511309
0.000511309
0.000511309
0.000511309
0.000511309
0.000511309
0.000511309
0.000511309
0.000511309
0.000511309
0.000511309
0.000511309
0.000511309
0.000511309
0.000511309
0.000511309
0.000511309
0.000511309
0.000511309
0.000511309
0.000511309
0.000511309
0.000511309
0.000511309
0.000511309
0.000511309
0.000511309
0.000511309
0.000511309
0.000511309
0.000511309
0.000511309
0.000511309
0.000511309
0.000511309
0.000511309
0.000511309
0.000511309
0.000511309
0.000511309
0.000511309
0.000511309
0.000511309
0.000511309
0.000511309
0.000511309
0.000511309
0.000511309
0.000511309
0.000511309
0.000511309
0.000511309
0.000511309
0.000511309
0.000511309
0.000511309
0.000511309
0.000511309
0.000511309
0.000511309
0.000511309
0.000511309
0.000511309
0.000511309
0.000511309
0.000511309
0.000511309
0.000511309
0.000511309
0.000511309
0.000511309
0.000511309
0.000511309
0.000511309
0.000511309
0.000511309
0.000511309
0.000511309
0.000511309
0.000511309
0.000511309
0.000511309
0.000511309
0.000511309
0.000511309
0.000511309
0.000511309
0.000511309
0.000511309
0.000511309
0.000511309
0.000511309
0.000511309
0.000511309
0.000511309
0.000511309
0.000511309
0.000511309
0.000511309
0.000511309
0.000511309
0.000511309
0.000511309
0.000511309
0.000511309
0.000511309
0.000511309
0.000511309
0.000511309
0.000511309
0.000511309
0.000511309
0.000511309
0.000511309
0.000511309
0.000511309
0.000511309
0.000511309
0.000511309
0.000511309
0.000511309
0.000511309
0.000511309
0.000511309
0.000511309
0.000511309
0.000511309
0.000511309
0.000511309
0.000511309
0.000511309
0.000511309
0.000511309
0.000511309
0.000511309
0.000511309
0.000511309
0.000511309
0.000511309
0.000511309
0.000511309
0.000511309
0.000511309
0.000511309
0.000511309
0.000511309
0.000511309
0.000511309
0.000511309
0.000511309
0.000511309
0.000511309
0.000511309
0.000511309
0.000511309
0.000511309
0.000511309
0.000511309
0.000511309
0.000511309
0.000511309
0.000511309
0.000511309
0.000511309
0.000511309
0.000511309
0.000511309
0.000511309
0.000511309
0.000511309
0.000511309
0.000511309
0.000511309
0.000511309
0.000511309
0.000511309
0.000511309
0.000511309
0.000511309
0.000511309
0.000511309
0.000511309
0.000511309
0.000511309
0.000511309
0.000511309
0.000511309
0.000511309
0.000511309
0.000511309
0.000511309
0.000511309
0.000511309
0.000511309
0.000511309
0.000511309
0.000511309
0.000511309
0.000511309
0.000511309
0.000511309
0.000511309
0.000511309
0.000511309
0.000511309
0.000511309
0.000511309
0.000511309
0.000511309
0.000511309
0.000511309
0.000511309
0.000511309
0.000511309
0.000511309
0.000511309
0.000511309
0.000511309
0.000511309
0.000511309
0.000511309
0.000511309
0.000511309
0.000511309
0.000511309
0.000511309
0.000511309
0.000511309
0.000511309
0.000511309
0.000511309
0.000511309
0.000511309
0.000511309
0.000511309
0.000511309
0.000511309
0.000511309
0.000511309
0.000511309
0.000511309
0.000511309
0.000511309
0.000511309
0.000511309
0.000511309
0.000511309
0.000511309
0.000511309
0.000511309
0.000511309
0.000511309
0.000511309
0.000511309
0.000511309
0.000511309
0.000511309
0.000511309
0.000511309
0.000511309
0.000511309
0.000511309
0.000511309
0.000511309
0.000511309
0.000511309
0.000511309
0.000511309
0.000511309
0.000511309
0.000511309
0.000511309
0.000511309
0.000511309
0.000511309
0.000511309
0.000511309
0.000511309
0.000511309
0.000511309
0.000511309
0.000511309
0.000511309
0.000511309
0.000511309
0.000511309
0.000511309
0.000511309
0.000511309
0.000511309
0.000511309
0.000511309
0.000511309
0.000511309
0.000511309
0.000511309
0.000511309
0.000511309
0.000511309
0.000511309
0.000511309
0.000511309
0.000511309
0.000511309
0.000511309
0.000511309
0.000511309
0.000511309
0.000511309
0.000511309
0.000511309
0.000511309
0.000511309
0.000511309
0.000511309
0.000511309
0.000511309
0.000511309
0.000511309
0.000511309
0.000511309
0.000511309
0.000511309
0.000511309
0.000511309
0.000511309
0.000511309
0.000511309
0.000511309
0.000511309
0.000511309
0.000511309
0.000511309
0.000511309
0.000511309
0.000511309
0.000511309
0.000511309
0.000511309
0.000511309
0.000511309
0.000511309
0.000511309
0.000511309
0.000511309
0.000511309
0.000511309
0.000511309
0.000511309
0.000511309
0.000511309
0.000511309
0.000511309
0.000511309
0.000511309
0.000511309
0.000511309
0.000511309
0.000511309
0.000511309
0.000511309
0.000511309
0.000511309
0.000511309
0.000511309
0.000511309
0.000511309
0.000511309
0.000511309
0.000511309
0.000511309
0.000511309
0.000511309
0.000511309
0.000511309
0.000511309
0.000511309
0.000511309
0.000511309
0.000511309
0.000511309
0.000511309
0.000511309
0.000511309
0.000511309
0.000511309
0.000511309
0.000511309
0.000511309
0.000511309
0.000511309
0.000511309
0.000511309
0.000511309
0.000511309
0.000511309
0.000511309
0.000511309
0.000511309
0.000511309
0.000511309
0.000511309
0.000511309
0.000511309
0.000511309
0.000511309
0.000511309
0.000511309
0.000511309
0.000511309
0.000511309
0.000511309
0.000511309
0.000511309
0.000511309
0.000511309
0.000511309
0.000511309
0.000511309
0.000511309
0.000511309
0.000511309
0.000511309
0.000511309
0.000511309
0.000511309
0.000511309
0.000511309
0.000511309
0.000511309
0.000511309
0.000511309
0.000511309
0.000511309
0.000511309
0.000511309
0.000511309
0.000511309
0.000511309
0.000511309
0.000511309
0.000511309
0.000511309
0.000511309
0.000511309
0.000511309
0.000511309
0.000511309
0.000511309
0.000511309
0.000511309
0.000511309
0.000511309
0.000511309
0.000511309
0.000511309
0.000511309
0.000511309
0.000511309
0.000511309
0.000511309
0.000511309
0.000511309
0.000511309
0.000511309
0.000511309
0.000511309
0.000511309
0.000511309
0.000511309
0.000511309
0.000511309
0.000511309
0.000511309
0.000511309
0.000511309
0.000511309
0.000511309
0.000511309
0.000511309
0.000511309
0.000511309
0.000511309
0.000511309
0.000511309
0.000511309
0.000511309
0.000511309
0.000511309
0.000511309
0.000511309
0.000511309
0.000511309
0.000511309
0.000511309
0.000511309
0.000511309
0.000511309
0.000511309
0.000511309
0.000511309
0.000511309
0.000511309
0.000511309
0.000511309
0.000511309
0.000511309
0.000511309
0.000511309
0.000511309
0.000511309
0.000511309
0.000511309
0.000511309
0.000511309
0.000511309
0.000511309
0.000511309
0.000511309
0.000511309
0.000511309
0.000511309
0.000511309
0.000511309
0.000511309
0.000511309
0.000511309
0.000511309
0.000511309
0.000511309
0.000511309
0.000511309
0.000511309
0.000511309
0.000511309
0.000511309
0.000511309
0.000511309
0.000511309
0.000511309
0.000511309
0.000511309
0.000511309
0.000511309
0.000511309
0.000511309
0.000511309
0.000511309
0.000511309
0.000511309
0.000511309
0.000511309
0.000511309
0.000511309
0.000511309
0.000511309
0.000511309
0.000511309
0.000511309
0.000511309
0.000511309
0.000511309
0.000511309
0.000511309
0.000511309
0.000511309
0.000511309
0.000511309
0.000511309
0.000511309
0.000511309
0.000511309
0.000511309
0.000511309
0.000511309
0.000511309
0.000511309
0.000511309
0.000511309
0.000511309
0.000511309
0.000511309
0.000511309
0.000511309
0.000511309
0.000511309
0.000511309
0.000511309
0.000511309
0.000511309
0.000511309
0.000511309
0.000511309
0.000511309
0.000511309
0.000511309
0.000511309
0.000511309
0.000511309
0.000511309
0.000511309
0.000511309
0.000511309
0.000511309
0.000511309
0.000511309
0.000511309
0.000511309
0.000511309
0.000511309
0.000511309
0.000511309
0.000511309
0.000511309
0.000511309
0.000511309
0.000511309
0.000511309
0.000511309
0.000511309
0.000511309
0.000511309
0.000511309
0.000511309
0.000511309
0.000511309
0.000511309
0.000511309
0.000511309
0.000511309
0.000511309
0.000511309
0.000511309
0.000511309
0.000511309
0.000511309
0.000511309
0.000511309
0.000511309
0.000511309
0.000511309
0.000511309
0.000511309
0.000511309
0.000511309
0.000511309
0.000511309
0.000511309
0.000511309
0.000511309
0.000511309
0.000511309
0.000511309
0.000511309
0.000511309
0.000511309
0.000511309
0.000511309
0.000511309
0.000511309
0.000511309
0.000511309
0.000511309
0.000511309
0.000511309
0.000511309
0.000511309
0.000511309
0.000511309
0.000511309
0.000511309
0.000511309
0.000511309
0.000511309
0.000511309
0.000511309
0.000511309
0.000511309
0.000511309
0.000511309
0.000511309
0.000511309
0.000511309
0.000511309
0.000511309
0.000511309
0.000511309
0.000511309
0.000511309
0.000511309
0.000511309
0.000511309
0.000511309
0.000511309
0.000511309
0.000511309
0.000511309
0.000511309
0.000511309
0.000511309
0.000511309
0.000511309
0.000511309
0.000511309
0.000511309
0.000511309
0.000511309
0.000511309
0.000511309
0.000511309
0.000511309
0.000511309
0.000511309
0.000511309
0.000511309
0.000511309
0.000511309
0.000511309
0.000511309
0.000511309
0.000511309
0.000511309
0.000511309
0.000511309
0.000511309
0.000511309
0.000511309
0.000511309
0.000511309
0.000511309
0.000511309
0.000511309
0.000511309
0.000511309
0.000511309
0.000511309
0.000511309
0.000511309
0.000511309
0.000511309
0.000511309
0.000511309
0.000511309
0.000511309
0.000511309
0.000511309
0.000511309
0.000511309
0.000511309
0.000511309
0.000511309
0.000511309
0.000511309
0.000511309
0.000511309
0.000511309
0.000511309
0.000511309
0.000511309
0.000511309
0.000511309
0.000511309
0.000511309
0.000511309
0.000511309
0.000511309
0.000511309
0.000511309
0.000511309
0.000511309
0.000511309
0.000511309
0.000511309
0.000511309
0.000511309
0.000511309
0.000511309
0.000511309
0.000511309
0.000511309
0.000511309
0.000511309
0.000511309
0.000511309
0.000511309
0.000511309
0.000511309
0.000511309
0.000511309
0.000511309
0.000511309
0.000511309
0.000511309
0.000511309
0.000511309
0.000511309
0.000511309
0.000511309
0.000511309
0.000511309
0.000511309
0.000511309
0.000511309
0.000511309
0.000511309
0.000511309
0.000511309
0.000511309
0.000511309
0.000511309
0.000511309
0.000511309
0.000511309
0.000511309
0.000511309
0.000511309
0.000511309
0.000511309
0.000511309
0.000511309
0.000511309
0.000511309
0.000511309
0.000511309
0.000511309
0.000511309
0.000511309
0.000511309
0.000511309
0.000511309
0.000511309
0.000511309
0.000511309
0.000511309
0.000511309
0.000511309
0.000511309
0.000511309
0.000511309
0.000511309
0.000511309
0.000511309
0.000511309
0.000511309
0.000511309
0.000511309
0.000511309
0.000511309
0.000511309
0.000511309
0.000511309
0.000511309
0.000511309
0.000511309
0.000511309
0.000511309
0.000511309
0.000511309
0.000511309
0.000511309
0.000511309
0.000511309
0.000511309
0.000511309
0.000511309
0.000511309
0.000511309
0.000511309
0.000511309
0.000511309
0.000511309
0.000511309
0.000511309
0.000511309
0.000511309
0.000511309
0.000511309
0.000511309
0.000511309
0.000511309
0.000511309
0.000511309
0.000511309
0.000511309
0.000511309
0.000511309
0.000511309
0.000511309
0.000511309
0.000511309
0.000511309
0.000511309
0.000511309
0.000511309
0.000511309
0.000511309
0.000511309
0.000511309
0.000511309
0.000511309
0.000511309
0.000511309
0.000511309
0.000511309
0.000511309
0.000511309
0.000511309
0.000511309
0.000511309
0.000511309
0.000511309
0.000511309
0.000511309
0.000511309
0.000511309
0.000511309
0.000511309
0.000511309
0.000511309
0.000511309
0.000511309
0.000511309
0.000511309
0.000511309
0.000511309
0.000511309
0.000511309
0.000511309
0.000511309
0.000511309
0.000511309
0.000511309
0.000511309
0.000511309
0.000511309
0.000511309
0.000511309
0.000511309
0.000511309
0.000511309
0.000511309
0.000511309
0.000511309
0.000511309
0.000511309
0.000511309
0.000511309
0.000511309
0.000511309
0.000511309
0.000511309
0.000511309
0.000511309
0.000511309
0.000511309
0.000511309
0.000511309
0.000511309
0.000511309
0.000511309
0.000511309
0.000511309
0.000511309
0.000511309
0.000511309
0.000511309
0.000511309
0.000511309
0.000511309
0.000511309
0.000511309
0.000511309
0.000511309
0.000511309
0.000511309
0.000511309
0.000511309
0.000511309
0.000511309
0.000511309
0.000511309
0.000511309
0.000511309
0.000511309
0.000511309
0.000511309
0.000511309
0.000511309
0.000511309
0.000511309
0.000511309
0.000511309
0.000511309
0.000511309
0.000511309
0.000511309
0.000511309
0.000511309
0.000511309
0.000511309
0.000511309
0.000511309
0.000511309
0.000511309
0.000511309
0.000511309
0.00051131
0.00051131
0.00051131
0.00051131
0.00051131
0.00051131
0.00051131
0.00051131
0.00051131
0.00051131
0.00051131
0.00051131
0.00051131
0.00051131
0.00051131
0.00051131
0.00051131
0.00051131
0.00051131
0.00051131
0.00051131
0.00051131
0.00051131
0.00051131
0.00051131
0.00051131
0.00051131
0.000511309
0.000511309
0.000511309
0.000511309
0.000511309
0.000511309
0.000511309
0.000511309
0.000511309
0.000511309
0.000511309
0.000511309
0.000511309
0.000511309
0.000511309
0.000511309
0.000511309
0.000511309
0.000511309
0.000511309
0.000511309
0.000511309
0.000511309
0.000511309
0.000511309
0.000511309
0.000511309
0.000511309
0.000511309
0.000511309
0.000511309
0.000511309
0.000511309
0.000511309
0.000511309
0.000511309
0.000511309
0.000511309
0.000511309
0.000511309
0.000511309
0.000511309
0.000511309
0.000511309
0.000511309
0.000511309
0.000511309
0.000511309
0.000511309
0.000511309
0.000511309
0.000511309
0.000511309
0.000511309
0.000511309
0.000511309
0.000511309
0.000511309
0.000511309
0.000511309
0.000511309
0.000511309
0.000511309
0.000511309
0.000511309
0.000511309
0.000511309
0.00051131
0.00051131
0.00051131
0.00051131
0.00051131
0.00051131
0.00051131
0.00051131
0.00051131
0.00051131
0.00051131
0.00051131
0.00051131
0.00051131
0.00051131
0.00051131
0.00051131
0.000511311
0.000511311
0.000511311
0.000511311
0.000511311
0.000511311
0.000511311
0.000511311
0.000511311
0.000511311
0.000511311
0.000511311
0.000511311
0.000511311
0.000511311
0.000511311
0.000511311
0.000511311
0.000511311
0.000511311
0.000511311
0.000511311
0.000511311
0.000511311
0.000511311
0.000511311
0.000511311
0.00051131
0.00051131
0.00051131
0.00051131
0.00051131
0.00051131
0.00051131
0.00051131
0.00051131
0.00051131
0.00051131
0.00051131
0.000511309
0.000511309
0.000511309
0.000511309
0.000511309
0.000511309
0.000511309
0.000511309
0.000511309
0.000511309
0.000511309
0.000511309
0.000511309
0.000511309
0.000511309
0.000511309
0.000511309
0.000511309
0.000511309
0.000511309
0.000511309
0.000511309
0.000511309
0.000511309
0.000511309
0.000511309
0.000511309
0.000511309
0.000511309
0.000511309
0.000511309
0.000511309
0.000511309
0.000511309
0.000511309
0.000511309
0.000511309
0.000511309
0.000511309
0.000511309
0.000511309
0.000511309
0.000511309
0.000511309
0.00051131
0.00051131
0.00051131
0.00051131
0.00051131
0.00051131
0.00051131
0.00051131
0.00051131
0.00051131
0.00051131
0.00051131
0.00051131
0.000511311
0.000511311
0.000511311
0.000511311
0.000511311
0.000511312
0.000511312
0.000511312
0.000511313
0.000511313
0.000511313
0.000511314
0.000511314
0.000511315
0.000511315
0.000511316
0.000511317
0.000511317
0.000511318
0.000511319
0.000511319
0.00051132
0.000511321
0.000511321
0.000511322
0.000511323
0.000511323
0.000511324
0.000511324
0.000511324
0.000511325
0.000511325
0.000511325
0.000511324
0.000511324
0.000511324
0.000511323
0.000511323
0.000511322
0.000511321
0.00051132
0.000511319
0.000511319
0.000511318
0.000511317
0.000511316
0.000511315
0.000511315
0.000511314
0.000511313
0.000511313
0.000511312
0.000511312
0.000511311
0.000511311
0.000511311
0.00051131
0.00051131
0.00051131
0.00051131
0.00051131
0.00051131
0.00051131
0.000511309
0.000511309
0.000511309
0.000511309
0.000511309
0.000511309
0.000511309
0.000511309
0.000511309
0.000511309
0.000511309
0.000511309
0.000511309
0.000511309
0.000511309
0.000511309
0.000511309
0.000511309
0.000511309
0.000511309
0.000511309
0.000511309
0.000511309
0.000511309
0.000511309
0.000511309
0.000511309
0.000511309
0.000511309
0.000511309
0.000511309
0.00051131
0.00051131
0.00051131
0.00051131
0.00051131
0.00051131
0.00051131
0.00051131
0.000511311
0.000511311
0.000511311
0.000511311
0.000511312
0.000511312
0.000511312
0.000511313
0.000511313
0.000511314
0.000511315
0.000511316
0.000511316
0.000511317
0.000511319
0.00051132
0.000511321
0.000511323
0.000511325
0.000511327
0.000511329
0.000511332
0.000511335
0.000511338
0.000511341
0.000511345
0.000511349
0.000511353
0.000511357
0.000511361
0.000511365
0.00051137
0.000511374
0.000511378
0.000511383
0.000511387
0.000511391
0.000511395
0.000511398
0.000511401
0.000511404
0.000511406
0.000511408
0.000511408
0.000511409
0.000511408
0.000511407
0.000511405
0.000511402
0.000511399
0.000511395
0.000511391
0.000511386
0.000511381
0.000511375
0.00051137
0.000511365
0.00051136
0.000511355
0.00051135
0.000511346
0.000511341
0.000511337
0.000511333
0.000511329
0.000511326
0.000511323
0.00051132
0.000511318
0.000511316
0.000511315
0.000511314
0.000511313
0.000511312
0.000511311
0.000511311
0.00051131
0.00051131
0.00051131
0.00051131
0.00051131
0.00051131
0.000511309
0.000511309
0.000511309
0.000511309
0.000511309
0.000511309
0.000511309
0.000511309
0.000511309
0.000511309
0.000511309
0.000511309
0.000511309
0.000511309
0.000511309
0.000511309
0.000511309
0.000511309
0.000511309
0.000511309
0.000511309
0.000511309
0.000511309
0.000511309
0.000511309
0.000511312
0.000511312
0.000511313
0.000511313
0.000511314
0.000511315
0.000511315
0.000511316
0.000511318
0.000511319
0.00051132
0.000511322
0.000511324
0.000511327
0.000511329
0.000511332
0.000511336
0.000511341
0.000511346
0.000511351
0.000511358
0.000511365
0.000511373
0.000511382
0.000511391
0.000511402
0.000511414
0.000511428
0.000511442
0.000511458
0.000511475
0.000511494
0.000511514
0.000511536
0.000511559
0.000511584
0.000511609
0.000511635
0.000511661
0.000511689
0.000511718
0.000511749
0.00051178
0.000511812
0.000511844
0.000511874
0.000511903
0.000511929
0.000511951
0.000511969
0.000511983
0.000511991
0.000511993
0.00051199
0.000511982
0.000511968
0.00051195
0.000511927
0.0005119
0.000511869
0.000511835
0.000511797
0.000511759
0.000511719
0.000511679
0.00051164
0.000511604
0.000511571
0.00051154
0.000511512
0.000511485
0.000511459
0.000511436
0.000511414
0.000511395
0.000511379
0.000511366
0.000511355
0.000511346
0.000511338
0.000511332
0.000511327
0.000511322
0.000511319
0.000511316
0.000511314
0.000511313
0.000511312
0.000511311
0.000511311
0.00051131
0.00051131
0.00051131
0.00051131
0.00051131
0.000511309
0.000511309
0.000511309
0.000511309
0.000511309
0.000511309
0.000511309
0.000511309
0.000511309
0.000511309
0.000511309
0.000511309
0.000511309
0.000511309
0.000511309
0.000511309
0.000511309
0.000511309
0.000511309
0.000511309
0.000511309
0.000511314
0.000511315
0.000511316
0.000511317
0.000511319
0.00051132
0.000511322
0.000511324
0.000511327
0.00051133
0.000511334
0.000511338
0.000511343
0.000511348
0.000511355
0.000511363
0.000511373
0.000511383
0.000511396
0.000511409
0.000511425
0.000511444
0.000511464
0.000511487
0.000511514
0.000511543
0.000511577
0.000511614
0.000511656
0.000511703
0.000511756
0.000511817
0.000511886
0.000511966
0.000512057
0.00051216
0.000512274
0.000512398
0.000512531
0.000512673
0.000512823
0.000512978
0.000513137
0.0005133
0.000513467
0.000513637
0.000513808
0.000513981
0.000514152
0.000514321
0.000514486
0.000514646
0.000514798
0.000514941
0.00051507
0.000515182
0.000515275
0.000515343
0.000515378
0.000515382
0.000515362
0.000515314
0.000515235
0.000515129
0.000514996
0.000514839
0.000514661
0.000514465
0.000514256
0.000514036
0.000513811
0.000513593
0.000513388
0.000513194
0.000513007
0.000512824
0.000512645
0.000512474
0.000512311
0.000512158
0.000512017
0.000511891
0.000511779
0.000511683
0.000511604
0.00051154
0.000511489
0.000511449
0.000511417
0.000511391
0.000511371
0.000511355
0.000511343
0.000511334
0.000511327
0.000511322
0.000511318
0.000511315
0.000511313
0.000511312
0.000511311
0.000511311
0.00051131
0.00051131
0.00051131
0.00051131
0.000511309
0.000511309
0.000511309
0.000511309
0.000511309
0.000511309
0.000511309
0.000511309
0.000511309
0.000511309
0.000511309
0.000511309
0.000511309
0.000511309
0.000511309
0.000511309
0.000511309
0.000511339
0.000511345
0.000511351
0.000511359
0.000511368
0.000511379
0.000511392
0.000511407
0.000511424
0.000511445
0.000511468
0.000511495
0.000511527
0.000511563
0.000511604
0.00051165
0.000511704
0.000511765
0.000511836
0.000511918
0.000512014
0.000512128
0.000512261
0.000512416
0.000512595
0.000512797
0.000513024
0.000513276
0.000513555
0.000513863
0.000514203
0.000514579
0.000514992
0.000515445
0.00051594
0.000516482
0.000517076
0.000517721
0.000518418
0.000519162
0.000519947
0.000520767
0.000521614
0.00052248
0.000523375
0.000524323
0.000525337
0.000526422
0.000527564
0.000528738
0.000529913
0.000531056
0.000532138
0.000533134
0.000534021
0.000534776
0.000535391
0.000535858
0.000536121
0.000536163
0.000536061
0.000535793
0.000535358
0.000534758
0.000533995
0.000533079
0.000532019
0.000530825
0.000529511
0.000528108
0.000526643
0.000525141
0.000523671
0.000522322
0.000521118
0.000520025
0.000519
0.00051802
0.000517086
0.00051621
0.000515407
0.000514692
0.000514078
0.000513563
0.000513137
0.000512781
0.000512482
0.000512231
0.000512022
0.000511849
0.00051171
0.000511602
0.000511521
0.000511461
0.000511418
0.000511387
0.000511364
0.000511348
0.000511336
0.000511327
0.000511321
0.000511317
0.000511314
0.000511313
0.000511311
0.000511311
0.00051131
0.00051131
0.00051131
0.00051131
0.000511309
0.000511309
0.000511309
0.000511309
0.000511309
0.000511309
0.000511309
0.000511309
0.000511309
0.000511309
0.000511309
0.000511309
0.000511309
0.0005115
0.000511536
0.000511577
0.000511624
0.00051168
0.000511743
0.000511817
0.000511902
0.000512001
0.000512119
0.000512258
0.000512423
0.000512619
0.000512848
0.000513115
0.000513422
0.000513772
0.00051417
0.000514622
0.000515135
0.000515714
0.000516364
0.000517093
0.000517909
0.000518824
0.000519846
0.000520985
0.000522246
0.000523634
0.000525183
0.000526948
0.000528983
0.000531319
0.000533962
0.000536896
0.000540091
0.000543513
0.000547118
0.000550863
0.000554705
0.000558605
0.000562523
0.000566437
0.000570366
0.000574256
0.000578042
0.000581704
0.000585257
0.000588738
0.000592176
0.000595577
0.000598907
0.000602103
0.000605084
0.000607768
0.000610085
0.000611992
0.000613434
0.000614223
0.000614339
0.000614011
0.000613155
0.000611733
0.000609754
0.000607244
0.000604217
0.000600687
0.000596705
0.00059235
0.000587671
0.000582726
0.000577809
0.000573178
0.000568658
0.000564036
0.000559297
0.000554517
0.000549767
0.000545086
0.000540512
0.000536107
0.000531938
0.000528092
0.000524723
0.000521946
0.000519733
0.000517967
0.000516533
0.000515363
0.000514422
0.000513679
0.000513098
0.000512644
0.000512292
0.00051202
0.000511814
0.00051166
0.000511548
0.000511471
0.000511418
0.000511383
0.000511359
0.000511342
0.000511331
0.000511323
0.000511318
0.000511315
0.000511313
0.000511311
0.000511311
0.00051131
0.00051131
0.00051131
0.000511309
0.000511309
0.000511309
0.000511309
0.000511309
0.000511309
0.000511309
0.000511309
0.000511309
0.000511309
0.000512431
0.000512637
0.000512882
0.000513172
0.000513514
0.000513913
0.000514376
0.000514912
0.000515529
0.000516236
0.000517042
0.000517955
0.000518988
0.000520153
0.000521467
0.000522948
0.00052461
0.000526492
0.000528661
0.000531191
0.000534146
0.000537563
0.000541453
0.000545805
0.000550594
0.000555787
0.000561342
0.000567233
0.000573507
0.000580103
0.000586936
0.000593982
0.000601307
0.000609056
0.000617375
0.000626355
0.000636014
0.000646302
0.000657133
0.000668404
0.000680019
0.000691895
0.00070393
0.000715961
0.000730568
0.000748136
0.000768098
0.000789731
0.000812334
0.000835255
0.000857896
0.000879766
0.000900464
0.000919649
0.000936908
0.000951858
0.000964432
0.000974567
0.000981734
0.000984448
0.000983669
0.000980829
0.000975115
0.000966089
0.000953989
0.000938987
0.00092081
0.000899404
0.000875124
0.000848368
0.000819621
0.000789388
0.000758928
0.000732718
0.000712311
0.00069474
0.000678
0.000661415
0.000644996
0.000629002
0.000613707
0.000599422
0.000586648
0.000575574
0.000565821
0.000557023
0.000549053
0.000541885
0.00053549
0.000529895
0.000525231
0.000521571
0.000518816
0.000516781
0.000515288
0.000514193
0.000513385
0.000512785
0.00051234
0.000512015
0.000511781
0.000511618
0.000511508
0.000511437
0.000511392
0.000511363
0.000511343
0.000511331
0.000511322
0.000511317
0.000511314
0.000511312
0.000511311
0.00051131
0.00051131
0.00051131
0.00051131
0.000511309
0.000511309
0.000511309
0.000511309
0.000511309
0.000511309
0.000511309
0.000511309
0.000517902
0.000519029
0.000520311
0.000521762
0.000523405
0.000525261
0.00052736
0.000529763
0.000532559
0.000535834
0.000539659
0.000544075
0.000549099
0.000554727
0.000560939
0.000567697
0.000575064
0.000583006
0.000591417
0.000600225
0.000609468
0.000619286
0.000629883
0.000641447
0.00065411
0.000667933
0.000682917
0.00069902
0.000716058
0.000737426
0.000764462
0.000797086
0.000834755
0.00087679
0.000922568
0.0009716
0.00102343
0.00107747
0.00113309
0.00118974
0.00124693
0.0013042
0.00136119
0.00141788
0.00147125
0.00152038
0.00156539
0.00160671
0.00164464
0.00167927
0.00171024
0.00173732
0.0017609
0.00178086
0.00179687
0.00180985
0.00182046
0.00182709
0.00183057
0.00183338
0.00183424
0.00183111
0.00182437
0.00181506
0.0018049
0.00179186
0.00177474
0.00175333
0.00172793
0.00169861
0.0016654
0.00162762
0.00158466
0.00153375
0.00147329
0.00140489
0.00133018
0.00125129
0.00116977
0.00108669
0.00100302
0.000920163
0.000840779
0.000772649
0.00072319
0.000686832
0.000657677
0.000632627
0.00061073
0.000592114
0.000576639
0.000563582
0.00055238
0.000542801
0.000534743
0.00052821
0.000523193
0.000519536
0.00051697
0.000515206
0.000513993
0.000513146
0.000512548
0.000512127
0.000511835
0.000511639
0.000511513
0.000511435
0.000511387
0.000511357
0.000511339
0.000511327
0.00051132
0.000511315
0.000511313
0.000511311
0.00051131
0.00051131
0.00051131
0.00051131
0.000511309
0.000511309
0.000511309
0.000511309
0.000511309
0.000542543
0.000547508
0.000553197
0.000559625
0.000566777
0.000574674
0.000583356
0.000592743
0.000602718
0.000613215
0.000624301
0.000636159
0.000649021
0.000663105
0.000678567
0.000695576
0.000713853
0.000735772
0.00076378
0.000798461
0.000839598
0.000886726
0.000939383
0.000997128
0.00105956
0.00112623
0.00119656
0.00127001
0.00134615
0.00142111
0.00149347
0.00156316
0.0016302
0.00169443
0.00175554
0.00181304
0.00186671
0.00191561
0.00195937
0.00199882
0.00203465
0.0020682
0.00209981
0.00212909
0.0021567
0.00218257
0.00220567
0.00222606
0.00224403
0.00225983
0.00227397
0.00228566
0.00229474
0.00230172
0.00230641
0.00230758
0.00230699
0.00230724
0.00230425
0.00229953
0.00229652
0.00229349
0.00229136
0.00229181
0.00228911
0.00228159
0.00227601
0.0022726
0.00226605
0.00225839
0.00225008
0.00223905
0.00222376
0.00220219
0.00217438
0.00213911
0.0020962
0.0020476