/*--------------------------------*- C++ -*----------------------------------*\
| =========                 |                                                 |
| \\      /  F ield         | OpenFOAM: The Open Source CFD Toolbox           |
|  \\    /   O peration     | Version:  v1706                                 |
|   \\  /    A nd           | Web:      www.OpenFOAM.com                      |
|    \\/     M anipulation  |                                                 |
\*---------------------------------------------------------------------------*/
FoamFile
{
    version     2.0;
    format      ascii;
    class       volScalarField;
    location    "1.1e-05";
    object      Tov;
}
// * * * * * * * * * * * * * * * * * * * * * * * * * * * * * * * * * * * * * //

dimensions      [0 0 0 1 0 0 0];


internalField   nonuniform List<scalar> 
29871
(
144.4
144.4
144.4
144.4
144.4
144.4
144.4
144.4
144.4
144.4
144.4
144.4
144.4
144.4
144.4
144.4
144.4
144.4
144.4
144.4
144.4
144.4
144.4
144.4
144.4
144.4
144.4
144.4
144.4
144.4
144.4
144.4
144.4
144.4
144.4
144.4
144.4
144.4
144.4
144.4
144.4
144.4
144.4
144.4
144.4
144.4
144.4
144.4
144.4
144.4
144.4
144.4
144.4
144.4
144.4
144.4
144.4
144.4
144.4
144.4
144.4
144.4
144.4
144.4
144.4
144.4
144.4
144.4
144.4
144.4
144.4
144.4
144.4
144.4
144.4
144.4
144.4
144.4
144.4
144.4
144.4
144.4
144.4
144.4
144.4
144.4
144.4
144.4
144.4
144.4
144.4
144.4
144.4
144.4
144.4
144.4
144.4
144.4
144.4
144.4
144.4
144.4
144.4
144.4
144.4
144.4
144.4
144.4
144.4
144.4
144.4
144.4
144.4
144.4
144.4
144.4
144.4
144.4
144.4
144.4
144.4
144.4
144.4
144.4
144.4
144.4
144.4
144.4
144.4
144.4
144.4
144.4
144.4
144.4
144.4
144.4
144.4
144.4
144.4
144.4
144.4
144.4
144.4
144.4
144.4
144.4
144.4
144.4
144.4
144.4
144.4
144.4
144.4
144.4
144.4
144.4
144.4
144.4
144.4
144.4
144.4
144.4
144.4
144.4
144.4
144.4
144.4
144.4
144.4
144.4
144.4
144.4
144.4
144.4
144.4
144.4
144.4
144.4
144.4
144.4
144.4
144.4
144.4
144.4
144.4
144.4
144.4
144.4
144.4
144.4
144.4
144.4
144.4
144.4
144.4
144.4
144.4
144.4
144.4
144.4
144.4
144.4
144.4
144.4
144.4
144.4
144.4
144.4
144.4
144.4
144.4
144.4
144.4
144.4
144.4
144.4
144.4
144.4
144.4
144.4
144.4
144.4
144.4
144.4
144.4
144.4
144.4
144.4
144.4
144.4
144.4
144.4
144.4
144.4
144.4
144.4
144.4
144.4
144.4
144.4
144.4
144.4
144.4
144.4
144.4
144.4
144.4
144.4
144.4
144.4
144.4
144.4
144.4
144.4
144.4
144.4
144.4
144.4
144.4
144.4
144.4
144.4
144.4
144.4
144.4
144.4
144.4
144.4
144.4
144.4
144.4
144.4
144.4
144.4
144.4
144.4
144.4
144.4
144.4
144.4
144.4
144.4
144.4
144.4
144.4
144.4
144.4
144.4
144.4
144.4
144.4
144.4
144.4
144.4
144.4
144.4
144.4
144.4
144.4
144.4
144.4
144.4
144.4
144.4
144.4
144.4
144.4
144.4
144.4
144.4
144.4
144.4
144.4
144.4
144.4
144.4
144.4
144.4
144.4
144.4
144.4
144.4
144.4
144.4
144.4
144.4
144.4
144.4
144.4
144.4
144.4
144.4
144.4
144.4
144.4
144.4
144.4
144.4
144.4
144.4
144.4
144.4
144.4
144.4
144.4
144.4
144.4
144.4
144.4
144.4
144.4
144.4
144.4
144.4
144.4
144.4
144.4
144.4
144.4
144.4
144.4
144.4
144.4
144.4
144.4
144.4
144.4
144.4
144.4
144.4
144.4
144.4
144.4
144.4
144.4
144.4
144.4
144.4
144.4
144.4
144.4
144.4
144.4
144.4
144.4
144.4
144.4
144.4
144.4
144.4
144.4
144.4
144.4
144.4
144.4
144.4
144.4
144.4
144.4
144.4
144.4
144.4
144.4
144.4
144.4
144.4
144.4
144.4
144.4
144.4
144.4
144.4
144.4
144.4
144.4
144.4
144.4
144.4
144.4
144.4
144.4
144.4
144.4
144.4
144.4
144.4
144.4
144.4
144.4
144.4
144.4
144.4
144.4
144.4
144.4
144.4
144.4
144.4
144.4
144.4
144.4
144.4
144.4
144.4
144.4
144.4
144.4
144.4
144.4
144.4
144.4
144.4
144.4
144.4
144.4
144.4
144.4
144.4
144.4
144.4
144.4
144.4
144.4
144.4
144.4
144.4
144.4
144.4
144.4
144.4
144.4
144.4
144.4
144.4
144.4
144.4
144.4
144.4
144.4
144.4
144.4
144.4
144.4
144.4
144.4
144.4
144.4
144.4
144.4
144.4
144.4
144.4
144.4
144.4
144.4
144.4
144.4
144.4
144.4
144.4
144.4
144.4
144.4
144.4
144.4
144.4
144.4
144.4
144.4
144.4
144.4
144.4
144.4
144.4
144.4
144.4
144.4
144.4
144.4
144.4
144.4
144.4
144.4
144.4
144.4
144.4
144.4
144.4
144.4
144.4
144.4
144.4
144.4
144.4
144.4
144.4
144.4
144.4
144.4
144.4
144.4
144.4
144.4
144.4
144.4
144.4
144.4
144.4
144.4
144.4
144.4
144.4
144.4
144.4
144.4
144.4
144.4
144.4
144.4
144.4
144.4
144.4
144.4
144.4
144.4
144.4
144.4
144.4
144.4
144.4
144.4
144.4
144.4
144.4
144.4
144.4
144.4
144.4
144.4
144.4
144.4
144.4
144.4
144.4
144.4
144.4
144.4
144.4
144.4
144.4
144.4
144.4
144.4
144.4
144.4
144.4
144.4
144.4
144.4
144.4
144.4
144.4
144.4
144.4
144.4
144.4
144.4
144.4
144.4
144.4
144.4
144.4
144.4
144.4
144.4
144.4
144.4
144.4
144.4
144.4
144.4
144.4
144.4
144.4
144.4
144.4
144.4
144.4
144.4
144.4
144.4
144.4
144.4
144.4
144.4
144.4
144.4
144.4
144.4
144.4
144.4
144.4
144.4
144.4
144.4
144.4
144.4
144.4
144.4
144.4
144.4
144.4
144.4
144.4
144.4
144.4
144.4
144.4
144.4
144.4
144.4
144.4
144.4
144.4
144.4
144.4
144.4
144.4
144.4
144.4
144.4
144.4
144.4
144.4
144.4
144.4
144.4
144.4
144.4
144.4
144.4
144.4
144.4
144.4
144.4
144.4
144.4
144.4
144.4
144.4
144.4
144.4
144.4
144.4
144.4
144.4
144.4
144.4
144.4
144.4
144.4
144.4
144.4
144.4
144.4
144.4
144.4
144.4
144.4
144.4
144.4
144.4
144.4
144.4
144.4
144.4
144.4
144.4
144.4
144.4
144.4
144.4
144.4
144.4
144.4
144.4
144.4
144.4
144.4
144.4
144.4
144.4
144.4
144.4
144.4
144.4
144.4
144.4
144.4
144.4
144.4
144.4
144.4
144.4
144.4
144.4
144.4
144.4
144.4
144.4
144.4
144.4
144.4
144.4
144.4
144.4
144.4
144.4
144.4
144.4
144.4
144.4
144.4
144.4
144.4
144.4
144.4
144.4
144.4
144.4
144.4
144.4
144.4
144.4
144.4
144.4
144.4
144.4
144.4
144.4
144.4
144.4
144.4
144.4
144.4
144.4
144.4
144.4
144.4
144.4
144.4
144.4
144.4
144.4
144.4
144.4
144.4
144.4
144.4
144.4
144.4
144.4
144.4
144.4
144.4
144.4
144.4
144.4
144.4
144.4
144.4
144.4
144.4
144.4
144.4
144.4
144.4
144.4
144.4
144.4
144.4
144.4
144.4
144.4
144.4
144.4
144.4
144.4
144.4
144.4
144.4
144.4
144.4
144.4
144.4
144.4
144.4
144.4
144.4
144.4
144.4
144.4
144.4
144.4
144.4
144.4
144.4
144.4
144.4
144.4
144.4
144.4
144.4
144.4
144.4
144.4
144.4
144.4
144.4
144.4
144.4
144.4
144.4
144.4
144.4
144.4
144.4
144.4
144.4
144.4
144.4
144.4
144.4
144.4
144.4
144.4
144.4
144.4
144.4
144.4
144.4
144.4
144.4
144.4
144.4
144.4
144.4
144.4
144.4
144.4
144.4
144.4
144.4
144.4
144.4
144.4
144.4
144.4
144.4
144.4
144.4
144.4
144.4
144.4
144.4
144.4
144.4
144.4
144.4
144.4
144.4
144.4
144.4
144.4
144.4
144.4
144.4
144.4
144.4
144.4
144.4
144.4
144.4
144.4
144.4
144.4
144.4
144.4
144.4
144.4
144.4
144.4
144.4
144.4
144.4
144.4
144.4
144.4
144.4
144.4
144.4
144.4
144.4
144.4
144.4
144.4
144.4
144.4
144.4
144.4
144.4
144.4
144.4
144.4
144.4
144.4
144.4
144.4
144.4
144.4
144.4
144.4
144.4
144.4
144.4
144.4
144.4
144.4
144.4
144.4
144.4
144.4
144.4
144.4
144.4
144.4
144.4
144.4
144.4
144.4
144.4
144.4
144.4
144.4
144.4
144.4
144.4
144.4
144.4
144.4
144.4
144.4
144.4
144.4
144.4
144.4
144.4
144.4
144.4
144.4
144.4
144.4
144.4
144.4
144.4
144.4
144.4
144.4
144.4
144.4
144.4
144.4
144.4
144.4
144.4
144.4
144.4
144.4
144.4
144.4
144.4
144.4
144.4
144.4
144.4
144.4
144.4
144.4
144.4
144.4
144.4
144.4
144.4
144.4
144.4
144.4
144.4
144.4
144.4
144.4
144.4
144.4
144.4
144.4
144.4
144.4
144.4
144.4
144.4
144.4
144.4
144.4
144.4
144.4
144.4
144.4
144.4
144.4
144.4
144.4
144.4
144.4
144.4
144.4
144.4
144.4
144.4
144.4
144.4
144.4
144.4
144.4
144.4
144.4
144.4
144.4
144.4
144.4
144.4
144.4
144.4
144.4
144.4
144.4
144.4
144.4
144.4
144.4
144.4
144.4
144.4
144.4
144.4
144.4
144.4
144.4
144.4
144.4
144.4
144.4
144.4
144.4
144.4
144.4
144.4
144.4
144.4
144.4
144.4
144.4
144.4
144.4
144.4
144.4
144.4
144.4
144.4
144.4
144.4
144.4
144.4
144.4
144.4
144.4
144.4
144.4
144.4
144.4
144.4
144.4
144.4
144.4
144.4
144.4
144.4
144.4
144.4
144.4
144.4
144.4
144.4
144.4
144.4
144.4
144.4
144.4
144.4
144.4
144.4
144.4
144.4
144.4
144.4
144.4
144.4
144.4
144.4
144.4
144.4
144.4
144.4
144.4
144.4
144.4
144.4
144.4
144.4
144.4
144.4
144.4
144.4
144.4
144.4
144.4
144.4
144.4
144.4
144.4
144.4
144.4
144.4
144.4
144.4
144.4
144.4
144.4
144.4
144.4
144.4
144.4
144.4
144.4
144.4
144.4
144.4
144.4
144.4
144.4
144.4
144.4
144.4
144.4
144.4
144.4
144.4
144.4
144.4
144.4
144.4
144.4
144.4
144.4
144.4
144.4
144.4
144.4
144.4
144.4
144.4
144.4
144.4
144.4
144.4
144.4
144.4
144.4
144.401
144.401
144.401
144.401
144.401
144.401
144.401
144.401
144.401
144.401
144.401
144.401
144.401
144.401
144.401
144.401
144.401
144.401
144.4
144.4
144.4
144.4
144.4
144.4
144.4
144.4
144.4
144.4
144.4
144.4
144.4
144.4
144.4
144.4
144.4
144.4
144.4
144.4
144.4
144.4
144.4
144.4
144.4
144.4
144.4
144.4
144.4
144.4
144.4
144.4
144.4
144.4
144.4
144.4
144.4
144.4
144.4
144.4
144.4
144.4
144.4
144.4
144.4
144.4
144.4
144.4
144.4
144.4
144.4
144.4
144.4
144.4
144.4
144.4
144.4
144.4
144.4
144.4
144.4
144.4
144.4
144.4
144.4
144.4
144.4
144.4
144.4
144.4
144.4
144.4
144.4
144.401
144.401
144.401
144.401
144.401
144.401
144.401
144.401
144.401
144.402
144.402
144.402
144.402
144.402
144.402
144.403
144.403
144.403
144.403
144.404
144.404
144.404
144.404
144.404
144.405
144.405
144.405
144.405
144.405
144.405
144.405
144.405
144.405
144.405
144.405
144.404
144.404
144.404
144.404
144.403
144.403
144.403
144.403
144.402
144.402
144.402
144.402
144.401
144.401
144.401
144.401
144.401
144.401
144.4
144.4
144.4
144.4
144.4
144.4
144.4
144.4
144.4
144.4
144.4
144.4
144.4
144.4
144.4
144.4
144.4
144.4
144.4
144.4
144.4
144.4
144.4
144.4
144.4
144.4
144.4
144.4
144.4
144.4
144.4
144.4
144.4
144.4
144.4
144.4
144.4
144.4
144.4
144.4
144.4
144.4
144.4
144.4
144.4
144.4
144.4
144.401
144.401
144.401
144.401
144.401
144.401
144.401
144.402
144.402
144.402
144.402
144.403
144.403
144.404
144.404
144.405
144.406
144.406
144.407
144.408
144.409
144.41
144.411
144.413
144.414
144.415
144.417
144.419
144.42
144.422
144.423
144.425
144.427
144.428
144.43
144.432
144.433
144.435
144.436
144.437
144.438
144.438
144.439
144.439
144.438
144.437
144.436
144.435
144.434
144.432
144.43
144.428
144.426
144.424
144.421
144.419
144.417
144.415
144.414
144.412
144.41
144.409
144.407
144.406
144.405
144.404
144.403
144.403
144.402
144.402
144.401
144.401
144.401
144.401
144.4
144.4
144.4
144.4
144.4
144.4
144.4
144.4
144.4
144.4
144.4
144.4
144.4
144.4
144.4
144.4
144.4
144.4
144.4
144.4
144.4
144.4
144.4
144.4
144.4
144.4
144.4
144.4
144.4
144.4
144.4
144.4
144.401
144.401
144.401
144.402
144.402
144.402
144.403
144.403
144.404
144.404
144.405
144.406
144.407
144.408
144.409
144.41
144.412
144.414
144.416
144.418
144.421
144.424
144.427
144.431
144.435
144.44
144.446
144.452
144.458
144.466
144.474
144.483
144.493
144.503
144.513
144.524
144.536
144.547
144.559
144.571
144.583
144.596
144.608
144.621
144.633
144.644
144.655
144.664
144.672
144.678
144.682
144.683
144.682
144.679
144.674
144.667
144.658
144.647
144.634
144.62
144.605
144.589
144.572
144.556
144.54
144.525
144.511
144.498
144.486
144.475
144.464
144.454
144.445
144.437
144.43
144.424
144.419
144.415
144.412
144.409
144.407
144.405
144.404
144.403
144.402
144.401
144.401
144.401
144.401
144.4
144.4
144.4
144.4
144.4
144.4
144.4
144.4
144.4
144.4
144.4
144.4
144.4
144.4
144.4
144.4
144.4
144.4
144.4
144.4
144.4
144.4
144.4
144.4
144.4
144.4
144.407
144.408
144.41
144.412
144.414
144.416
144.419
144.422
144.426
144.43
144.435
144.441
144.447
144.455
144.463
144.474
144.485
144.499
144.514
144.531
144.551
144.572
144.596
144.624
144.654
144.689
144.727
144.771
144.819
144.873
144.932
144.996
145.064
145.135
145.21
145.287
145.366
145.446
145.529
145.615
145.703
145.793
145.884
145.974
146.062
146.146
146.222
146.289
146.345
146.389
146.417
146.426
146.42
146.398
146.361
146.309
146.243
146.164
146.073
145.973
145.864
145.749
145.631
145.513
145.398
145.29
145.19
145.098
145.013
144.933
144.858
144.787
144.723
144.664
144.613
144.57
144.534
144.505
144.483
144.464
144.449
144.437
144.428
144.42
144.415
144.411
144.408
144.405
144.404
144.403
144.402
144.401
144.401
144.4
144.4
144.4
144.4
144.4
144.4
144.4
144.4
144.4
144.4
144.4
144.4
144.4
144.4
144.4
144.4
144.4
144.4
144.4
144.4
144.4
144.4
144.4
144.415
144.418
144.421
144.425
144.43
144.436
144.442
144.45
144.458
144.469
144.481
144.495
144.512
144.531
144.554
144.58
144.61
144.644
144.684
144.73
144.783
144.845
144.916
144.998
145.092
145.199
145.319
145.453
145.603
145.771
145.959
146.171
146.412
146.684
146.989
147.328
147.702
148.109
148.546
149.009
149.494
149.995
150.508
151.031
151.568
152.124
152.701
153.3
153.914
154.535
155.149
155.741
156.298
156.804
157.244
157.608
157.887
158.064
158.109
158.06
157.913
157.666
157.323
156.888
156.368
155.771
155.106
154.384
153.618
152.825
152.025
151.241
150.5
149.818
149.195
148.62
148.079
147.569
147.089
146.645
146.243
145.888
145.585
145.336
145.136
144.976
144.849
144.745
144.661
144.594
144.542
144.503
144.474
144.453
144.437
144.426
144.418
144.412
144.408
144.405
144.404
144.402
144.401
144.401
144.401
144.4
144.4
144.4
144.4
144.4
144.4
144.4
144.4
144.4
144.4
144.4
144.4
144.4
144.4
144.4
144.4
144.4
144.4
144.505
144.524
144.547
144.575
144.607
144.645
144.689
144.74
144.801
144.872
144.955
145.052
145.166
145.299
145.453
145.63
145.833
146.067
146.336
146.648
147.009
147.429
147.913
148.469
149.103
149.817
150.616
151.502
152.483
153.575
154.802
156.187
157.749
159.502
161.45
163.59
165.911
168.395
171.015
173.74
176.539
179.382
182.248
185.14
188.105
191.184
194.385
197.687
201.042
204.382
207.632
210.713
213.55
216.078
218.24
219.99
221.304
222.11
222.233
221.942
221.175
219.932
218.222
216.056
213.459
210.454
207.066
203.328
199.294
195.039
190.653
186.256
182.009
178.063
174.445
171.078
167.877
164.805
161.87
159.108
156.563
154.281
152.307
150.667
149.348
148.297
147.448
146.753
146.184
145.727
145.373
145.107
144.91
144.765
144.658
144.58
144.524
144.484
144.457
144.438
144.425
144.416
144.41
144.407
144.404
144.403
144.402
144.401
144.401
144.4
144.4
144.4
144.4
144.4
144.4
144.4
144.4
144.4
144.4
144.4
144.4
144.4
144.4
145.102
145.234
145.389
145.573
145.787
146.038
146.329
146.67
147.069
147.537
148.087
148.73
149.48
150.348
151.346
152.487
153.785
155.268
156.969
158.929
161.186
163.775
166.722
170.046
173.756
177.85
182.317
187.152
192.385
198.117
204.461
211.495
219.242
227.677
236.74
246.339
256.359
266.661
277.099
287.535
297.855
307.971
317.85
327.6
337.561
347.83
358.298
368.783
379.086
389.002
398.33
406.89
414.524
421.12
426.59
430.88
433.992
435.707
435.721
434.693
432.448
429.027
424.404
418.552
411.494
403.231
393.727
382.98
371.057
358.071
344.182
329.675
315.055
301.008
287.775
275.031
262.413
249.766
237.132
224.675
212.624
201.269
190.963
182.067
174.71
168.695
163.706
159.501
155.963
153.066
150.794
149.077
147.799
146.845
146.134
145.61
145.234
144.968
144.783
144.656
144.568
144.509
144.47
144.445
144.428
144.417
144.411
144.406
144.404
144.402
144.401
144.401
144.4
144.4
144.4
144.4
144.4
144.4
144.4
144.4
144.4
144.4
144.4
148.959
149.804
150.797
151.957
153.305
154.863
156.663
158.748
161.17
163.983
167.24
170.988
175.267
180.106
185.527
191.546
198.205
205.612
213.909
223.214
233.591
245.053
257.566
271.054
285.408
300.486
316.132
332.252
348.958
366.698
385.675
405.802
426.847
448.527
470.546
492.611
514.43
535.714
556.217
575.771
594.29
611.747
628.214
644.049
661.091
678.929
696.756
714.001
730.281
745.31
758.844
770.713
780.765
789.06
795.591
800.385
803.665
804.856
804.273
802.297
798.673
793.731
787.327
779.266
769.587
758.197
744.819
729.251
711.435
691.33
668.952
644.362
617.978
591.849
567.384
543.168
517.993
491.304
463.003
433.243
402.331
370.858
339.895
311.055
285.572
263.219
243.211
224.99
208.478
194.025
182.08
172.678
165.415
159.794
155.459
152.194
149.816
148.123
146.93
146.095
145.519
145.13
144.871
144.7
144.589
144.518
144.473
144.444
144.427
144.416
144.409
144.405
144.403
144.402
144.401
144.401
144.4
144.4
144.4
144.4
144.4
144.4
144.4
144.4
144.4
171.734
176.431
181.815
187.933
194.823
202.531
211.149
220.819
231.686
243.85
257.355
272.191
288.302
305.59
323.931
343.202
363.436
384.955
408.021
432.589
458.426
485.23
512.688
540.48
568.292
595.814
622.765
649.042
674.968
702.757
732.205
762.339
792.31
821.445
849.244
875.344
899.485
921.464
941.213
958.824
974.45
988.292
1000.51
1011.27
1020.51
1028.3
1034.77
1040.06
1044.28
1047.54
1049.86
1051.33
1051.58
1051.21
1050.22
1048.59
1046.48
1043.68
1040.37
1036.95
1033.39
1029.01
1024.14
1018.89
1013.36
1007.18
1000.29
992.679
984.279
975.015
964.916
953.783
941.306
926.966
910.337
891.074
868.654
842.738
812.973
778.967
740.203
696.485
648.66
599.589
554.421
512.117
470.671
428.84
386.639
345.539
308.102
275.842
248.398
224.916
205.006
188.792
176.276
166.943
160.07
155.071
151.53
149.096
147.456
146.364
145.644
145.178
144.881
144.694
144.578
144.506
144.463
144.437
144.421
144.412
144.407
144.404
144.402
144.401
144.401
144.4
144.4
144.4
144.4
144.4
144.4
272.67
289.88
308.562
328.615
349.917
372.416
396.25
421.706
448.811
477.369
507.078
537.608
568.629
599.824
630.894
661.614
692.052
723.708
757.18
791.621
826.103
859.863
892.314
923.009
951.624
977.913
1001.72
1023.09
1042.12
1058.73
1073.24
1085.91
1096.98
1106.57
1114.77
1121.61
1127.11
1131.27
1134.29
1136.53
1138.2
1139.56
1140.64
1141.31
1141.77
1141.84
1141.65
1141.2
1140.44
1139.38
1138.04
1136.38
1134.31
1131.91
1129.12
1125.91
1122.45
1119.06
1115.05
1110.89
1106.96
1102.95
1098.85
1094.85
1090.15
1084.86
1079.88
1075.07
1069.63
1063.94
1058.14
1051.94
1045.19
1037.78
1029.88
1021.25
1011.55
1000.74
988.638
975.27
960.293
943.219
924.257
902.372
876.099
844.519
806.668
761.436
708.067
647.874
586.595
529.699
476.065
423.963
373.428
326.713
286.391
252.754
224.927
202.338
184.858
172.022
162.9
156.543
152.216
149.35
147.492
146.305
145.558
145.095
144.813
144.643
144.541
144.481
144.446
144.426
144.415
144.408
144.404
144.402
144.401
144.401
144.4
144.4
144.4
501.322
533.527
566.534
599.998
633.602
667.071
700.299
733.792
768.978
805.304
841.945
878.11
913.129
946.483
977.797
1006.8
1033.32
1057.21
1078.33
1096.81
1112.98
1127.16
1139.58
1150.39
1159.69
1167.58
1174.03
1178.99
1182.83
1185.94
1188.56
1190.8
1192.72
1194.38
1195.81
1196.95
1197.79
1198.13
1197.97
1197.31
1196.11
1194.51
1192.83
1191.1
1188.99
1186.83
1184.78
1182.64
1180.42
1178.16
1175.87
1173.65
1171.41
1169.05
1166.67
1164.21
1161.3
1158.18
1155.11
1151.46
1147.5
1143.75
1140.03
1136.18
1132.45
1127.87
1122.79
1118.14
1113.67
1108.63
1103.27
1097.88
1092.3
1085.94
1079.21
1072.54
1065.69
1059.1
1051.28
1042.96
1034.62
1026.41
1018.98
1010.43
1000.31
989.299
977.153
963.329
947.089
927.389
904.483
877.231
842.991
799.739
745.804
681.151
610.34
542.922
479.967
419.974
363.175
312.459
270.002
235.605
208.409
187.842
173.088
162.909
156.077
151.623
148.798
147.041
145.965
145.316
144.93
144.704
144.572
144.497
144.454
144.43
144.416
144.409
144.405
144.403
144.401
144.401
864.306
901.845
938.249
972.97
1005.61
1035.9
1063.64
1088.62
1110.63
1129.95
1146.86
1161.68
1174.63
1185.92
1195.67
1203.97
1210.77
1216.14
1220.43
1224.05
1227.23
1230.02
1232.52
1234.71
1236.64
1238.22
1239.46
1239.84
1239.58
1239.02
1238.2
1237.19
1236.12
1234.95
1233.8
1232.71
1231.67
1230.8
1230.12
1229.52
1228.68
1227.38
1225.8
1223.91
1221.5
1219.01
1216.6
1214.1
1211.5
1208.81
1206.1
1203.48
1200.81
1198.03
1195.36
1192.69
1189.6
1186.42
1183.41
1179.95
1176.07
1172.52
1169.06
1165.4
1161.92
1157.33
1152.49
1148.04
1143.8
1138.85
1133.64
1128.49
1123.31
1117.12
1110.83
1104.67
1098.49
1092.75
1085.75
1078.24
1070.73
1063.57
1057.25
1049.87
1040.94
1031.81
1022.66
1013.19
1003.73
994.958
985.74
974.191
960.52
944.761
925.786
902.626
874.933
839.562
793.234
733.194
660.016
582.254
508.809
440.283
376.424
319.661
272.403
234.682
205.668
184.52
169.919
160.229
154.002
150.121
147.759
146.346
145.514
145.031
144.754
144.597
144.509
144.459
144.432
144.417
144.409
144.405
144.403
144.401
1169.12
1185.59
1199.95
1212.44
1223.26
1232.56
1240.38
1246.67
1251.74
1255.98
1259.69
1263
1265.95
1268.6
1270.93
1272.91
1274.41
1275.18
1275.14
1274.98
1274.67
1274.22
1273.69
1273.14
1272.62
1272.15
1271.93
1272.02
1272.02
1271.73
1270.9
1269.69
1268.24
1266.54
1264.79
1263.05
1261.31
1259.71
1258.35
1257.15
1255.89
1254.47
1253.01
1251.16
1248.79
1246.29
1243.77
1241.11
1238.3
1235.41
1232.5
1229.56
1226.54
1223.5
1220.62
1217.73
1214.5
1211.26
1208.24
1204.81
1201.03
1197.69
1194.4
1190.85
1187.31
1182.48
1177.87
1173.46
1169.15
1164.39
1159.01
1153.64
1148.19
1142.27
1136.17
1129.97
1124
1118.49
1112.51
1106.05
1099.35
1092.91
1086.82
1080.28
1072.7
1064.77
1056.69
1048.17
1039.67
1031.86
1023.88
1013.92
1003.28
992.369
982.183
972.753
961.434
947.602
930.811
909.878
884.529
852.117
808.054
748.415
672.777
589.432
509.552
435.269
367.166
308.216
260.315
223.13
195.718
176.706
164.161
156.193
151.3
148.375
146.66
145.67
145.107
144.79
144.614
144.516
144.463
144.434
144.418
144.41
1289.87
1293.65
1297.02
1300.02
1302.68
1305.01
1306.92
1308.18
1308.68
1308.75
1308.75
1308.67
1308.51
1308.3
1308.09
1307.97
1308.12
1308.56
1308.86
1308.68
1308.1
1307.18
1306.08
1304.83
1303.5
1302.19
1301.07
1300.24
1299.57
1298.9
1298.05
1296.85
1295.37
1293.67
1291.84
1289.94
1288
1286.09
1284.31
1282.76
1281.37
1280.12
1278.95
1277.48
1275.69
1273.81
1271.76
1269.46
1266.97
1264.34
1261.62
1258.76
1255.75
1252.71
1249.7
1246.59
1243.2
1239.94
1236.72
1233.17
1229.34
1225.99
1222.66
1219.26
1215.21
1210.37
1205.91
1201.52
1196.9
1192.41
1187.04
1181.36
1175.69
1169.82
1163.74
1157.51
1151.47
1145.66
1139.68
1133.35
1126.79
1120.22
1113.66
1106.83
1099.5
1091.81
1083.99
1076.06
1068.35
1061.14
1053.69
1045.47
1036.58
1027.12
1018.14
1009.31
999.319
988.235
977.148
967.017
956.442
943.66
927.539
906.995
881.936
848.999
802.49
737.922
655.756
567.865
484.511
407.659
339.398
282.796
238.439
205.488
182.547
167.472
157.986
152.235
148.848
146.894
145.783
145.161
144.816
144.626
144.523
144.466
1343.09
1343.14
1343.1
1343.02
1342.87
1342.77
1342.86
1343.25
1343.84
1343.88
1343.59
1342.95
1342.06
1341.09
1340
1338.9
1337.97
1337.35
1336.88
1336.35
1335.6
1334.61
1333.38
1332.02
1330.56
1329.08
1327.66
1326.41
1325.45
1324.73
1324.13
1323.45
1322.58
1321.53
1320.3
1318.92
1317.39
1315.78
1314.12
1312.51
1311.01
1309.72
1308.51
1307.17
1305.74
1304.23
1302.5
1300.52
1298.33
1295.97
1293.44
1290.72
1287.83
1284.84
1281.74
1278.47
1275.02
1271.64
1268.17
1264.47
1260.53
1256.97
1253.45
1249.87
1245.51
1240.76
1236.3
1231.83
1227.04
1222.29
1217.3
1211.39
1205.54
1199.63
1193.51
1187.27
1181.16
1175.16
1169.04
1162.7
1156.16
1149.5
1142.67
1135.57
1128.13
1120.36
1112.37
1104.29
1096.34
1088.55
1080.71
1072.73
1064.42
1055.69
1047.15
1038.93
1030.17
1020.71
1011.12
1002.08
992.263
981.252
970.265
959.952
949.274
936.372
919.603
898.66
872.247
834.799
779.907
704.218
613.529
523.432
439.685
364.332
300.851
250.684
213.237
187.125
170.028
159.35
152.939
149.205
147.073
145.874
145.208
144.842
144.641
1379.08
1378.37
1377.45
1376.46
1375.36
1374.33
1373.53
1372.99
1372.47
1371.8
1370.93
1369.86
1368.64
1367.36
1366.07
1364.83
1363.78
1363.02
1362.48
1362.02
1361.53
1360.91
1360.13
1359.22
1358.21
1357.13
1356.05
1355.06
1354.27
1353.65
1353.13
1352.58
1351.96
1351.19
1350.26
1349.17
1347.93
1346.57
1345.12
1343.67
1342.31
1340.99
1339.65
1338.32
1336.93
1335.37
1333.61
1331.66
1329.52
1327.16
1324.59
1321.84
1318.91
1315.78
1312.44
1308.97
1305.45
1301.77
1297.93
1293.91
1290.04
1286.27
1282.38
1277.85
1273.1
1268.55
1263.95
1259.04
1253.98
1249
1243.15
1237.17
1231.17
1224.99
1218.68
1212.47
1206.33
1200.09
1193.66
1187.06
1180.3
1173.31
1166.03
1158.44
1150.56
1142.47
1134.29
1126.16
1118.07
1109.96
1101.77
1093.31
1084.53
1075.63
1066.74
1057.75
1048.62
1039.69
1031.23
1022.39
1012.74
1003.01
993.604
983.436
972.606
962.308
952.548
941.622
927.453
909.52
887.238
855.715
807.688
737.758
647.542
552.838
463.838
383.218
314.572
260.003
219.15
190.645
172.031
160.458
153.547
149.542
147.264
145.986
1407.78
1406.76
1405.57
1404.31
1402.99
1401.7
1400.52
1399.58
1398.91
1398.37
1397.86
1397.28
1396.59
1395.8
1394.93
1394.01
1393.1
1392.29
1391.66
1391.21
1390.86
1390.54
1390.17
1389.7
1389.14
1388.49
1387.76
1387
1386.3
1385.71
1385.23
1384.82
1384.42
1383.95
1383.37
1382.64
1381.76
1380.73
1379.54
1378.26
1376.94
1375.58
1374.21
1372.84
1371.42
1369.87
1368.19
1366.37
1364.34
1362.09
1359.63
1356.98
1354.09
1350.95
1347.6
1344.12
1340.45
1336.58
1332.66
1328.61
1324.43
1320.37
1316.2
1311.55
1306.71
1302
1297.23
1292.21
1286.91
1281.66
1275.94
1269.89
1263.78
1257.51
1251.1
1244.78
1238.52
1232.16
1225.64
1218.94
1212.06
1204.95
1197.55
1189.86
1181.91
1173.77
1165.55
1157.33
1149.11
1140.83
1132.44
1123.81
1114.91
1105.81
1096.58
1087.29
1078.01
1068.89
1059.83
1050.48
1040.85
1031.56
1022.67
1013.31
1003.6
994.271
984.778
974.368
964.46
955.522
946.042
933.769
918.335
899.213
871.64
828.083
761.98
672.869
574.949
482.079
397.683
325.318
267.536
224.16
193.843
174.032
161.702
154.321
1433.86
1433.12
1432.32
1431.43
1430.5
1429.54
1428.63
1427.85
1427.24
1426.76
1426.35
1425.94
1425.49
1425
1424.44
1423.84
1423.25
1422.72
1422.3
1422.02
1421.84
1421.7
1421.55
1421.35
1421.08
1420.73
1420.32
1419.87
1419.43
1419.05
1418.73
1418.44
1418.13
1417.77
1417.3
1416.69
1415.93
1415
1413.92
1412.71
1411.38
1409.99
1408.55
1407.04
1405.42
1403.71
1401.86
1399.82
1397.59
1395.17
1392.53
1389.64
1386.47
1383.12
1379.58
1375.75
1371.7
1367.8
1363.71
1359.28
1354.91
1350.54
1345.76
1340.8
1335.9
1330.92
1325.75
1320.35
1314.81
1309.02
1302.94
1296.74
1290.36
1283.89
1277.46
1271.08
1264.6
1257.98
1251.18
1244.19
1236.97
1229.49
1221.74
1213.77
1205.64
1197.43
1189.19
1180.91
1172.55
1164.05
1155.34
1146.39
1137.22
1127.89
1118.46
1109.04
1099.65
1090.19
1080.51
1070.72
1061.1
1051.49
1041.64
1031.92
1022.83
1013.62
1003.97
994.941
986.189
976.52
967.313
959.429
951.235
940.579
927.601
911.221
886.419
845.65
781.707
693.155
592.977
497.493
410.57
335.584
275.402
229.977
198
1461.84
1461.25
1460.65
1460.01
1459.34
1458.65
1457.99
1457.42
1456.95
1456.6
1456.32
1456.08
1455.85
1455.61
1455.34
1455.05
1454.77
1454.54
1454.38
1454.34
1454.36
1454.42
1454.48
1454.52
1454.49
1454.41
1454.25
1454.05
1453.83
1453.62
1453.42
1453.21
1452.95
1452.62
1452.18
1451.6
1450.85
1449.92
1448.82
1447.56
1446.17
1444.66
1443.04
1441.3
1439.46
1437.49
1435.34
1433.03
1430.54
1427.83
1424.85
1421.62
1418.24
1414.6
1410.6
1406.39
1402.5
1398.31
1393.72
1389.04
1384.5
1379.61
1374.52
1369.41
1364.23
1358.9
1353.37
1347.66
1341.75
1335.62
1329.3
1322.85
1316.33
1309.82
1303.31
1296.73
1290
1283.11
1276.03
1268.74
1261.22
1253.46
1245.51
1237.43
1229.27
1221.06
1212.79
1204.43
1195.91
1187.2
1178.27
1169.14
1159.84
1150.42
1140.94
1131.41
1121.76
1111.95
1102.06
1092.15
1082.12
1071.95
1061.91
1052.05
1042.06
1032.2
1023.13
1014.22
1005.01
996.472
988.391
979.553
971.567
965.232
958.355
949.493
939.202
925.359
902.722
863.786
801.095
712.891
611.263
514.366
425.999
349.047
286.724
239.155
1491.29
1490.78
1490.32
1489.88
1489.44
1489
1488.56
1488.15
1487.8
1487.55
1487.38
1487.29
1487.26
1487.26
1487.27
1487.28
1487.29
1487.31
1487.37
1487.49
1487.68
1487.91
1488.17
1488.43
1488.66
1488.83
1488.93
1488.95
1488.91
1488.83
1488.71
1488.55
1488.35
1488.07
1487.69
1487.18
1486.51
1485.65
1484.61
1483.37
1481.96
1480.38
1478.64
1476.76
1474.75
1472.58
1470.25
1467.77
1465.12
1462.24
1459.1
1455.77
1452.28
1448.49
1444.33
1440
1435.97
1431.65
1426.92
1421.99
1417.24
1412.3
1407.09
1401.79
1396.4
1390.9
1385.24
1379.42
1373.4
1367.17
1360.77
1354.26
1347.71
1341.13
1334.53
1327.85
1321.05
1314.08
1306.95
1299.62
1292.09
1284.37
1276.49
1268.5
1260.43
1252.31
1244.11
1235.8
1227.35
1218.72
1209.9
1200.88
1191.68
1182.35
1172.91
1163.38
1153.71
1143.92
1134.02
1124.01
1113.83
1103.53
1093.23
1082.87
1072.43
1062.2
1052.3
1042.47
1032.9
1024.14
1015.55
1006.88
999.196
991.851
984.252
978.138
973.731
968.387
962.006
954.67
943.373
922.82
885.634
824.416
737.415
635.379
538.233
449.43
1521.02
1520.58
1520.22
1519.91
1519.64
1519.4
1519.18
1518.99
1518.84
1518.75
1518.75
1518.8
1518.94
1519.14
1519.37
1519.64
1519.91
1520.19
1520.49
1520.81
1521.17
1521.56
1521.98
1522.4
1522.79
1523.15
1523.43
1523.62
1523.73
1523.73
1523.67
1523.55
1523.34
1523.04
1522.64
1522.1
1521.4
1520.53
1519.45
1518.17
1516.69
1515.01
1513.13
1511.08
1508.86
1506.46
1503.9
1501.18
1498.29
1495.18
1491.82
1488.3
1484.63
1480.65
1476.32
1471.84
1467.61
1463.12
1458.21
1453.1
1448.16
1443.1
1437.78
1432.31
1426.75
1421.09
1415.31
1409.38
1403.26
1396.94
1390.48
1383.94
1377.36
1370.74
1364.07
1357.33
1350.46
1343.46
1336.31
1328.98
1321.5
1313.86
1306.09
1298.23
1290.3
1282.3
1274.22
1266.04
1257.72
1249.23
1240.56
1231.71
1222.68
1213.51
1204.21
1194.78
1185.23
1175.56
1165.76
1155.8
1145.67
1135.39
1124.99
1114.46
1103.86
1093.34
1082.91
1072.54
1062.48
1052.77
1043.19
1034.08
1025.84
1017.73
1010.01
1003.65
997.255
991.572
988.082
985.598
982.56
979.505
975.419
967.043
949.067
914.544
856.429
773.016
1550.34
1550.08
1549.89
1549.77
1549.7
1549.68
1549.69
1549.74
1549.85
1550.03
1550.27
1550.58
1550.95
1551.38
1551.85
1552.34
1552.84
1553.34
1553.86
1554.38
1554.91
1555.44
1555.97
1556.47
1556.92
1557.3
1557.59
1557.77
1557.81
1557.76
1557.61
1557.35
1556.98
1556.47
1555.81
1555
1554.01
1552.81
1551.41
1549.79
1547.94
1545.89
1543.63
1541.17
1538.52
1535.68
1532.68
1529.5
1526.1
1522.48
1518.72
1514.79
1510.59
1506.03
1501.38
1496.93
1492.2
1487.08
1481.82
1476.7
1471.47
1466.03
1460.42
1454.71
1448.91
1443.01
1436.97
1430.76
1424.37
1417.87
1411.31
1404.72
1398.09
1391.39
1384.6
1377.71
1370.71
1363.57
1356.3
1348.9
1341.38
1333.76
1326.06
1318.29
1310.46
1302.55
1294.53
1286.38
1278.08
1269.61
1260.97
1252.16
1243.2
1234.11
1224.89
1215.55
1206.08
1196.47
1186.69
1176.73
1166.6
1156.29
1145.82
1135.25
1124.65
1114.02
1103.44
1093.01
1082.7
1072.54
1062.77
1053.38
1044.27
1035.95
1028.5
1021.26
1015.05
1010.18
1005.36
1002.41
1002.19
1002.21
1002.52
1003.18
1002.74
998.311
984.263
1579.78
1579.65
1579.61
1579.62
1579.7
1579.84
1580.04
1580.29
1580.59
1580.95
1581.37
1581.85
1582.38
1582.97
1583.6
1584.25
1584.92
1585.58
1586.24