/*--------------------------------*- C++ -*----------------------------------*\
| =========                 |                                                 |
| \\      /  F ield         | OpenFOAM: The Open Source CFD Toolbox           |
|  \\    /   O peration     | Version:  v1706                                 |
|   \\  /    A nd           | Web:      www.OpenFOAM.com                      |
|    \\/     M anipulation  |                                                 |
\*---------------------------------------------------------------------------*/
FoamFile
{
    version     2.0;
    format      ascii;
    class       volScalarField;
    location    "1.1e-05";
    object      Tv;
}
// * * * * * * * * * * * * * * * * * * * * * * * * * * * * * * * * * * * * * //

dimensions      [0 0 0 1 0 0 0];


internalField   nonuniform List<scalar> 
29871
(
144.4
144.4
144.4
144.4
144.4
144.4
144.4
144.4
144.4
144.4
144.4
144.4
144.4
144.4
144.4
144.4
144.4
144.4
144.4
144.4
144.4
144.4
144.4
144.4
144.4
144.4
144.4
144.4
144.4
144.4
144.4
144.4
144.4
144.4
144.4
144.4
144.4
144.4
144.4
144.4
144.4
144.4
144.4
144.4
144.4
144.4
144.4
144.4
144.4
144.4
144.4
144.4
144.4
144.4
144.4
144.4
144.4
144.4
144.4
144.4
144.4
144.4
144.4
144.4
144.4
144.4
144.4
144.4
144.4
144.4
144.4
144.4
144.4
144.4
144.4
144.4
144.4
144.4
144.4
144.4
144.4
144.4
144.4
144.4
144.4
144.4
144.4
144.4
144.4
144.4
144.4
144.4
144.4
144.4
144.4
144.4
144.4
144.4
144.4
144.4
144.4
144.4
144.4
144.4
144.4
144.4
144.4
144.4
144.4
144.4
144.4
144.4
144.4
144.4
144.4
144.4
144.4
144.4
144.4
144.4
144.4
144.4
144.4
144.4
144.4
144.4
144.4
144.4
144.4
144.4
144.4
144.4
144.4
144.4
144.4
144.4
144.4
144.4
144.4
144.4
144.4
144.4
144.4
144.4
144.4
144.4
144.4
144.4
144.4
144.4
144.4
144.4
144.4
144.4
144.4
144.4
144.4
144.4
144.4
144.4
144.4
144.4
144.4
144.4
144.4
144.4
144.4
144.4
144.4
144.4
144.4
144.4
144.4
144.4
144.4
144.4
144.4
144.4
144.4
144.4
144.4
144.4
144.4
144.4
144.4
144.4
144.4
144.4
144.4
144.4
144.4
144.4
144.4
144.4
144.4
144.4
144.4
144.4
144.4
144.4
144.4
144.4
144.4
144.4
144.4
144.4
144.4
144.4
144.4
144.4
144.4
144.4
144.4
144.4
144.4
144.4
144.4
144.4
144.4
144.4
144.4
144.4
144.4
144.4
144.4
144.4
144.4
144.4
144.4
144.4
144.4
144.4
144.4
144.4
144.4
144.4
144.4
144.4
144.4
144.4
144.4
144.4
144.4
144.4
144.4
144.4
144.4
144.4
144.4
144.4
144.4
144.4
144.4
144.4
144.4
144.4
144.4
144.4
144.4
144.4
144.4
144.4
144.4
144.4
144.4
144.4
144.4
144.4
144.4
144.4
144.4
144.4
144.4
144.4
144.4
144.4
144.4
144.4
144.4
144.4
144.4
144.4
144.4
144.4
144.4
144.4
144.4
144.4
144.4
144.4
144.4
144.4
144.4
144.4
144.4
144.4
144.4
144.4
144.4
144.4
144.4
144.4
144.4
144.4
144.4
144.4
144.4
144.4
144.4
144.4
144.4
144.4
144.4
144.4
144.4
144.4
144.4
144.4
144.4
144.4
144.4
144.4
144.4
144.4
144.4
144.4
144.4
144.4
144.4
144.4
144.4
144.4
144.4
144.4
144.4
144.4
144.4
144.4
144.4
144.4
144.4
144.4
144.4
144.4
144.4
144.4
144.4
144.4
144.4
144.4
144.4
144.4
144.4
144.4
144.4
144.4
144.4
144.4
144.4
144.4
144.4
144.4
144.4
144.4
144.4
144.4
144.4
144.4
144.4
144.4
144.4
144.4
144.4
144.4
144.4
144.4
144.4
144.4
144.4
144.4
144.4
144.4
144.4
144.4
144.4
144.4
144.4
144.4
144.4
144.4
144.4
144.4
144.4
144.4
144.4
144.4
144.4
144.4
144.4
144.4
144.4
144.4
144.4
144.4
144.4
144.4
144.4
144.4
144.4
144.4
144.4
144.4
144.4
144.4
144.4
144.4
144.4
144.4
144.4
144.4
144.4
144.4
144.4
144.4
144.4
144.4
144.4
144.4
144.4
144.4
144.4
144.4
144.4
144.4
144.4
144.4
144.4
144.4
144.4
144.4
144.4
144.4
144.4
144.4
144.4
144.4
144.4
144.4
144.4
144.4
144.4
144.4
144.4
144.4
144.4
144.4
144.4
144.4
144.4
144.4
144.4
144.4
144.4
144.4
144.4
144.4
144.4
144.4
144.4
144.4
144.4
144.4
144.4
144.4
144.4
144.4
144.4
144.4
144.4
144.4
144.4
144.4
144.4
144.4
144.4
144.4
144.4
144.4
144.4
144.4
144.4
144.4
144.4
144.4
144.4
144.4
144.4
144.4
144.4
144.4
144.4
144.4
144.4
144.4
144.4
144.4
144.4
144.4
144.4
144.4
144.4
144.4
144.4
144.4
144.4
144.4
144.4
144.4
144.4
144.4
144.4
144.4
144.4
144.4
144.4
144.4
144.4
144.4
144.4
144.4
144.4
144.4
144.4
144.4
144.4
144.4
144.4
144.4
144.4
144.4
144.4
144.4
144.4
144.4
144.4
144.4
144.4
144.4
144.4
144.4
144.4
144.4
144.4
144.4
144.4
144.4
144.4
144.4
144.4
144.4
144.4
144.4
144.4
144.4
144.4
144.4
144.4
144.4
144.4
144.4
144.4
144.4
144.4
144.4
144.4
144.4
144.4
144.4
144.4
144.4
144.4
144.4
144.4
144.4
144.4
144.4
144.4
144.4
144.4
144.4
144.4
144.4
144.4
144.4
144.4
144.4
144.4
144.4
144.4
144.4
144.4
144.4
144.4
144.4
144.4
144.4
144.4
144.4
144.4
144.4
144.4
144.4
144.4
144.4
144.4
144.4
144.4
144.4
144.4
144.4
144.4
144.4
144.4
144.4
144.4
144.4
144.4
144.4
144.4
144.4
144.4
144.4
144.4
144.4
144.4
144.4
144.4
144.4
144.4
144.4
144.4
144.4
144.4
144.4
144.4
144.4
144.4
144.4
144.4
144.4
144.4
144.4
144.4
144.4
144.4
144.4
144.4
144.4
144.4
144.4
144.4
144.4
144.4
144.4
144.4
144.4
144.4
144.4
144.4
144.4
144.4
144.4
144.4
144.4
144.4
144.4
144.4
144.4
144.4
144.4
144.4
144.4
144.4
144.4
144.4
144.4
144.4
144.4
144.4
144.4
144.4
144.4
144.4
144.4
144.4
144.4
144.4
144.4
144.4
144.4
144.4
144.4
144.4
144.4
144.4
144.4
144.4
144.4
144.4
144.4
144.4
144.4
144.4
144.4
144.4
144.4
144.4
144.4
144.4
144.4
144.4
144.4
144.4
144.4
144.4
144.4
144.4
144.4
144.4
144.4
144.4
144.4
144.4
144.4
144.4
144.4
144.4
144.4
144.4
144.4
144.4
144.4
144.4
144.4
144.4
144.4
144.4
144.4
144.4
144.4
144.4
144.4
144.4
144.4
144.4
144.4
144.4
144.4
144.4
144.4
144.4
144.4
144.4
144.4
144.4
144.4
144.4
144.4
144.4
144.4
144.4
144.4
144.4
144.4
144.4
144.4
144.4
144.4
144.4
144.4
144.4
144.4
144.4
144.4
144.4
144.4
144.4
144.4
144.4
144.4
144.4
144.4
144.4
144.4
144.4
144.4
144.4
144.4
144.4
144.4
144.4
144.4
144.4
144.4
144.4
144.4
144.4
144.4
144.4
144.4
144.4
144.4
144.4
144.4
144.4
144.4
144.4
144.4
144.4
144.4
144.4
144.4
144.4
144.4
144.4
144.4
144.4
144.4
144.4
144.4
144.4
144.4
144.4
144.4
144.4
144.4
144.4
144.4
144.4
144.4
144.4
144.4
144.4
144.4
144.4
144.4
144.4
144.4
144.4
144.4
144.4
144.4
144.4
144.4
144.4
144.4
144.4
144.4
144.4
144.4
144.4
144.4
144.4
144.4
144.4
144.4
144.4
144.4
144.4
144.4
144.4
144.4
144.4
144.4
144.4
144.4
144.4
144.4
144.4
144.4
144.4
144.4
144.4
144.4
144.4
144.4
144.4
144.4
144.4
144.4
144.4
144.4
144.4
144.4
144.4
144.4
144.4
144.4
144.4
144.4
144.4
144.4
144.4
144.4
144.4
144.4
144.4
144.4
144.4
144.4
144.4
144.4
144.4
144.4
144.4
144.4
144.4
144.4
144.4
144.4
144.4
144.4
144.4
144.4
144.4
144.4
144.4
144.4
144.4
144.4
144.4
144.4
144.4
144.4
144.4
144.4
144.4
144.4
144.4
144.4
144.4
144.4
144.4
144.4
144.4
144.4
144.4
144.4
144.4
144.4
144.4
144.4
144.4
144.4
144.4
144.4
144.4
144.4
144.4
144.4
144.4
144.4
144.4
144.4
144.4
144.4
144.4
144.4
144.4
144.4
144.4
144.4
144.4
144.4
144.4
144.4
144.4
144.4
144.4
144.4
144.4
144.4
144.4
144.4
144.4
144.4
144.4
144.4
144.4
144.4
144.4
144.4
144.4
144.4
144.4
144.4
144.4
144.4
144.4
144.4
144.4
144.4
144.4
144.4
144.4
144.4
144.4
144.4
144.4
144.4
144.4
144.4
144.4
144.4
144.4
144.4
144.4
144.4
144.4
144.4
144.4
144.4
144.4
144.4
144.4
144.4
144.4
144.4
144.4
144.4
144.4
144.4
144.4
144.4
144.4
144.4
144.4
144.4
144.4
144.4
144.4
144.4
144.4
144.4
144.4
144.4
144.4
144.4
144.4
144.4
144.4
144.4
144.4
144.4
144.4
144.4
144.4
144.4
144.4
144.4
144.4
144.4
144.4
144.4
144.4
144.4
144.4
144.4
144.4
144.4
144.4
144.4
144.4
144.4
144.4
144.4
144.4
144.4
144.4
144.4
144.4
144.4
144.4
144.4
144.4
144.4
144.4
144.4
144.4
144.4
144.4
144.4
144.4
144.4
144.4
144.4
144.4
144.4
144.4
144.4
144.4
144.4
144.4
144.4
144.4
144.4
144.4
144.4
144.4
144.4
144.4
144.4
144.4
144.4
144.4
144.4
144.4
144.4
144.4
144.4
144.4
144.4
144.4
144.4
144.4
144.4
144.4
144.4
144.4
144.4
144.4
144.4
144.4
144.4
144.4
144.4
144.4
144.4
144.4
144.4
144.4
144.4
144.4
144.4
144.4
144.4
144.4
144.4
144.4
144.4
144.4
144.4
144.4
144.4
144.4
144.4
144.4
144.4
144.4
144.4
144.4
144.4
144.4
144.4
144.4
144.4
144.4
144.4
144.4
144.4
144.4
144.4
144.4
144.4
144.4
144.4
144.4
144.4
144.4
144.4
144.4
144.4
144.4
144.4
144.4
144.4
144.4
144.4
144.4
144.4
144.4
144.4
144.4
144.4
144.4
144.4
144.4
144.4
144.4
144.4
144.4
144.4
144.4
144.4
144.4
144.4
144.4
144.4
144.4
144.4
144.4
144.4
144.4
144.4
144.4
144.4
144.4
144.4
144.4
144.4
144.4
144.4
144.4
144.4
144.4
144.4
144.4
144.4
144.4
144.4
144.4
144.4
144.4
144.4
144.4
144.4
144.4
144.4
144.4
144.4
144.4
144.4
144.4
144.4
144.4
144.4
144.4
144.4
144.4
144.4
144.4
144.4
144.4
144.4
144.4
144.4
144.4
144.4
144.4
144.4
144.4
144.4
144.4
144.4
144.4
144.4
144.4
144.4
144.4
144.4
144.4
144.4
144.4
144.4
144.4
144.4
144.4
144.4
144.4
144.4
144.4
144.4
144.4
144.4
144.4
144.4
144.4
144.4
144.4
144.4
144.4
144.4
144.4
144.4
144.4
144.4
144.4
144.4
144.4
144.4
144.4
144.4
144.4
144.4
144.4
144.4
144.4
144.4
144.4
144.4
144.4
144.4
144.4
144.4
144.4
144.4
144.4
144.4
144.4
144.4
144.4
144.4
144.4
144.4
144.4
144.4
144.4
144.4
144.4
144.4
144.4
144.4
144.4
144.401
144.401
144.401
144.401
144.401
144.401
144.401
144.401
144.401
144.401
144.401
144.401
144.401
144.401
144.401
144.401
144.401
144.401
144.401
144.401
144.401
144.401
144.4
144.4
144.4
144.4
144.4
144.4
144.4
144.4
144.4
144.4
144.4
144.4
144.4
144.4
144.4
144.4
144.4
144.4
144.4
144.4
144.4
144.4
144.4
144.4
144.4
144.4
144.4
144.4
144.4
144.4
144.4
144.4
144.4
144.4
144.4
144.4
144.4
144.4
144.4
144.4
144.4
144.4
144.4
144.4
144.4
144.4
144.4
144.4
144.4
144.4
144.4
144.4
144.4
144.4
144.4
144.4
144.4
144.4
144.4
144.4
144.4
144.4
144.4
144.4
144.4
144.4
144.4
144.4
144.4
144.4
144.4
144.4
144.401
144.401
144.401
144.401
144.401
144.401
144.401
144.402
144.402
144.402
144.402
144.403
144.403
144.403
144.404
144.404
144.405
144.405
144.406
144.406
144.407
144.407
144.408
144.408
144.409
144.409
144.41
144.41
144.41
144.41
144.41
144.41
144.41
144.41
144.41
144.409
144.409
144.408
144.408
144.407
144.406
144.406
144.405
144.404
144.404
144.403
144.403
144.402
144.402
144.402
144.401
144.401
144.401
144.401
144.4
144.4
144.4
144.4
144.4
144.4
144.4
144.4
144.4
144.4
144.4
144.4
144.4
144.4
144.4
144.4
144.4
144.4
144.4
144.4
144.4
144.4
144.4
144.4
144.4
144.4
144.4
144.4
144.4
144.4
144.4
144.4
144.4
144.4
144.4
144.4
144.4
144.4
144.4
144.4
144.4
144.4
144.4
144.4
144.4
144.4
144.4
144.4
144.401
144.401
144.401
144.401
144.401
144.402
144.402
144.402
144.403
144.403
144.404
144.404
144.405
144.406
144.407
144.408
144.41
144.411
144.413
144.415
144.418
144.42
144.423
144.427
144.431
144.435
144.44
144.445
144.45
144.455
144.461
144.467
144.473
144.479
144.485
144.49
144.496
144.502
144.507
144.511
144.515
144.518
144.52
144.521
144.521
144.52
144.517
144.513
144.508
144.503
144.496
144.489
144.482
144.474
144.466
144.459
144.451
144.444
144.438
144.432
144.427
144.422
144.418
144.415
144.412
144.409
144.407
144.405
144.404
144.403
144.402
144.401
144.401
144.401
144.401
144.4
144.4
144.4
144.4
144.4
144.4
144.4
144.4
144.4
144.4
144.4
144.4
144.4
144.4
144.4
144.4
144.4
144.4
144.4
144.4
144.4
144.4
144.4
144.4
144.4
144.4
144.4
144.4
144.4
144.4
144.4
144.4
144.4
144.4
144.402
144.403
144.403
144.404
144.405
144.406
144.407
144.408
144.41
144.412
144.414
144.417
144.421
144.425
144.429
144.435
144.441
144.449
144.458
144.469
144.481
144.495
144.51
144.528
144.549
144.572
144.599
144.63
144.664
144.702
144.745
144.791
144.841
144.894
144.949
145.006
145.064
145.122
145.182
145.241
145.301
145.36
145.418
145.473
145.524
145.569
145.607
145.636
145.654
145.663
145.66
145.646
145.62
145.583
145.536
145.48
145.417
145.347
145.273
145.195
145.116
145.037
144.959
144.885
144.816
144.753
144.698
144.648
144.605
144.567
144.534
144.505
144.481
144.461
144.445
144.433
144.424
144.417
144.412
144.409
144.406
144.404
144.403
144.402
144.401
144.401
144.4
144.4
144.4
144.4
144.4
144.4
144.4
144.4
144.4
144.4
144.4
144.4
144.4
144.4
144.4
144.4
144.4
144.4
144.4
144.4
144.4
144.4
144.4
144.4
144.4
144.4
144.4
144.4
144.4
144.4
144.406
144.408
144.409
144.411
144.414
144.417
144.421
144.425
144.43
144.437
144.444
144.453
144.464
144.478
144.493
144.512
144.534
144.561
144.591
144.628
144.671
144.721
144.781
144.851
144.932
145.025
145.132
145.253
145.388
145.54
145.709
145.898
146.109
146.344
146.601
146.882
147.183
147.502
147.834
148.175
148.52
148.863
149.202
149.533
149.856
150.173
150.482
150.784
151.075
151.35
151.604
151.831
152.025
152.182
152.298
152.371
152.398
152.382
152.316
152.202
152.041
151.834
151.586
151.296
150.968
150.605
150.21
149.787
149.343
148.884
148.418
147.957
147.514
147.099
146.715
146.361
146.036
145.74
145.475
145.244
145.048
144.887
144.76
144.662
144.589
144.535
144.495
144.466
144.445
144.429
144.419
144.412
144.408
144.405
144.403
144.402
144.401
144.401
144.4
144.4
144.4
144.4
144.4
144.4
144.4
144.4
144.4
144.4
144.4
144.4
144.4
144.4
144.4
144.4
144.4
144.4
144.4
144.4
144.4
144.4
144.4
144.4
144.4
144.469
144.484
144.503
144.525
144.552
144.585
144.623
144.67
144.725
144.791
144.87
144.964
145.076
145.207
145.36
145.538
145.742
145.976
146.243
146.547
146.891
147.279
147.713
148.191
148.714
149.276
149.874
150.5
151.153
151.831
152.537
153.273
154.037
154.823
155.626
156.437
157.246
158.044
158.823
159.573
160.29
160.968
161.607
162.207
162.777
163.322
163.843
164.338
164.801
165.227
165.608
165.937
166.209
166.419
166.565
166.645
166.658
166.611
166.493
166.302
166.042
165.717
165.325
164.865
164.339
163.745
163.083
162.35
161.549
160.68
159.747
158.761
157.738
156.701
155.66
154.611
153.547
152.468
151.385
150.318
149.294
148.343
147.497
146.778
146.194
145.73
145.366
145.085
144.871
144.716
144.607
144.534
144.486
144.454
144.434
144.42
144.412
144.407
144.404
144.402
144.401
144.401
144.4
144.4
144.4
144.4
144.4
144.4
144.4
144.4
144.4
144.4
144.4
144.4
144.4
144.4
144.4
144.4
144.4
144.4
144.4
144.4
144.4
145.108
145.255
145.43
145.636
145.877
146.156
146.476
146.842
147.259
147.729
148.258
148.846
149.492
150.195
150.95
151.75
152.592
153.474
154.396
155.36
156.363
157.401
158.466
159.551
160.645
161.74
162.826
163.896
164.95
165.996
167.043
168.091
169.137
170.174
171.193
172.187
173.146
174.064
174.935
175.753
176.517
177.226
177.882
178.491
179.068
179.617
180.136
180.619
181.061
181.456
181.8
182.087
182.311
182.469
182.562
182.584
182.555
182.459
182.294
182.057
181.754
181.387
180.955
180.456
179.889
179.252
178.544
177.759
176.895
175.952
174.929
173.826
172.653
171.433
170.174
168.863
167.478
166.005
164.438
162.781
161.04
159.237
157.407
155.608
153.893
152.286
150.789
149.409
148.177
147.136
146.314
145.703
145.267
144.962
144.753
144.616
144.53
144.477
144.445
144.425
144.414
144.408
144.404
144.402
144.401
144.401
144.4
144.4
144.4
144.4
144.4
144.4
144.4
144.4
144.4
144.4
144.4
144.4
144.4
144.4
144.4
144.4
144.4
149.604
150.368
151.198
152.088
153.031
154.021
155.054
156.129
157.247
158.404
159.597
160.82
162.063
163.319
164.579
165.835
167.085
168.332
169.585
170.844
172.107
173.367
174.615
175.846
177.05
178.223
179.357
180.451
181.508
182.547
183.575
184.59
185.585
186.555
187.492
188.393
189.251
190.062
190.822
191.53
192.185
192.79
193.346
193.859
194.35
194.814
195.242
195.629
195.973
196.272
196.522
196.72
196.859
196.938
196.951
196.921
196.837
196.695
196.491
196.223
195.896
195.514
195.074
194.572
194.011
193.388
192.7
191.945
191.12
190.224
189.256
188.214
187.1
185.93
184.712
183.428
182.057
180.586
179.008
177.32
175.516
173.602
171.591
169.523
167.438
165.332
163.174
160.938
158.633
156.318
154.093
152.05
150.232
148.661
147.362
146.36
145.646
145.168
144.86
144.667
144.551
144.484
144.446
144.424
144.413
144.407
144.403
144.402
144.401
144.4
144.4
144.4
144.4
144.4
144.4
144.4
144.4
144.4
144.4
144.4
144.4
144.4
144.4
144.4
144.4
162.195
163.551
164.925
166.307
167.688
169.064
170.436
171.808
173.183
174.561
175.935
177.298
178.644
179.966
181.26
182.52
183.75
184.96
186.16
187.349
188.523
189.676
190.804
191.902
192.966
193.992
194.979
195.924
196.833
197.73
198.615
199.48
200.318
201.129
201.91
202.659
203.373
204.05
204.685
205.279
205.831
206.342
206.815
207.251
207.658
208.034
208.376
208.679
208.943
209.167
209.348
209.481
209.558
209.569
209.544
209.47
209.347
209.172
208.941
208.652
208.307
207.913
207.467
206.964
206.408
205.797
205.129
204.402
203.614
202.765
201.855
200.883
199.846
198.747
197.586
196.351
195.03
193.618
192.114
190.517
188.823
187.034
185.165
183.235
181.276
179.251
177.114
174.833
172.398
169.837
167.221
164.606
161.983
159.327
156.656
154.071
151.71
149.673
148.005
146.724
145.818
145.228
144.867
144.656
144.536
144.471
144.436
144.418
144.409
144.404
144.402
144.401
144.4
144.4
144.4
144.4
144.4
144.4
144.4
144.4
144.4
144.4
144.4
144.4
144.4
178.886
180.332
181.756
183.151
184.515
185.845
187.149
188.436
189.709
190.965
192.2
193.409
194.59
195.74
196.857
197.939
198.989
200.024
201.051
202.061
203.051
204.018
204.963
205.885
206.784
207.656
208.5
209.314
210.099
210.868
211.622
212.36
213.08
213.781
214.459
215.114
215.742
216.339
216.901
217.428
217.921
218.381
218.807
219.2
219.56
219.886
220.178
220.432
220.648
220.826
220.963
221.053
221.073
221.057
220.997
220.887
220.729
220.521
220.261
219.948
219.581
219.166
218.702
218.181
217.611
216.991
216.32
215.595
214.813
213.973
213.078
212.127
211.116
210.045
208.912
207.709
206.428
205.07
203.638
202.131
200.547
198.891
197.184
195.427
193.613
191.707
189.682
187.521
185.225
182.826
180.382
177.914
175.359
172.652
169.774
166.781
163.771
160.783
157.818
154.92
152.219
149.878
147.999
146.612
145.679
145.104
144.772
144.591
144.496
144.447
144.422
144.411
144.405
144.402
144.401
144.4
144.4
144.4
144.4
144.4
144.4
144.4
144.4
144.4
144.4
193.82
195.109
196.368
197.595
198.787
199.945
201.07
202.168
203.257
204.33
205.383
206.413
207.42
208.406
209.371
210.315
211.237
212.137
213.02
213.894
214.758
215.611
216.453
217.284
218.103
218.909
219.698
220.467
221.212
221.936
222.642
223.333
224.009
224.671
225.316
225.942
226.546
227.125
227.676
228.192
228.673
229.123
229.544
229.934
230.293
230.618
230.91
231.165
231.383
231.563
231.704
231.805
231.845
231.837
231.795
231.704
231.561
231.369
231.127
230.834
230.49
230.097
229.656
229.163
228.613
228.017
227.377
226.691
225.951
225.158
224.31
223.409
222.452
221.44
220.369
219.238
218.04
216.771
215.44
214.045
212.585
211.055
209.464
207.84
206.178
204.451
202.634
200.713
198.68
196.543
194.345
192.123
189.849
187.461
184.909
182.195
179.375
176.531
173.627
170.589
167.39
164.099
160.808
157.571
154.458
151.613
149.215
147.378
146.108
145.319
144.871
144.633
144.512
144.453
144.424
144.411
144.405
144.402
144.401
144.4
144.4
144.4
144.4
144.4
144.4
144.4
208.133
209.202
210.244
211.26
212.253
213.224
214.174
215.105
216.024
216.933
217.832
218.72
219.599
220.468
221.329
222.18
223.019
223.842
224.65
225.448
226.239
227.023
227.801
228.573
229.338
230.093
230.835
231.557
232.257
232.938
233.605
234.258
234.897
235.521
236.129
236.719
237.289
237.836
238.356
238.843
239.293
239.71
240.095
240.45
240.773
241.06
241.314
241.534
241.716
241.86
241.964
242.02
242.022
241.993
241.92
241.799
241.626
241.402
241.126
240.802
240.426
240.004
239.534
239.009
238.428
237.803
237.138
236.429
235.666
234.851
233.986
233.067
232.092
231.064
229.982
228.842
227.638
226.37
225.047
223.669
222.229
220.723
219.161
217.576
215.956
214.266
212.489
210.624
208.666
206.621
204.552
202.472
200.335
198.089
195.7
193.183
190.605
187.991
185.286
182.432
179.419
176.311
173.145
169.871
166.458
162.957
159.469
156.076
152.894
150.12
147.936
146.407
145.458
144.926
144.652
144.517
144.453
144.423
144.41
144.404
144.402
144.401
144.4
144.4
144.4
144.4
144.4
144.4
220.49
221.404
222.306
223.196
224.075
224.944
225.803
226.648
227.48
228.302
229.118
229.929
230.737
231.541
232.341
233.137
233.924
234.696
235.453
236.203
236.949
237.689
238.426
239.159
239.887
240.607
241.318
242.013
242.688
243.342
243.981
244.604
245.212
245.805
246.381
246.938
247.478
247.995
248.489
248.952
249.382
249.774
250.131
250.454
250.742
250.991
251.206
251.386
251.529
251.631
251.687
251.691
251.668
251.603
251.491
251.332
251.124
250.863
250.552
250.194
249.785
249.33
248.826
248.268
247.657
247.004
246.31
245.572
244.781
243.937
243.044
242.102
241.105
240.058
238.959
237.807
236.597
235.328
234.008
232.637
231.211
229.725
228.189
226.627
225.024
223.352
221.6
219.768
217.849
215.859
213.857
211.849
209.782
207.618
205.328
202.944
200.527
198.076
195.539
192.872
190.097
187.252
184.32
181.251
178.033
174.714
171.333
167.843
164.227
160.564
156.974
153.584
150.585
148.195
146.52
145.49
144.926
144.644
144.509
144.448
144.421
144.409
144.404
144.402
144.401
144.4
144.4
144.4
231.681
232.506
233.326
234.139
234.948
235.752
236.549
237.335
238.106
238.869
239.629
240.388
241.146
241.903
242.66
243.416
244.167
244.909
245.637
246.357
247.072
247.781
248.487
249.189
249.887
250.58
251.266
251.942
252.602
253.243
253.864
254.466
255.05
255.616
256.162
256.689
257.196
257.681
258.141
258.574
258.976
259.341
259.67
259.963
260.215
260.427
260.602
260.74
260.837
260.888
260.889
260.862
260.796
260.684
260.525
260.323
260.071
259.767
259.415
259.018
258.571
258.078
257.538
256.944
256.304
255.622
254.897
254.126
253.304
252.428
251.503
250.533
249.516
248.449
247.334
246.169
244.953
243.683
242.363
240.995
239.577
238.108
236.595
235.046
233.449
231.79
230.057
228.249
226.367
224.432
222.485
220.524
218.503
216.393
214.169
211.863
209.528
207.163
204.726
202.182
199.576
196.919
194.165
191.285
188.31
185.266
182.129
178.854
175.433
171.926
168.348
164.662
160.905
157.201
153.701
150.604
148.144
146.444
145.422
144.879
144.615
144.494
144.44
144.417
144.407
144.403
144.401
144.4
242.074
242.835
243.593
244.349
245.102
245.856
246.607
247.351
248.084
248.809
249.532
250.253
250.973
251.695
252.418
253.142
253.866
254.588
255.302
256.008
256.706
257.397
258.083
258.762
259.436
260.104
260.766
261.418
262.06
262.684
263.29
263.874
264.437
264.978
265.497
265.993
266.465
266.912
267.334
267.728
268.091
268.419
268.712
268.968
269.181
269.352
269.485
269.576
269.617
269.613
269.578
269.502
269.383
269.219
269.009
268.755
268.453
268.101
267.703
267.261
266.771
266.235
265.653
265.023
264.351
263.636
262.877
262.073
261.218
260.311
259.353
258.355
257.317
256.234
255.105
253.929
252.706
251.435
250.116
248.75
247.34
245.885
244.389
242.849
241.26
239.611
237.897
236.114
234.271
232.389
230.489
228.561
226.576
224.508
222.345
220.109
217.841
215.545
213.183
210.728
208.22
205.66
203.007
200.253
197.46
194.615
191.66
188.588
185.428
182.191
178.848
175.372
171.78
168.128
164.397
160.597
156.849
153.327
150.247
147.845
146.229
145.289
144.807
144.579
144.477
144.432
144.413
144.406
144.402
252.535
253.247
253.958
254.668
255.38
256.094
256.808
257.519
258.224
258.926
259.625
260.323
261.02
261.719
262.419
263.12
263.821
264.521
265.215
265.902
266.581
267.251
267.914
268.569
269.215
269.851
270.478
271.093
271.693
272.275
272.836
273.373
273.886
274.373
274.835
275.269
275.675
276.052
276.399
276.714
276.995
277.241
277.448
277.614
277.738
277.82
277.85
277.84
277.795
277.707
277.575
277.399
277.178
276.912
276.601
276.245
275.841
275.392
274.9
274.362
273.781
273.155
272.486
271.777
271.025
270.23
269.391
268.504
267.567
266.581
265.556
264.498
263.399
262.258
261.072
259.843
258.569
257.251
255.89
254.487
253.044
251.559
250.03
248.45
246.815
245.122
243.37
241.57
239.736
237.877
235.98
234.028
232.001
229.895
227.729
225.528
223.291
220.993
218.62
216.19
213.705
211.135
208.487
205.809
203.071
200.222
197.302
194.341
191.293
188.137
184.895
181.573
178.167
174.65
171.013
167.316
163.566
159.769
156.047
152.593
149.636
147.4
145.95
145.137
144.732
144.545
144.462
144.426
261.709
262.391
263.073
263.754
264.437
265.122
265.81
266.5
267.189
267.877
268.563
269.247
269.929
270.612
271.294
271.975
272.657
273.338
274.015
274.687
275.351
276.007
276.652
277.286
277.908
278.519
279.115
279.698
280.265
280.813
281.34
281.843
282.32
282.769
283.189
283.579
283.937
284.264
284.557
284.817
285.042
285.23
285.38
285.488
285.556
285.57
285.551
285.491
285.388
285.239
285.047
284.811
284.53
284.205
283.835
283.421
282.963
282.459
281.914
281.327
280.697
280.026
279.315
278.565
277.773
276.941
276.067
275.148
274.182
273.171
272.124
271.045
269.93
268.775
267.58
266.344
265.068
263.751
262.394
260.999
259.566
258.091
256.573
255.007
253.391
251.723
250.006
248.249
246.459
244.637
242.774
240.856
238.874
236.828
234.732
232.597
230.418
228.183
225.883
223.527
221.112
218.624
216.077
213.489
210.833
208.084
205.286
202.444
199.504
196.486
193.431
190.299
187.073
183.77
180.388
176.935
173.392
169.746
166.043
162.316
158.578
154.956
151.663
148.925
146.931
145.686
145.008
144.676
271.094
271.757
272.42
273.083
273.749
274.416
275.086
275.759
276.432
277.104
277.776
278.446
279.114
279.78
280.444
281.106
281.765
282.421
283.071
283.713
284.346
284.967
285.576
286.17
286.749
287.311
287.856
288.382
288.888
289.371
289.829
290.259
290.66
291.03
291.368
291.672
291.941
292.175
292.372
292.533
292.655
292.739
292.779
292.775
292.738
292.658
292.533
292.365
292.152
291.896
291.597
291.255
290.867
290.436
289.962
289.447
288.888
288.288
287.649
286.97
286.252
285.496
284.703
283.871
283.001
282.091
281.14
280.147
279.114
278.046
276.946
275.814
274.645
273.441
272.199
270.92
269.604
268.251
266.863
265.438
263.974
262.468
260.919
259.325
257.685
256.005
254.287
252.537
250.753
248.926
247.049
245.116
243.132
241.103
239.032
236.916
234.745
232.518
230.236
227.895
225.492
223.037
220.531
217.957
215.312
212.62
209.87
207.034
204.141
201.208
198.187
195.097
191.972
188.774
185.496
182.155
178.743
175.271
171.735
168.12
164.463
160.818
157.21
153.776
150.733
148.286
146.56
280.052
280.7
281.349
281.999
282.65
283.302
283.957
284.613
285.269
285.924
286.578
287.229
287.877
288.521
289.161
289.795
290.424
291.045
291.658
292.26
292.849
293.424
293.982
294.523
295.044
295.544
296.022
296.477
296.907
297.31
297.684
298.027
298.338
298.615
298.856
299.06
299.228
299.356
299.446
299.498
299.501
299.476
299.409
299.3
299.148
298.953
298.716
298.435
298.111
297.747
297.339
296.888
296.393
295.859
295.285
294.669
294.014
293.322
292.594
291.828
291.026
290.189
289.316
288.407
287.463
286.481
285.461
284.405
283.317
282.198
281.047
279.865
278.649
277.401
276.119
274.803
273.454
272.072
270.655
269.201
267.71
266.179
264.609
262.999
261.353
259.673
257.961
256.214
254.426
252.593
250.713
248.789
246.824
244.817
242.764
240.662
238.508
236.302
234.04
231.725
229.358
226.936
224.451
221.908
219.313
216.654
213.926
211.149
208.316
205.405
202.445
199.441
196.354
193.218
190.046
186.808
183.512
180.168
176.765
173.318
169.837
166.311
162.774
159.296
155.915
152.764
150.043
147.907
287.982
288.615
289.249
289.883
290.518
291.153
291.788
292.424
293.059
293.694
294.326
294.954
295.579
296.198
296.81
297.415
298.011
298.598
299.174
299.737
300.285
300.817
301.33
301.823
302.294
302.742
303.164
303.561
303.93
304.27
304.579
304.856
305.098
305.305
305.476
305.609
305.702
305.758
305.764
305.743
305.68
305.576
305.432
305.246
305.018
304.749
304.439
304.086
303.692
303.259
302.784
302.266
301.708
301.112
300.479
299.805
299.094
298.349
297.57
296.756
295.908
295.027
294.113
293.166
292.187
291.174
290.128
289.049
287.94
286.802
285.634
284.437
283.211
281.955
280.669
279.353
278.006
276.629
275.219
273.777
272.3
270.788
269.241
267.66
266.047
264.402
262.726
261.016
259.269
257.482
255.654
253.788
251.883
249.938
247.95
245.917
243.836
241.707
239.528
237.299
235.019
232.684
230.294
227.85
225.352
222.793
220.175
217.506
214.774
211.98
209.138
206.239
203.269
200.261
197.207
194.084
190.935
187.751
184.518
181.25
177.954
174.623
171.271
167.924
164.582
161.275
158.085
155.052
295.559
296.174
296.79
297.405
298.021
298.635
299.249
299.861
300.472
301.08
301.684
302.284
302.878
303.465
304.043
304.611
305.169
305.714
306.245
306.761
307.261
307.741
308.2
308.638
309.05
309.437
309.797
310.127
310.428
310.697
310.934
311.136
311.304
311.434
311.526
311.582
311.589
311.567
311.505
311.401
311.256
311.071
310.846
310.58
310.274
309.927
309.54
309.113
308.646
308.141
307.597
307.012
306.389
305.731
305.037
304.305
303.539
302.741
301.911
301.048
300.154
299.23
298.275
297.291
296.277
295.233
294.16
293.058
291.927
290.77
289.585
288.374
287.137
285.873
284.582
283.264
281.919
280.545
279.143
277.711
276.249
274.755
273.231
271.676
270.092
268.48
266.838
265.164
263.458
261.716
259.939
258.126
256.279
254.393
252.469
250.503
248.494
246.441
244.342
242.197
240.003
237.759
235.463
233.117
230.717
228.262
225.754
223.192
220.571
217.895
215.166
212.376
209.529
206.639
203.693
200.692
197.666
194.591
191.477
188.356
185.213
182.055
178.896
175.743
172.587
169.447
166.367
163.361
303.379
303.972
304.565
305.157
305.746
306.334
306.918
307.499
308.075
308.646
309.21
309.767
310.314
310.851
311.376
311.887
312.383
312.863
313.325
313.767
314.188
314.586
314.958
315.305
315.623
315.912
316.17
316.395
316.587
316.745
316.866
316.952
317.001
317.003
316.978
316.911
316.803
316.655
316.467
316.238
315.969
315.661
315.312
314.925
314.499
314.033
313.529
312.988
312.411
311.796
311.143
310.454
309.733
308.977
308.188
307.366
306.514
305.633
304.722
303.783
302.815
301.821
300.799
299.751
298.676
297.576
296.449
295.297
294.12
292.919
291.694
290.445
289.172
287.876
286.556
285.211
283.84
282.444
281.022
279.572
278.095
276.592
275.061
273.505
271.922
270.312
268.673
267.005
265.305
263.575
261.813
260.018
258.189
256.324
254.423
252.482
250.502
248.48
246.415
244.305
242.148
239.945
237.694
235.393
233.042
230.641
228.187
225.68
223.12
220.506
217.835
215.112
212.338
209.507
206.632
203.716
200.751
197.755
194.741
191.697
188.661
185.641
182.644
179.683
176.775
173.925
171.126
310.228
310.795
311.36
311.923
312.482
313.038
313.589
314.134
314.673
315.204
315.726
316.239
316.739
317.228
317.701
318.159
318.599
319.02
319.42
319.798
320.152
320.481
320.783
321.056
321.299
321.51
321.688
321.833
321.94
322.016
322.05
322.045
322.01
321.934
321.817
321.662
321.466
321.23
320.955
320.639
320.285
319.891
319.459
318.988
318.481
317.936
317.355
316.738
316.086
315.4
314.678