/*--------------------------------*- C++ -*----------------------------------*\
| =========                 |                                                 |
| \\      /  F ield         | OpenFOAM: The Open Source CFD Toolbox           |
|  \\    /   O peration     | Version:  v1706                                 |
|   \\  /    A nd           | Web:      www.OpenFOAM.com                      |
|    \\/     M anipulation  |                                                 |
\*---------------------------------------------------------------------------*/
FoamFile
{
    version     2.0;
    format      ascii;
    class       volVectorField;
    location    "1.1e-05";
    object      U;
}
// * * * * * * * * * * * * * * * * * * * * * * * * * * * * * * * * * * * * * //

dimensions      [0 1 -1 0 0 0 0];


internalField   nonuniform List<vector> 
29871
(
(2764.5 -3.68098e-11 5.88386e-15)
(2764.5 -3.66854e-11 4.80067e-15)
(2764.5 -3.61856e-11 4.94501e-15)
(2764.5 -3.75091e-11 3.73272e-15)
(2764.5 -3.87003e-11 2.30722e-15)
(2764.5 -3.96793e-11 1.41375e-15)
(2764.5 -4.06107e-11 3.1169e-15)
(2764.5 -4.09825e-11 3.19729e-15)
(2764.5 -4.19613e-11 3.94278e-15)
(2764.5 -4.42737e-11 3.71613e-15)
(2764.5 -4.71888e-11 4.33717e-15)
(2764.5 -4.87369e-11 5.78861e-15)
(2764.5 -4.8797e-11 4.781e-15)
(2764.5 -4.62841e-11 5.5397e-15)
(2764.5 -4.26124e-11 4.50026e-15)
(2764.5 -3.79328e-11 2.34616e-15)
(2764.5 -3.12163e-11 2.12407e-15)
(2764.5 -2.57145e-11 2.61995e-15)
(2764.5 -2.00726e-11 4.48024e-15)
(2764.5 -1.53814e-11 4.73111e-15)
(2764.5 -1.30306e-11 2.04875e-15)
(2764.5 -1.14132e-11 3.00021e-15)
(2764.5 -1.24745e-11 1.41872e-15)
(2764.5 -1.50846e-11 1.80242e-15)
(2764.5 -2.38834e-11 5.12417e-15)
(2764.5 -2.90904e-11 3.20462e-15)
(2764.5 -3.44785e-11 6.88414e-15)
(2764.5 -4.26353e-11 3.76322e-15)
(2764.5 -4.8572e-11 1.97953e-15)
(2764.5 -6.22841e-11 4.59559e-15)
(2764.5 -7.33458e-11 4.80058e-15)
(2764.5 -8.63704e-11 3.15056e-15)
(2764.5 -9.40168e-11 3.23135e-15)
(2764.5 -1.02911e-10 7.82824e-15)
(2764.5 -1.09711e-10 4.89478e-15)
(2764.5 -1.1824e-10 1.09979e-15)
(2764.5 -1.20934e-10 5.38659e-16)
(2764.5 -1.23939e-10 3.59145e-15)
(2764.5 -1.24972e-10 4.06002e-15)
(2764.5 -1.25469e-10 4.21963e-15)
(2764.5 -1.24994e-10 5.58545e-15)
(2764.5 -1.24743e-10 6.09544e-15)
(2764.5 -1.23756e-10 7.0374e-15)
(2764.5 -1.23847e-10 3.4703e-15)
(2764.5 -1.24886e-10 3.59512e-15)
(2764.5 -1.2611e-10 4.22818e-15)
(2764.5 -1.2825e-10 2.97913e-15)
(2764.5 -1.30419e-10 1.18397e-16)
(2764.5 -1.31191e-10 1.13092e-15)
(2764.5 -1.28845e-10 4.40929e-15)
(2764.5 -1.26087e-10 6.20322e-15)
(2764.5 -1.2423e-10 1.29165e-15)
(2764.5 -1.26734e-10 1.91495e-15)
(2764.5 -1.30905e-10 4.42204e-15)
(2764.5 -1.34021e-10 3.59537e-15)
(2764.5 -1.37015e-10 4.15475e-15)
(2764.5 -1.36273e-10 5.00799e-15)
(2764.5 -1.35664e-10 5.8177e-15)
(2764.5 -1.34023e-10 4.57909e-15)
(2764.5 -1.29541e-10 4.23351e-15)
(2764.5 -1.22808e-10 2.59409e-15)
(2764.5 -1.16419e-10 1.33019e-15)
(2764.5 -1.07322e-10 2.69628e-15)
(2764.5 -9.67584e-11 -6.92553e-16)
(2764.5 -8.13093e-11 3.9726e-15)
(2764.5 -6.59068e-11 5.23856e-15)
(2764.5 -5.16901e-11 3.2365e-15)
(2764.5 -2.30223e-11 2.32611e-15)
(2764.5 5.0222e-12 1.24336e-15)
(2764.5 1.45059e-11 1.61063e-15)
(2764.5 1.40608e-11 3.20529e-15)
(2764.5 1.0599e-11 3.1374e-15)
(2764.5 2.27866e-12 1.61449e-15)
(2764.5 -4.1689e-12 2.53865e-15)
(2764.5 -2.07354e-11 1.54071e-15)
(2764.5 -4.00119e-11 5.54754e-15)
(2764.5 -5.77107e-11 4.49925e-16)
(2764.5 -6.9673e-11 1.92942e-15)
(2764.5 -7.37281e-11 2.53228e-15)
(2764.5 -7.24561e-11 3.78537e-15)
(2764.5 -6.57271e-11 4.71963e-15)
(2764.5 -5.14784e-11 4.0853e-15)
(2764.5 -3.40335e-11 4.81343e-15)
(2764.5 -1.92195e-11 1.95556e-15)
(2764.5 -1.72652e-11 4.21503e-15)
(2764.5 -2.1759e-11 3.86397e-15)
(2764.5 -2.7093e-11 3.07255e-15)
(2764.5 -3.14442e-11 4.46789e-15)
(2764.5 -3.68633e-11 4.90503e-15)
(2764.5 -3.67233e-11 3.95121e-15)
(2764.5 -3.45325e-11 3.7181e-15)
(2764.5 -3.48627e-11 1.87715e-15)
(2764.5 -3.56957e-11 3.20089e-15)
(2764.5 -3.61455e-11 3.68305e-15)
(2764.5 -3.85438e-11 2.09868e-15)
(2764.5 -4.03306e-11 2.17987e-15)
(2764.5 -4.09426e-11 2.17291e-15)
(2764.5 -4.40639e-11 2.97896e-15)
(2764.5 -4.46509e-11 2.5858e-15)
(2764.5 -4.40404e-11 2.43235e-15)
(2764.5 -4.21147e-11 4.52041e-15)
(2764.5 -3.85658e-11 4.16838e-15)
(2764.5 -3.4385e-11 1.04855e-15)
(2764.5 -3.46774e-11 1.60749e-15)
(2764.5 -3.60357e-11 8.14116e-16)
(2764.5 -1.30174e-10 1.05308e-14)
(2764.5 -1.28658e-10 1.05726e-14)
(2764.5 -1.25364e-10 1.1628e-14)
(2764.5 -1.2192e-10 1.16133e-14)
(2764.5 -1.15961e-10 1.03487e-14)
(2764.5 -1.0777e-10 1.26727e-14)
(2764.5 -1.00359e-10 1.18713e-14)
(2764.5 -9.66215e-11 1.13922e-14)
(2764.5 -9.31952e-11 1.13912e-14)
(2764.5 -9.23443e-11 1.10989e-14)
(2764.5 -9.05887e-11 1.27144e-14)
(2764.5 -9.47688e-11 1.09609e-14)
(2764.5 -1.05831e-10 1.45523e-14)
(2764.5 -1.1947e-10 1.04481e-14)
(2764.5 -1.34864e-10 6.11245e-15)
(2764.5 -1.53664e-10 8.83663e-15)
(2764.5 -1.70978e-10 1.21132e-14)
(2764.5 -1.86553e-10 1.25339e-14)
(2764.5 -1.97363e-10 1.1212e-14)
(2764.5 -2.00699e-10 8.95063e-15)
(2764.5 -1.94271e-10 9.02738e-15)
(2764.5 -1.88033e-10 1.10511e-14)
(2764.5 -1.79245e-10 1.10327e-14)
(2764.5 -1.56764e-10 1.35214e-14)
(2764.5 -1.33114e-10 1.01203e-14)
(2764.5 -1.08699e-10 9.60491e-15)
(2764.5 -8.83153e-11 1.0763e-14)
(2764.5 -6.63423e-11 8.92825e-15)
(2764.5 -4.25168e-11 9.94621e-15)
(2764.5 -1.70642e-11 7.91354e-15)
(2764.5 4.96753e-12 1.18245e-14)
(2764.5 2.71735e-11 6.29185e-15)
(2764.5 4.41219e-11 6.52881e-15)
(2764.5 5.27487e-11 1.34701e-14)
(2764.5 6.67365e-11 1.07936e-14)
(2764.5 7.20218e-11 1.37376e-14)
(2764.5 7.42962e-11 7.69121e-15)
(2764.5 7.45887e-11 1.12871e-14)
(2764.5 7.32898e-11 1.01751e-14)
(2764.5 6.79994e-11 1.09775e-14)
(2764.5 6.14422e-11 1.25141e-14)
(2764.5 5.38937e-11 1.0338e-14)
(2764.5 4.40291e-11 1.11939e-14)
(2764.5 3.77959e-11 1.03905e-14)
(2764.5 3.60399e-11 9.4155e-15)
(2764.5 3.65209e-11 1.09225e-14)
(2764.5 3.97756e-11 1.0793e-14)
(2764.5 4.30414e-11 8.1638e-15)
(2764.5 4.47822e-11 9.56136e-15)
(2764.5 4.83047e-11 8.94381e-15)
(2764.5 5.43549e-11 6.41624e-15)
(2764.5 7.05234e-11 8.9614e-15)
(2764.5 8.8734e-11 1.20927e-14)
(2764.5 9.97852e-11 8.73227e-15)
(2764.5 1.09317e-10 8.59044e-15)
(2764.5 1.14077e-10 9.80123e-15)
(2764.5 1.16185e-10 1.0787e-14)
(2764.5 1.13826e-10 1.19832e-14)
(2764.5 1.08018e-10 6.86077e-15)
(2764.5 9.47901e-11 6.13602e-15)
(2764.5 8.21184e-11 9.76936e-15)
(2764.5 6.48775e-11 5.48244e-15)
(2764.5 4.42532e-11 6.92363e-15)
(2764.5 2.17189e-11 6.24199e-15)
(2764.5 -9.34447e-12 7.74563e-15)
(2764.5 -3.98676e-11 8.81148e-15)
(2764.5 -8.48882e-11 5.99862e-15)
(2764.5 -1.2982e-10 8.30589e-15)
(2764.5 -1.91107e-10 1.21774e-14)
(2764.5 -2.22989e-10 7.89628e-15)
(2764.5 -2.27721e-10 9.93623e-15)
(2764.5 -2.25304e-10 8.3475e-15)
(2764.5 -2.15158e-10 6.19582e-15)
(2764.5 -1.95097e-10 9.14608e-15)
(2764.5 -1.73811e-10 7.60442e-15)
(2764.5 -1.33421e-10 8.50002e-15)
(2764.5 -8.81824e-11 6.17486e-15)
(2764.5 -6.09221e-11 7.76937e-15)
(2764.5 -5.53315e-11 7.67975e-15)
(2764.5 -6.36506e-11 1.09133e-14)
(2764.5 -8.14688e-11 9.83988e-15)
(2764.5 -1.08195e-10 8.83524e-15)
(2764.5 -1.36831e-10 8.68091e-15)
(2764.5 -1.49e-10 9.77061e-15)
(2764.5 -1.46601e-10 1.01868e-14)
(2764.5 -1.40067e-10 1.01901e-14)
(2764.5 -1.27449e-10 1.09374e-14)
(2764.5 -1.10902e-10 1.11883e-14)
(2764.5 -1.00261e-10 1.01541e-14)
(2764.5 -9.95364e-11 1.18693e-14)
(2764.5 -1.05937e-10 7.82266e-15)
(2764.5 -1.05619e-10 6.86875e-15)
(2764.5 -1.09575e-10 1.20641e-14)
(2764.5 -1.10244e-10 1.12228e-14)
(2764.5 -1.08194e-10 9.57803e-15)
(2764.5 -1.08474e-10 8.32518e-15)
(2764.5 -1.08084e-10 9.6967e-15)
(2764.5 -1.07774e-10 9.36717e-15)
(2764.5 -1.13141e-10 8.55305e-15)
(2764.5 -1.16772e-10 5.70687e-15)
(2764.5 -1.20332e-10 7.71959e-15)
(2764.5 -1.24515e-10 1.01139e-14)
(2764.5 -1.24003e-10 6.78687e-15)
(2764.5 -1.16889e-10 6.88567e-15)
(2764.5 -1.15326e-10 5.57446e-15)
(2764.5 -1.95182e-10 2.04019e-14)
(2764.5 -2.01291e-10 2.48521e-14)
(2764.5 -2.0921e-10 1.76198e-14)
(2764.5 -2.17308e-10 1.93146e-14)
(2764.5 -2.31928e-10 2.4881e-14)
(2764.5 -2.46397e-10 1.94394e-14)
(2764.5 -2.52927e-10 2.03537e-14)
(2764.5 -2.57943e-10 1.88085e-14)
(2764.5 -2.51205e-10 2.27621e-14)
(2764.5 -2.44246e-10 2.16535e-14)
(2764.5 -2.26645e-10 1.86941e-14)
(2764.5 -2.09378e-10 1.65056e-14)
(2764.5 -1.83133e-10 1.21963e-14)
(2764.5 -1.55365e-10 1.59434e-14)
(2764.5 -1.34309e-10 1.64495e-14)
(2764.5 -1.07094e-10 1.74853e-14)
(2764.5 -8.25163e-11 1.63826e-14)
(2764.5 -6.49646e-11 1.73013e-14)
(2764.5 -6.12142e-11 1.59599e-14)
(2764.5 -7.26651e-11 1.57768e-14)
(2764.5 -9.47294e-11 1.6841e-14)
(2764.5 -1.16948e-10 1.44421e-14)
(2764.5 -1.55169e-10 1.44242e-14)
(2764.5 -1.94067e-10 2.35889e-14)
(2764.5 -2.28949e-10 1.56955e-14)
(2764.5 -2.61604e-10 1.79438e-14)
(2764.5 -2.92954e-10 2.10242e-14)
(2764.5 -3.22124e-10 1.94069e-14)
(2764.5 -3.47153e-10 1.84248e-14)
(2764.5 -3.68897e-10 1.90713e-14)
(2764.5 -3.84325e-10 1.75783e-14)
(2764.5 -4.01879e-10 1.87222e-14)
(2764.5 -4.20318e-10 1.78718e-14)
(2764.5 -4.25473e-10 1.75763e-14)
(2764.5 -4.29284e-10 1.83939e-14)
(2764.5 -4.29193e-10 1.84657e-14)
(2764.5 -4.26254e-10 1.88779e-14)
(2764.5 -4.25566e-10 1.80244e-14)
(2764.5 -4.20864e-10 1.76134e-14)
(2764.5 -4.05706e-10 1.88941e-14)
(2764.5 -3.87469e-10 1.98136e-14)
(2764.5 -3.68156e-10 1.66747e-14)
(2764.5 -3.40317e-10 1.68006e-14)
(2764.5 -3.16131e-10 1.64702e-14)
(2764.5 -2.95956e-10 1.68573e-14)
(2764.5 -2.90825e-10 1.59485e-14)
(2764.5 -2.86721e-10 1.83834e-14)
(2764.5 -2.88847e-10 1.74815e-14)
(2764.5 -2.93347e-10 1.55297e-14)
(2764.5 -3.10546e-10 1.61335e-14)
(2764.5 -3.35601e-10 1.28585e-14)
(2764.5 -3.79695e-10 1.60351e-14)
(2764.5 -4.22321e-10 1.58933e-14)
(2764.5 -4.38214e-10 1.19834e-14)
(2764.5 -4.47922e-10 1.37736e-14)
(2764.5 -4.5216e-10 1.79574e-14)
(2764.5 -4.55277e-10 1.39912e-14)
(2764.5 -4.55888e-10 1.79935e-14)
(2764.5 -4.53351e-10 2.01922e-14)
(2764.5 -4.47196e-10 1.62219e-14)
(2764.5 -4.32747e-10 1.5648e-14)
(2764.5 -4.19159e-10 1.33968e-14)
(2764.5 -4.00162e-10 1.56063e-14)
(2764.5 -3.74808e-10 1.9119e-14)
(2764.5 -3.56417e-10 1.48102e-14)
(2764.5 -3.23589e-10 1.47113e-14)
(2764.5 -2.85271e-10 1.50795e-14)
(2764.5 -2.50283e-10 1.43292e-14)
(2764.5 -1.92387e-10 1.41234e-14)
(2764.5 -9.84535e-11 1.58644e-14)
(2764.5 -4.78655e-11 1.42446e-14)
(2764.5 -3.71667e-11 1.64202e-14)
(2764.5 -4.19753e-11 1.41376e-14)
(2764.5 -5.59424e-11 1.42661e-14)
(2764.5 -8.14795e-11 1.54487e-14)
(2764.5 -1.12917e-10 1.18068e-14)
(2764.5 -1.7147e-10 1.54327e-14)
(2764.5 -2.2914e-10 1.79361e-14)
(2764.5 -2.51082e-10 1.43346e-14)
(2764.5 -2.51278e-10 1.42866e-14)
(2764.5 -2.48483e-10 1.58415e-14)
(2764.5 -2.36486e-10 1.49206e-14)
(2764.5 -2.09994e-10 1.66067e-14)
(2764.5 -1.84246e-10 1.37443e-14)
(2764.5 -1.74773e-10 1.68974e-14)
(2764.5 -1.74013e-10 1.82944e-14)
(2764.5 -1.76506e-10 1.57136e-14)
(2764.5 -1.87622e-10 1.60442e-14)
(2764.5 -2.02403e-10 1.70106e-14)
(2764.5 -2.05066e-10 1.50451e-14)
(2764.5 -2.05541e-10 1.59738e-14)
(2764.5 -2.03309e-10 1.55785e-14)
(2764.5 -1.94313e-10 1.343e-14)
(2764.5 -1.85217e-10 1.70501e-14)
(2764.5 -1.84583e-10 1.68971e-14)
(2764.5 -1.86553e-10 1.74631e-14)
(2764.5 -1.89279e-10 1.3546e-14)
(2764.5 -1.87849e-10 1.28736e-14)
(2764.5 -1.83812e-10 1.32623e-14)
(2764.5 -1.83753e-10 1.52825e-14)
(2764.5 -1.89418e-10 1.42153e-14)
(2764.5 -1.90697e-10 1.4558e-14)
(2764.5 -1.96062e-10 1.36791e-14)
(2764.5 -2.01222e-10 1.34545e-14)
(2764.5 -2.01923e-10 1.35787e-14)
(2764.5 -1.95189e-10 1.2942e-14)
(2764.5 -2.80817e-10 2.83957e-14)
(2764.5 -2.66486e-10 3.2755e-14)
(2764.5 -2.39501e-10 2.52594e-14)
(2764.5 -2.20361e-10 2.54615e-14)
(2764.5 -2.05992e-10 2.61109e-14)
(2764.5 -1.97652e-10 2.49701e-14)
(2764.5 -2.02709e-10 2.76759e-14)
(2764.5 -2.12176e-10 2.8483e-14)
(2764.5 -2.37836e-10 2.52879e-14)
(2764.5 -2.7528e-10 2.3793e-14)
(2764.5 -3.01988e-10 2.7547e-14)
(2764.5 -3.48299e-10 2.71868e-14)
(2764.5 -3.80492e-10 2.76726e-14)
(2764.5 -4.08819e-10 2.73503e-14)
(2764.5 -4.23442e-10 2.80823e-14)
(2764.5 -4.55032e-10 2.49265e-14)
(2764.5 -4.72466e-10 2.44443e-14)
(2764.5 -4.71846e-10 2.48522e-14)
(2764.5 -4.54801e-10 2.41293e-14)
(2764.5 -4.25721e-10 2.45876e-14)
(2764.5 -3.78288e-10 2.12122e-14)
(2764.5 -3.09176e-10 2.58632e-14)
(2764.5 -2.46979e-10 2.5473e-14)
(2764.5 -1.84195e-10 2.36987e-14)
(2764.5 -1.29954e-10 2.25162e-14)
(2764.5 -7.71061e-11 2.27593e-14)
(2764.5 -2.58361e-11 2.58456e-14)
(2764.5 1.01869e-11 2.53916e-14)
(2764.5 5.67257e-11 2.0757e-14)
(2764.5 1.027e-10 2.51746e-14)
(2764.5 1.29297e-10 2.46463e-14)
(2764.5 1.67878e-10 2.52817e-14)
(2764.5 1.89845e-10 2.40848e-14)
(2764.5 2.00565e-10 2.64594e-14)
(2764.5 2.02482e-10 2.64556e-14)
(2764.5 1.98138e-10 2.52625e-14)
(2764.5 1.82297e-10 2.63752e-14)
(2764.5 1.50367e-10 2.42796e-14)
(2764.5 9.03454e-11 2.49097e-14)
(2764.5 1.66781e-11 2.31296e-14)
(2764.5 -5.98275e-11 2.28433e-14)
(2764.5 -1.16136e-10 2.93854e-14)
(2764.5 -1.83536e-10 2.39499e-14)
(2764.5 -2.28864e-10 2.47323e-14)
(2764.5 -2.59944e-10 2.76093e-14)
(2764.5 -2.73466e-10 2.38287e-14)
(2764.5 -2.75585e-10 2.30409e-14)
(2764.5 -2.70413e-10 2.45725e-14)
(2764.5 -2.57334e-10 2.77126e-14)
(2764.5 -2.27822e-10 2.45773e-14)
(2764.5 -1.66235e-10 2.11416e-14)
(2764.5 -7.80637e-11 2.17322e-14)
(2764.5 3.92168e-11 2.13968e-14)
(2764.5 1.39524e-10 2.66756e-14)
(2764.5 1.74272e-10 1.95448e-14)
(2764.5 1.95428e-10 1.9834e-14)
(2764.5 2.18128e-10 2.31206e-14)
(2764.5 2.37778e-10 2.44595e-14)
(2764.5 2.47805e-10 2.21479e-14)
(2764.5 2.47631e-10 2.27673e-14)
(2764.5 2.34132e-10 2.39164e-14)
(2764.5 2.04557e-10 2.16335e-14)
(2764.5 1.70328e-10 2.09483e-14)
(2764.5 1.22358e-10 2.02095e-14)
(2764.5 5.76351e-11 2.04257e-14)
(2764.5 -1.38638e-11 2.07572e-14)
(2764.5 -5.80571e-11 2.06603e-14)
(2764.5 -1.32835e-10 2.06838e-14)
(2764.5 -2.78173e-10 2.07179e-14)
(2764.5 -4.27542e-10 1.97323e-14)
(2764.5 -5.16811e-10 2.22329e-14)
(2764.5 -5.32253e-10 2.20486e-14)
(2764.5 -5.2932e-10 2.19023e-14)
(2764.5 -4.96798e-10 2.19512e-14)
(2764.5 -4.39219e-10 1.96731e-14)
(2764.5 -3.62599e-10 1.81274e-14)
(2764.5 -2.89541e-10 2.10316e-14)
(2764.5 -1.9428e-10 2.10212e-14)
(2764.5 -1.37096e-10 2.05543e-14)
(2764.5 -1.24317e-10 2.42321e-14)
(2764.5 -1.33721e-10 2.32715e-14)
(2764.5 -1.66657e-10 2.10174e-14)
(2764.5 -2.1641e-10 1.86642e-14)
(2764.5 -2.79951e-10 1.89845e-14)
(2764.5 -3.21494e-10 2.12461e-14)
(2764.5 -3.28313e-10 1.72939e-14)
(2764.5 -3.23013e-10 1.77866e-14)
(2764.5 -2.98796e-10 2.31569e-14)
(2764.5 -2.69171e-10 2.16233e-14)
(2764.5 -2.5307e-10 1.89192e-14)
(2764.5 -2.48016e-10 1.98558e-14)
(2764.5 -2.54826e-10 2.02795e-14)
(2764.5 -2.65086e-10 2.04924e-14)
(2764.5 -2.67724e-10 2.23496e-14)
(2764.5 -2.67006e-10 2.08039e-14)
(2764.5 -2.62329e-10 1.9175e-14)
(2764.5 -2.60919e-10 2.07699e-14)
(2764.5 -2.58862e-10 2.9584e-14)
(2764.5 -2.53509e-10 1.94592e-14)
(2764.5 -2.49405e-10 2.05429e-14)
(2764.5 -2.50487e-10 2.08449e-14)
(2764.5 -2.50861e-10 1.93066e-14)
(2764.5 -2.54283e-10 2.09025e-14)
(2764.5 -2.56064e-10 2.14696e-14)
(2764.5 -2.64049e-10 1.73362e-14)
(2764.5 -2.70966e-10 1.86547e-14)
(2764.5 -4.09981e-10 3.52859e-14)
(2764.5 -4.39413e-10 3.82904e-14)
(2764.5 -4.73571e-10 3.63179e-14)
(2764.5 -5.10908e-10 3.60456e-14)
(2764.5 -5.28007e-10 3.8481e-14)
(2764.5 -5.23428e-10 3.67266e-14)
(2764.5 -5.09288e-10 3.52514e-14)
(2764.5 -4.70501e-10 3.71324e-14)
(2764.5 -4.12252e-10 3.89697e-14)
(2764.5 -3.60916e-10 3.84227e-14)
(2764.5 -2.74027e-10 3.31609e-14)
(2764.5 -2.15208e-10 3.20338e-14)
(2764.5 -1.49874e-10 3.42517e-14)
(2764.5 -1.00993e-10 3.19878e-14)
(2764.5 -3.60448e-11 3.05978e-14)
(2764.5 1.69415e-11 3.45106e-14)
(2764.5 5.27791e-11 3.35122e-14)
(2764.5 4.82614e-11 3.64232e-14)
(2764.5 -2.17408e-11 3.69795e-14)
(2764.5 -1.4991e-10 3.26379e-14)
(2764.5 -2.52575e-10 3.39658e-14)
(2764.5 -3.77206e-10 3.26338e-14)
(2764.5 -4.76282e-10 3.4883e-14)
(2764.5 -5.58686e-10 3.87136e-14)
(2764.5 -6.16946e-10 3.5259e-14)
(2764.5 -6.76664e-10 3.29177e-14)
(2764.5 -7.30082e-10 3.3642e-14)
(2764.5 -7.83265e-10 2.85867e-14)
(2764.5 -8.27895e-10 2.78595e-14)
(2764.5 -8.79317e-10 3.13138e-14)
(2764.5 -9.17341e-10 3.12059e-14)
(2764.5 -9.4931e-10 3.09948e-14)
(2764.5 -9.73851e-10 3.09943e-14)
(2764.5 -9.92615e-10 3.09564e-14)
(2764.5 -1.00218e-09 3.16329e-14)
(2764.5 -9.93775e-10 3.15272e-14)
(2764.5 -9.53695e-10 3.29621e-14)
(2764.5 -8.66619e-10 3.53287e-14)
(2764.5 -7.16332e-10 2.99043e-14)
(2764.5 -4.08251e-10 3.00461e-14)
(2764.5 -1.67535e-10 3.47742e-14)
(2764.5 2.14718e-11 3.52806e-14)
(2764.5 1.6091e-10 3.42268e-14)
(2764.5 2.05143e-10 3.27467e-14)
(2764.5 1.57224e-10 3.44605e-14)
(2764.5 1.0389e-10 3.51047e-14)
(2764.5 6.42534e-11 3.42397e-14)
(2764.5 7.05744e-11 3.3834e-14)
(2764.5 1.14999e-10 3.2275e-14)
(2764.5 2.09666e-10 3.32724e-14)
(2764.5 2.24268e-10 3.22775e-14)
(2764.5 1.42139e-10 3.04825e-14)
(2764.5 1.61024e-11 3.03215e-14)
(2764.5 -3.17575e-10 3.32997e-14)
(2764.5 -8.25983e-10 3.28593e-14)
(2764.5 -9.66987e-10 3.05355e-14)
(2764.5 -1.03122e-09 2.99347e-14)
(2764.5 -1.10782e-09 3.05722e-14)
(2764.5 -1.14853e-09 3.00207e-14)
(2764.5 -1.17413e-09 2.85239e-14)
(2764.5 -1.15768e-09 2.65772e-14)
(2764.5 -1.0924e-09 2.90558e-14)
(2764.5 -1.00438e-09 2.80356e-14)
(2764.5 -9.23917e-10 2.62212e-14)
(2764.5 -8.40352e-10 2.89903e-14)
(2764.5 -7.49766e-10 2.86922e-14)
(2764.5 -6.59043e-10 2.4892e-14)
(2764.5 -5.65636e-10 2.46154e-14)
(2764.5 -4.62851e-10 2.413e-14)
(2764.5 -3.52071e-10 2.48788e-14)
(2764.5 -6.46071e-11 2.61169e-14)
(2764.5 9.66075e-11 2.71874e-14)
(2764.5 1.09569e-10 2.94243e-14)
(2764.5 8.51897e-11 2.8308e-14)
(2764.5 2.82418e-11 2.55624e-14)
(2764.5 -8.88705e-11 2.83186e-14)
(2764.5 -1.94263e-10 2.78145e-14)
(2764.5 -3.02454e-10 2.80395e-14)
(2764.5 -4.61712e-10 2.82681e-14)
(2764.5 -5.38674e-10 2.8501e-14)
(2764.5 -5.40983e-10 2.92352e-14)
(2764.5 -5.23098e-10 2.88324e-14)
(2764.5 -4.78474e-10 2.70309e-14)
(2764.5 -3.92243e-10 2.29583e-14)
(2764.5 -2.80698e-10 2.58533e-14)
(2764.5 -2.30061e-10 2.7421e-14)
(2764.5 -2.32561e-10 2.72148e-14)
(2764.5 -2.53759e-10 2.65949e-14)
(2764.5 -3.03347e-10 2.84793e-14)
(2764.5 -3.6758e-10 2.59973e-14)
(2764.5 -3.9364e-10 2.66542e-14)
(2764.5 -3.9609e-10 2.93652e-14)
(2764.5 -3.7905e-10 2.78501e-14)
(2764.5 -3.51462e-10 2.59026e-14)
(2764.5 -3.34201e-10 2.68313e-14)
(2764.5 -3.22282e-10 2.52702e-14)
(2764.5 -3.1668e-10 2.61205e-14)
(2764.5 -3.2628e-10 2.73729e-14)
(2764.5 -3.29242e-10 2.66736e-14)
(2764.5 -3.37018e-10 2.58929e-14)
(2764.5 -3.32793e-10 3.06668e-14)
(2764.5 -3.29981e-10 2.32542e-14)
(2764.5 -3.26686e-10 2.36196e-14)
(2764.5 -3.25148e-10 2.56933e-14)
(2764.5 -3.26521e-10 2.60158e-14)
(2764.5 -3.30136e-10 2.46785e-14)
(2764.5 -3.30729e-10 2.75993e-14)
(2764.5 -2.28424e-10 4.44802e-14)
(2764.5 -1.55166e-10 4.09816e-14)
(2764.5 -9.68655e-11 4.28926e-14)
(2764.5 -7.54825e-11 4.26031e-14)
(2764.5 -1.06764e-10 4.30173e-14)
(2764.5 -2.12276e-10 4.31729e-14)
(2764.5 -3.07173e-10 4.94535e-14)
(2764.5 -4.27904e-10 4.50942e-14)
(2764.5 -5.54364e-10 4.47084e-14)
(2764.5 -6.22299e-10 4.61686e-14)
(2764.5 -6.95797e-10 4.40148e-14)
(2764.5 -7.75998e-10 4.68805e-14)
(2764.5 -8.42864e-10 4.70217e-14)
(2764.5 -9.0956e-10 4.34543e-14)
(2764.5 -9.84065e-10 4.59372e-14)
(2764.5 -1.02102e-09 4.35326e-14)
(2764.5 -1.01266e-09 4.12283e-14)
(2764.5 -8.89497e-10 4.20168e-14)
(2764.5 -5.27358e-10 4.26479e-14)
(2764.5 4.58221e-11 4.28946e-14)
(2764.5 3.06543e-10 4.34058e-14)
(2764.5 4.71561e-10 4.40035e-14)
(2764.5 6.14872e-10 4.65138e-14)
(2764.5 7.69648e-10 4.62108e-14)
(2764.5 9.26781e-10 3.98648e-14)
(2764.5 1.07415e-09 4.14031e-14)
(2764.5 1.23567e-09 4.23286e-14)
(2764.5 1.4299e-09 4.07625e-14)
(2764.5 1.63763e-09 4.38843e-14)
(2764.5 1.8375e-09 4.31876e-14)
(2764.5 2.04115e-09 4.36928e-14)
(2764.5 2.2723e-09 4.32205e-14)
(2764.5 2.5166e-09 4.42361e-14)
(2764.5 2.75313e-09 4.24059e-14)
(2764.5 3.00658e-09 4.41932e-14)
(2764.5 3.21398e-09 4.38442e-14)
(2764.5 3.30987e-09 4.19071e-14)
(2764.5 3.34945e-09 4.02603e-14)
(2764.5 3.37935e-09 3.91725e-14)
(2764.5 3.23084e-09 4.14331e-14)
(2764.5 3.19419e-09 4.00735e-14)
(2764.5 3.25036e-09 4.00512e-14)
(2764.5 3.37181e-09 4.06586e-14)
(2764.5 3.55653e-09 3.89392e-14)
(2764.5 3.76938e-09 4.21527e-14)
(2764.5 3.92351e-09 4.1412e-14)
(2764.5 3.98026e-09 4.034e-14)
(2764.5 3.95103e-09 4.02329e-14)
(2764.5 3.83077e-09 3.93553e-14)
(2764.5 3.57967e-09 4.12599e-14)
(2764.5 3.28988e-09 3.93795e-14)
(2764.5 3.0728e-09 3.60772e-14)
(2764.5 2.96996e-09 3.86673e-14)
(2764.5 3.04901e-09 4.02553e-14)
(2764.5 3.30392e-09 4.37463e-14)
(2764.5 3.2672e-09 4.38761e-14)
(2764.5 3.06408e-09 4.15099e-14)
(2764.5 2.85669e-09 3.69981e-14)
(2764.5 2.63204e-09 3.64974e-14)
(2764.5 2.37759e-09 3.8599e-14)
(2764.5 2.08726e-09 3.8517e-14)
(2764.5 1.81178e-09 3.76176e-14)
(2764.5 1.54245e-09 3.66654e-14)
(2764.5 1.26486e-09 4.08041e-14)
(2764.5 1.02349e-09 3.60027e-14)
(2764.5 8.56685e-10 3.51833e-14)
(2764.5 6.48318e-10 4.35276e-14)
(2764.5 3.46344e-10 3.85324e-14)
(2764.5 1.40182e-10 3.47311e-14)
(2764.5 -4.18685e-10 3.72403e-14)
(2764.5 -9.95259e-10 3.6758e-14)
(2764.5 -1.19193e-09 2.98775e-14)
(2764.5 -1.17891e-09 3.02741e-14)
(2764.5 -1.08165e-09 3.18468e-14)
(2764.5 -9.39726e-10 3.20079e-14)
(2764.5 -7.45498e-10 3.26004e-14)
(2764.5 -5.97917e-10 3.26671e-14)
(2764.5 -4.31829e-10 3.43965e-14)
(2764.5 -1.10631e-10 3.44601e-14)
(2764.5 -4.25042e-12 3.25436e-14)
(2764.5 -1.53517e-11 3.07442e-14)
(2764.5 -1.01255e-10 3.30535e-14)
(2764.5 -2.11119e-10 3.58045e-14)
(2764.5 -3.5131e-10 3.50883e-14)
(2764.5 -5.26565e-10 3.44386e-14)
(2764.5 -5.93656e-10 3.25966e-14)
(2764.5 -5.90811e-10 3.26164e-14)
(2764.5 -5.50201e-10 3.39794e-14)
(2764.5 -4.68838e-10 3.47926e-14)
(2764.5 -3.82294e-10 3.14415e-14)
(2764.5 -3.49464e-10 3.4024e-14)
(2764.5 -3.52449e-10 3.28445e-14)
(2764.5 -3.87027e-10 3.04129e-14)
(2764.5 -4.29645e-10 3.48786e-14)
(2764.5 -4.56326e-10 3.34036e-14)
(2764.5 -4.57797e-10 3.04037e-14)
(2764.5 -4.46616e-10 3.0287e-14)
(2764.5 -4.16269e-10 3.21422e-14)
(2764.5 -4.00477e-10 3.16748e-14)
(2764.5 -3.98698e-10 2.95629e-14)
(2764.5 -4.00933e-10 3.34506e-14)
(2764.5 -4.06946e-10 3.18643e-14)
(2764.5 -4.05137e-10 3.50422e-14)
(2764.5 -4.06427e-10 3.31146e-14)
(2764.5 -4.034e-10 2.96646e-14)
(2764.5 -4.03707e-10 2.85604e-14)
(2764.5 -4.02748e-10 3.20502e-14)
(2764.5 -7.28831e-10 5.32879e-14)
(2764.5 -8.02215e-10 5.32791e-14)
(2764.5 -8.5476e-10 5.56519e-14)
(2764.5 -9.34775e-10 4.94719e-14)
(2764.5 -9.99908e-10 4.9882e-14)
(2764.5 -1.01918e-09 5.05406e-14)
(2764.5 -9.40567e-10 5.12849e-14)
(2764.5 -6.06693e-10 5.44387e-14)
(2764.5 -1.54545e-10 5.4025e-14)
(2764.5 2.80238e-10 5.5223e-14)
(2764.5 5.08857e-10 5.09473e-14)
(2764.5 7.15101e-10 5.16532e-14)
(2764.5 9.42635e-10 5.79082e-14)
(2764.5 1.17836e-09 5.60424e-14)
(2764.5 1.43976e-09 5.49943e-14)
(2764.5 1.76369e-09 5.47601e-14)
(2764.5 2.08627e-09 5.40703e-14)
(2764.5 2.437e-09 5.43439e-14)
(2764.5 2.88293e-09 5.35059e-14)
(2764.5 3.27163e-09 5.35512e-14)
(2764.5 3.45015e-09 5.1596e-14)
(2764.5 3.4287e-09 5.05895e-14)
(2764.5 3.71562e-09 4.99811e-14)
(2764.5 4.31076e-09 4.9043e-14)
(2764.5 5.01965e-09 4.93011e-14)
(2764.5 5.76265e-09 5.19705e-14)
(2764.5 6.53638e-09 5.23607e-14)
(2764.5 7.31953e-09 5.0753e-14)
(2764.5 8.12562e-09 5.15847e-14)
(2764.5 8.99375e-09 5.09396e-14)
(2764.5 9.93412e-09 4.96845e-14)
(2764.5 1.09319e-08 4.94507e-14)
(2764.5 1.1962e-08 5.16125e-14)
(2764.5 1.30277e-08 5.29641e-14)
(2764.5 1.4138e-08 5.09737e-14)
(2764.5 1.52811e-08 4.96035e-14)
(2764.5 1.64341e-08 4.68651e-14)
(2764.5 1.76106e-08 4.82645e-14)
(2764.5 1.88034e-08 4.84676e-14)
(2764.5 2.0026e-08 4.84556e-14)
(2764.5 2.11821e-08 4.84979e-14)
(2764.5 2.22835e-08 4.8868e-14)
(2764.5 2.32508e-08 4.70119e-14)
(2764.5 2.41005e-08 4.61608e-14)
(2764.5 2.48122e-08 4.79599e-14)
(2764.5 2.54181e-08 4.82196e-14)
(2764.5 2.59457e-08 4.68005e-14)
(2764.5 2.63412e-08 4.77063e-14)
(2764.5 2.66092e-08 4.88159e-14)
(2764.5 2.67155e-08 4.87525e-14)
(2764.5 2.66707e-08 4.61047e-14)
(2764.5 2.64493e-08 4.55184e-14)
(2764.5 2.60517e-08 4.68602e-14)
(2764.5 2.55519e-08 4.57737e-14)
(2764.5 2.50132e-08 4.88225e-14)
(2764.5 2.43158e-08 4.52328e-14)
(2764.5 2.3232e-08 4.17605e-14)
(2764.5 2.17547e-08 4.86283e-14)
(2764.5 2.0203e-08 4.82895e-14)
(2764.5 1.86536e-08 4.49205e-14)
(2764.5 1.70715e-08 4.42019e-14)
(2764.5 1.55144e-08 4.69278e-14)
(2764.5 1.39807e-08 4.339e-14)
(2764.5 1.24684e-08 4.34002e-14)
(2764.5 1.10315e-08 4.52358e-14)
(2764.5 9.69559e-09 4.10808e-14)
(2764.5 8.40145e-09 4.86426e-14)
(2764.5 7.1869e-09 4.57795e-14)
(2764.5 6.21195e-09 4.35626e-14)
(2764.5 5.30177e-09 4.62008e-14)
(2764.5 4.18294e-09 4.44461e-14)
(2764.5 3.47429e-09 4.40334e-14)
(2764.5 3.28779e-09 4.32908e-14)
(2764.5 2.91286e-09 4.25184e-14)
(2764.5 2.35026e-09 4.45559e-14)
(2764.5 1.74346e-09 4.29951e-14)
(2764.5 1.29509e-09 4.30699e-14)
(2764.5 9.00206e-10 4.38075e-14)
(2764.5 4.36868e-10 4.10532e-14)
(2764.5 1.63045e-10 4.16694e-14)
(2764.5 -4.17674e-10 4.06395e-14)
(2764.5 -1.07453e-09 3.89465e-14)
(2764.5 -1.18798e-09 3.71378e-14)
(2764.5 -1.11736e-09 3.65008e-14)
(2764.5 -9.55772e-10 3.91487e-14)
(2764.5 -7.33494e-10 3.82536e-14)
(2764.5 -5.37403e-10 3.85828e-14)
(2764.5 -2.20664e-10 3.95257e-14)
(2764.5 -1.31992e-10 3.8153e-14)
(2764.5 -1.60785e-10 3.87268e-14)
(2764.5 -2.73051e-10 3.74518e-14)
(2764.5 -4.56804e-10 4.01178e-14)
(2764.5 -6.02415e-10 4.15155e-14)
(2764.5 -6.36522e-10 3.55289e-14)
(2764.5 -6.29249e-10 3.64945e-14)
(2764.5 -5.92427e-10 3.98736e-14)
(2764.5 -4.99052e-10 3.87718e-14)
(2764.5 -4.53995e-10 4.05695e-14)
(2764.5 -4.43952e-10 4.02191e-14)
(2764.5 -4.69588e-10 3.9006e-14)
(2764.5 -5.0767e-10 3.63728e-14)
(2764.5 -5.16814e-10 3.64524e-14)
(2764.5 -5.12769e-10 3.77926e-14)
(2764.5 -4.99189e-10 3.62915e-14)
(2764.5 -4.86713e-10 3.88513e-14)
(2764.5 -4.7711e-10 4.01694e-14)
(2764.5 -4.75724e-10 3.69492e-14)
(2764.5 -4.7635e-10 3.92403e-14)
(2764.5 -4.74599e-10 3.39243e-14)
(2764.5 -4.75626e-10 3.729e-14)
(2764.5 1.1619e-09 6.19852e-14)
(2764.5 1.48903e-09 6.28819e-14)
(2764.5 1.8669e-09 6.50337e-14)
(2764.5 2.26124e-09 6.14434e-14)
(2764.5 2.76787e-09 6.4318e-14)
(2764.5 3.28457e-09 6.48473e-14)
(2764.5 3.75526e-09 6.39231e-14)
(2764.5 3.61409e-09 6.04901e-14)
(2764.5 4.01892e-09 6.27259e-14)
(2764.5 4.74146e-09 6.23942e-14)
(2764.5 5.61871e-09 5.97319e-14)
(2764.5 6.60795e-09 6.19109e-14)
(2764.5 7.70138e-09 6.38462e-14)
(2764.5 8.917e-09 6.2133e-14)
(2764.5 1.0306e-08 5.93797e-14)
(2764.5 1.18973e-08 6.05609e-14)
(2764.5 1.36501e-08 6.39836e-14)
(2764.5 1.56507e-08 6.26431e-14)
(2764.5 1.78593e-08 6.14274e-14)
(2764.5 2.05896e-08 5.82398e-14)
(2764.5 2.34009e-08 5.92277e-14)
(2764.5 2.64365e-08 5.86235e-14)
(2764.5 2.95469e-08 6.01038e-14)
(2764.5 3.30342e-08 6.16226e-14)
(2764.5 3.70302e-08 5.83182e-14)
(2764.5 4.1584e-08 5.77702e-14)
(2764.5 4.67175e-08 6.04224e-14)
(2764.5 5.24152e-08 6.11126e-14)
(2764.5 5.87174e-08 5.93914e-14)
(2764.5 6.56831e-08 5.52484e-14)
(2764.5 7.33595e-08 5.36165e-14)
(2764.5 8.17555e-08 5.85713e-14)
(2764.5 9.08334e-08 5.90487e-14)
(2764.5 1.00545e-07 5.43705e-14)
(2764.5 1.10786e-07 5.42519e-14)
(2764.5 1.21409e-07 5.70954e-14)
(2764.5 1.32253e-07 5.57886e-14)
(2764.5 1.43136e-07 5.60916e-14)
(2764.5 1.53905e-07 5.50175e-14)
(2764.5 1.64431e-07 5.74277e-14)
(2764.5 1.74549e-07 5.67388e-14)
(2764.5 1.84144e-07 5.5498e-14)
(2764.5 1.93002e-07 5.45226e-14)
(2764.5 2.00939e-07 5.55793e-14)
(2764.5 2.07819e-07 5.45243e-14)
(2764.5 2.13327e-07 5.41812e-14)
(2764.5 2.17315e-07 5.56555e-14)
(2764.5 2.19891e-07 5.61568e-14)
(2764.5 2.2079e-07 5.30923e-14)
(2764.5 2.1981e-07 5.37074e-14)
(2764.5 2.17186e-07 5.27374e-14)
(2764.5 2.13124e-07 5.44578e-14)
(2764.5 2.07682e-07 5.15158e-14)
(2764.5 2.01026e-07 5.35844e-14)
(2764.5 1.93209e-07 5.52372e-14)
(2764.5 1.84142e-07 5.14665e-14)
(2764.5 1.74017e-07 5.34076e-14)
(2764.5 1.63431e-07 5.17154e-14)
(2764.5 1.52826e-07 5.35152e-14)
(2764.5 1.4238e-07 5.53234e-14)
(2764.5 1.32079e-07 5.21924e-14)
(2764.5 1.21763e-07 5.374e-14)
(2764.5 1.11246e-07 5.23705e-14)
(2764.5 1.00535e-07 5.11875e-14)
(2764.5 8.98077e-08 4.91415e-14)
(2764.5 7.91806e-08 5.09186e-14)
(2764.5 6.8759e-08 5.43513e-14)
(2764.5 5.91484e-08 4.93293e-14)
(2764.5 5.05588e-08 5.0431e-14)
(2764.5 4.23156e-08 5.35795e-14)
(2764.5 3.47063e-08 5.05214e-14)
(2764.5 2.8484e-08 5.00701e-14)
(2764.5 2.32663e-08 4.94721e-14)
(2764.5 1.87461e-08 5.2051e-14)
(2764.5 1.47442e-08 4.96344e-14)
(2764.5 1.13546e-08 4.76822e-14)
(2764.5 8.81267e-09 4.99593e-14)
(2764.5 6.77138e-09 4.88699e-14)
(2764.5 4.82864e-09 4.69721e-14)
(2764.5 3.65696e-09 4.7394e-14)
(2764.5 3.30959e-09 4.68199e-14)
(2764.5 2.64284e-09 4.648e-14)
(2764.5 1.9001e-09 4.8384e-14)
(2764.5 1.28137e-09 4.80353e-14)
(2764.5 5.74435e-10 4.85385e-14)
(2764.5 1.25084e-10 4.91735e-14)
(2764.5 -4.65206e-10 4.96046e-14)
(2764.5 -1.15271e-09 4.0343e-14)
(2764.5 -1.2274e-09 4.14104e-14)
(2764.5 -1.06909e-09 4.22699e-14)
(2764.5 -8.37711e-10 4.3527e-14)
(2764.5 -6.52182e-10 4.21393e-14)
(2764.5 -3.25187e-10 4.43801e-14)
(2764.5 -2.52397e-10 4.28002e-14)
(2764.5 -2.9692e-10 4.3479e-14)
(2764.5 -4.53907e-10 4.35717e-14)
(2764.5 -6.26221e-10 4.52305e-14)
(2764.5 -6.98738e-10 4.38229e-14)
(2764.5 -6.96373e-10 4.28169e-14)
(2764.5 -6.62323e-10 4.51275e-14)
(2764.5 -5.8675e-10 4.59659e-14)
(2764.5 -5.32592e-10 4.56964e-14)
(2764.5 -5.29177e-10 4.50908e-14)
(2764.5 -5.49192e-10 4.23323e-14)
(2764.5 -5.72326e-10 4.44451e-14)
(2764.5 -5.74612e-10 4.11441e-14)
(2764.5 -5.66239e-10 4.20525e-14)
(2764.5 -5.58339e-10 4.2223e-14)
(2764.5 -5.5107e-10 4.26621e-14)
(2764.5 -5.48956e-10 4.10846e-14)
(2764.5 9.18565e-09 7.2357e-14)
(2764.5 1.08425e-08 7.08171e-14)
(2764.5 1.27378e-08 7.10086e-14)
(2764.5 1.48999e-08 7.17827e-14)
(2764.5 1.74427e-08 7.41731e-14)
(2764.5 2.04354e-08 7.12558e-14)
(2764.5 2.41487e-08 6.95999e-14)
(2764.5 2.80747e-08 7.18541e-14)
(2764.5 3.24946e-08 7.37832e-14)
(2764.5 3.74973e-08 7.17193e-14)
(2764.5 4.32827e-08 7.11021e-14)
(2764.5 4.99684e-08 6.90851e-14)
(2764.5 5.76686e-08 7.06493e-14)
(2764.5 6.64978e-08 6.94825e-14)
(2764.5 7.6599e-08 6.95555e-14)