/*--------------------------------*- C++ -*----------------------------------*\
| =========                 |                                                 |
| \\      /  F ield         | OpenFOAM: The Open Source CFD Toolbox           |
|  \\    /   O peration     | Version:  v1706                                 |
|   \\  /    A nd           | Web:      www.OpenFOAM.com                      |
|    \\/     M anipulation  |                                                 |
\*---------------------------------------------------------------------------*/
FoamFile
{
    version     2.0;
    format      ascii;
    class       volScalarField;
    location    "1.1e-05";
    object      wallHeatFlux;
}
// * * * * * * * * * * * * * * * * * * * * * * * * * * * * * * * * * * * * * //

dimensions      [1 0 -3 0 0 0 0];


internalField   uniform 0;

boundaryField
{
    cone
    {
        type            calculated;
        value           nonuniform List<scalar> 
181
(
168731
166509
162532
156553
148374
137928
125393
111279
96400.6
81719.6
68103.3
56131.5
46041.4
37794.4
31188.8
25959.2
21840.4
18598.1
16039.4
14011.3
12395.4
11101.1
10059.4
9217.67
8536.22
7984.08
7538.44
7182.23
6900.62
6682.63
6519.83
6405.59
6334.75
6303.23
6307.79
6345.9
6415.73
6516.13
6646.12
6804.95
6992.32
7208.2
7452.77
7726.42
8029.75
8363.53
8728.72
9126.45
9558.07
10025.1
10529.2
11072.3
11656.5
12284.3
12958.1
13680.9
14455.8
15286.2
16175.9
17128.9
18149.8
19243.4
20415
21670.5
23016.2
24458.9
26006
27665.6
29446.5
31358
33410.2
35614.1
37981
40523.2
43253.4
46184.7
49330.2
52702.7
56314.2
60175
64292.3
68668.8
73300.1
78172.3
83257.2
88508.3
93854.4
99194.3
104392
109275
113630
117212
119775
121084
120981
119424
116494
112410
107489
102104
96628.8
91366.5
86519.4
82189.7
78400.2
75120.7
72291.5
69841.9
67702.3
65810.9
64117.1
62581.6
61175.4
59878.2
58676
57559.9
56523.8
55563.8
54677
53861.1
53113.9
52433.4
51817.5
51264.1
50771
50336
49957.7
49635.3
49367.6
49154.4
48995.6
48891.7
48843.1
48850.5
48914.6
49036
49215.5
49453.5
49750.7
50107.8
50525.6
51004.9
51546.1
52149.8
52816
53544.2
54333.4
55181.7
56086.3
57043.1
58046.6
59089.9
60164.2
61258.8
62361.3
63457.6
64531.8
65567.3
66546.1
67450.5
68262.7
68965.5
69543.3
69982
70273.5
70423
70453.8
70375.9
70188.5
69914.4
69583.6
69222
68853.8
68501.8
68186
67922.4
67722.8
67594.7
67542.1
67565.5
67663.1
)
;
    }
    inlet
    {
        type            calculated;
        value           uniform 0;
    }
    rWedge
    {
        type            wedge;
    }
    lWedge
    {
        type            wedge;
    }
    outlet
    {
        type            calculated;
        value           nonuniform 0();
    }
    procBoundary1to0
    {
        type            processor;
        value           uniform 0;
    }
    procBoundary1to2
    {
        type            processor;
        value           uniform 0;
    }
}


// ************************************************************************* //
