/*--------------------------------*- C++ -*----------------------------------*\
| =========                 |                                                 |
| \\      /  F ield         | OpenFOAM: The Open Source CFD Toolbox           |
|  \\    /   O peration     | Version:  v1706                                 |
|   \\  /    A nd           | Web:      www.OpenFOAM.com                      |
|    \\/     M anipulation  |                                                 |
\*---------------------------------------------------------------------------*/
FoamFile
{
    version     2.0;
    format      ascii;
    class       volScalarField;
    location    "4e-06";
    object      alpha;
}
// * * * * * * * * * * * * * * * * * * * * * * * * * * * * * * * * * * * * * //

dimensions      [1 -1 -1 0 0 0 0];


internalField   nonuniform List<scalar> 
29871
(
1.40478e-05
1.40478e-05
1.40478e-05
1.40478e-05
1.40478e-05
1.40478e-05
1.40478e-05
1.40478e-05
1.40478e-05
1.40478e-05
1.40478e-05
1.40478e-05
1.40478e-05
1.40478e-05
1.40478e-05
1.40478e-05
1.40478e-05
1.40478e-05
1.40478e-05
1.40478e-05
1.40478e-05
1.40478e-05
1.40478e-05
1.40478e-05
1.40478e-05
1.40478e-05
1.40478e-05
1.40478e-05
1.40478e-05
1.40478e-05
1.40478e-05
1.40478e-05
1.40478e-05
1.40478e-05
1.40478e-05
1.40478e-05
1.40478e-05
1.40478e-05
1.40478e-05
1.40478e-05
1.40478e-05
1.40478e-05
1.40478e-05
1.40478e-05
1.40478e-05
1.40478e-05
1.40478e-05
1.40478e-05
1.40478e-05
1.40478e-05
1.40478e-05
1.40478e-05
1.40478e-05
1.40478e-05
1.40478e-05
1.40478e-05
1.40478e-05
1.40478e-05
1.40478e-05
1.40478e-05
1.40478e-05
1.40478e-05
1.40478e-05
1.40478e-05
1.40478e-05
1.40478e-05
1.40478e-05
1.40478e-05
1.40478e-05
1.40478e-05
1.40478e-05
1.40478e-05
1.40478e-05
1.40478e-05
1.40478e-05
1.40478e-05
1.40478e-05
1.40478e-05
1.40478e-05
1.40478e-05
1.40478e-05
1.40478e-05
1.40478e-05
1.40478e-05
1.40478e-05
1.40478e-05
1.40478e-05
1.40478e-05
1.40478e-05
1.40478e-05
1.40478e-05
1.40478e-05
1.40478e-05
1.40478e-05
1.40478e-05
1.40478e-05
1.40478e-05
1.40478e-05
1.40478e-05
1.40478e-05
1.40478e-05
1.40478e-05
1.40478e-05
1.40478e-05
1.40478e-05
1.40478e-05
1.40478e-05
1.40478e-05
1.40478e-05
1.40478e-05
1.40478e-05
1.40478e-05
1.40478e-05
1.40478e-05
1.40478e-05
1.40478e-05
1.40478e-05
1.40478e-05
1.40478e-05
1.40478e-05
1.40478e-05
1.40478e-05
1.40478e-05
1.40478e-05
1.40478e-05
1.40478e-05
1.40478e-05
1.40478e-05
1.40478e-05
1.40478e-05
1.40478e-05
1.40478e-05
1.40478e-05
1.40478e-05
1.40478e-05
1.40478e-05
1.40478e-05
1.40478e-05
1.40478e-05
1.40478e-05
1.40478e-05
1.40478e-05
1.40478e-05
1.40478e-05
1.40478e-05
1.40478e-05
1.40478e-05
1.40478e-05
1.40478e-05
1.40478e-05
1.40478e-05
1.40478e-05
1.40478e-05
1.40478e-05
1.40478e-05
1.40478e-05
1.40478e-05
1.40478e-05
1.40478e-05
1.40478e-05
1.40478e-05
1.40478e-05
1.40478e-05
1.40478e-05
1.40478e-05
1.40478e-05
1.40478e-05
1.40478e-05
1.40478e-05
1.40478e-05
1.40478e-05
1.40478e-05
1.40478e-05
1.40478e-05
1.40478e-05
1.40478e-05
1.40478e-05
1.40478e-05
1.40478e-05
1.40478e-05
1.40478e-05
1.40478e-05
1.40478e-05
1.40478e-05
1.40478e-05
1.40478e-05
1.40478e-05
1.40478e-05
1.40478e-05
1.40478e-05
1.40478e-05
1.40478e-05
1.40478e-05
1.40478e-05
1.40478e-05
1.40478e-05
1.40478e-05
1.40478e-05
1.40478e-05
1.40478e-05
1.40478e-05
1.40478e-05
1.40478e-05
1.40478e-05
1.40478e-05
1.40478e-05
1.40478e-05
1.40478e-05
1.40478e-05
1.40478e-05
1.40478e-05
1.40478e-05
1.40478e-05
1.40478e-05
1.40478e-05
1.40478e-05
1.40478e-05
1.40478e-05
1.40478e-05
1.40478e-05
1.40478e-05
1.40478e-05
1.40478e-05
1.40478e-05
1.40478e-05
1.40478e-05
1.40478e-05
1.40478e-05
1.40478e-05
1.40478e-05
1.40478e-05
1.40478e-05
1.40478e-05
1.40478e-05
1.40478e-05
1.40478e-05
1.40478e-05
1.40478e-05
1.40478e-05
1.40478e-05
1.40478e-05
1.40478e-05
1.40478e-05
1.40478e-05
1.40478e-05
1.40478e-05
1.40478e-05
1.40478e-05
1.40478e-05
1.40478e-05
1.40478e-05
1.40478e-05
1.40478e-05
1.40478e-05
1.40478e-05
1.40478e-05
1.40478e-05
1.40478e-05
1.40478e-05
1.40478e-05
1.40478e-05
1.40478e-05
1.40478e-05
1.40478e-05
1.40478e-05
1.40478e-05
1.40478e-05
1.40478e-05
1.40478e-05
1.40478e-05
1.40478e-05
1.40478e-05
1.40478e-05
1.40478e-05
1.40478e-05
1.40478e-05
1.40478e-05
1.40478e-05
1.40478e-05
1.40478e-05
1.40478e-05
1.40478e-05
1.40478e-05
1.40478e-05
1.40478e-05
1.40478e-05
1.40478e-05
1.40478e-05
1.40478e-05
1.40478e-05
1.40478e-05
1.40478e-05
1.40478e-05
1.40478e-05
1.40478e-05
1.40478e-05
1.40478e-05
1.40478e-05
1.40478e-05
1.40478e-05
1.40478e-05
1.40478e-05
1.40478e-05
1.40478e-05
1.40478e-05
1.40478e-05
1.40478e-05
1.40478e-05
1.40478e-05
1.40478e-05
1.40478e-05
1.40478e-05
1.40478e-05
1.40478e-05
1.40478e-05
1.40478e-05
1.40478e-05
1.40478e-05
1.40478e-05
1.40478e-05
1.40478e-05
1.40478e-05
1.40478e-05
1.40478e-05
1.40478e-05
1.40478e-05
1.40478e-05
1.40478e-05
1.40478e-05
1.40478e-05
1.40478e-05
1.40478e-05
1.40478e-05
1.40478e-05
1.40478e-05
1.40478e-05
1.40478e-05
1.40478e-05
1.40478e-05
1.40478e-05
1.40478e-05
1.40478e-05
1.40478e-05
1.40478e-05
1.40478e-05
1.40478e-05
1.40478e-05
1.40478e-05
1.40478e-05
1.40478e-05
1.40478e-05
1.40478e-05
1.40478e-05
1.40478e-05
1.40478e-05
1.40478e-05
1.40478e-05
1.40478e-05
1.40478e-05
1.40478e-05
1.40478e-05
1.40478e-05
1.40478e-05
1.40478e-05
1.40478e-05
1.40478e-05
1.40478e-05
1.40478e-05
1.40478e-05
1.40478e-05
1.40478e-05
1.40478e-05
1.40478e-05
1.40478e-05
1.40478e-05
1.40478e-05
1.40478e-05
1.40478e-05
1.40478e-05
1.40478e-05
1.40478e-05
1.40478e-05
1.40478e-05
1.40478e-05
1.40478e-05
1.40478e-05
1.40478e-05
1.40478e-05
1.40478e-05
1.40478e-05
1.40478e-05
1.40478e-05
1.40478e-05
1.40478e-05
1.40478e-05
1.40478e-05
1.40478e-05
1.40478e-05
1.40478e-05
1.40478e-05
1.40478e-05
1.40478e-05
1.40478e-05
1.40478e-05
1.40478e-05
1.40478e-05
1.40478e-05
1.40478e-05
1.40478e-05
1.40478e-05
1.40478e-05
1.40478e-05
1.40478e-05
1.40478e-05
1.40478e-05
1.40478e-05
1.40478e-05
1.40478e-05
1.40478e-05
1.40478e-05
1.40478e-05
1.40478e-05
1.40478e-05
1.40478e-05
1.40478e-05
1.40478e-05
1.40478e-05
1.40478e-05
1.40478e-05
1.40478e-05
1.40478e-05
1.40478e-05
1.40478e-05
1.40478e-05
1.40478e-05
1.40478e-05
1.40478e-05
1.40478e-05
1.40478e-05
1.40478e-05
1.40478e-05
1.40478e-05
1.40478e-05
1.40478e-05
1.40478e-05
1.40478e-05
1.40478e-05
1.40478e-05
1.40478e-05
1.40478e-05
1.40478e-05
1.40478e-05
1.40478e-05
1.40478e-05
1.40478e-05
1.40478e-05
1.40478e-05
1.40478e-05
1.40478e-05
1.40478e-05
1.40478e-05
1.40478e-05
1.40478e-05
1.40478e-05
1.40478e-05
1.40478e-05
1.40478e-05
1.40478e-05
1.40478e-05
1.40478e-05
1.40478e-05
1.40478e-05
1.40478e-05
1.40478e-05
1.40478e-05
1.40478e-05
1.40478e-05
1.40478e-05
1.40478e-05
1.40478e-05
1.40478e-05
1.40478e-05
1.40478e-05
1.40478e-05
1.40478e-05
1.40478e-05
1.40478e-05
1.40478e-05
1.40478e-05
1.40478e-05
1.40478e-05
1.40478e-05
1.40478e-05
1.40478e-05
1.40478e-05
1.40478e-05
1.40478e-05
1.40478e-05
1.40478e-05
1.40478e-05
1.40478e-05
1.40478e-05
1.40478e-05
1.40478e-05
1.40478e-05
1.40478e-05
1.40478e-05
1.40478e-05
1.40478e-05
1.40478e-05
1.40478e-05
1.40478e-05
1.40478e-05
1.40478e-05
1.40478e-05
1.40478e-05
1.40478e-05
1.40478e-05
1.40478e-05
1.40478e-05
1.40478e-05
1.40478e-05
1.40478e-05
1.40478e-05
1.40478e-05
1.40478e-05
1.40478e-05
1.40478e-05
1.40478e-05
1.40478e-05
1.40478e-05
1.40478e-05
1.40478e-05
1.40478e-05
1.40478e-05
1.40478e-05
1.40478e-05
1.40478e-05
1.40478e-05
1.40478e-05
1.40478e-05
1.40478e-05
1.40478e-05
1.40478e-05
1.40478e-05
1.40478e-05
1.40478e-05
1.40478e-05
1.40478e-05
1.40478e-05
1.40478e-05
1.40478e-05
1.40478e-05
1.40478e-05
1.40478e-05
1.40478e-05
1.40478e-05
1.40478e-05
1.40478e-05
1.40478e-05
1.40478e-05
1.40478e-05
1.40478e-05
1.40478e-05
1.40478e-05
1.40478e-05
1.40478e-05
1.40478e-05
1.40478e-05
1.40478e-05
1.40478e-05
1.40478e-05
1.40478e-05
1.40478e-05
1.40478e-05
1.40478e-05
1.40478e-05
1.40478e-05
1.40478e-05
1.40478e-05
1.40478e-05
1.40478e-05
1.40478e-05
1.40478e-05
1.40478e-05
1.40478e-05
1.40478e-05
1.40478e-05
1.40478e-05
1.40478e-05
1.40478e-05
1.40478e-05
1.40478e-05
1.40478e-05
1.40478e-05
1.40478e-05
1.40478e-05
1.40478e-05
1.40478e-05
1.40478e-05
1.40478e-05
1.40478e-05
1.40478e-05
1.40478e-05
1.40479e-05
1.40479e-05
1.40479e-05
1.40479e-05
1.40479e-05
1.40479e-05
1.40479e-05
1.40479e-05
1.40479e-05
1.40479e-05
1.40479e-05
1.40479e-05
1.40479e-05
1.40479e-05
1.40479e-05
1.40479e-05
1.40479e-05
1.40479e-05
1.40479e-05
1.40479e-05
1.40479e-05
1.4048e-05
1.4048e-05
1.4048e-05
1.4048e-05
1.4048e-05
1.4048e-05
1.4048e-05
1.4048e-05
1.4048e-05
1.40481e-05
1.40481e-05
1.40479e-05
1.40479e-05
1.40479e-05
1.40479e-05
1.40478e-05
1.40478e-05
1.40478e-05
1.40478e-05
1.40478e-05
1.40478e-05
1.40478e-05
1.40478e-05
1.40478e-05
1.40478e-05
1.40478e-05
1.40478e-05
1.40478e-05
1.40478e-05
1.40478e-05
1.40478e-05
1.40478e-05
1.40478e-05
1.40478e-05
1.40478e-05
1.40478e-05
1.40478e-05
1.40478e-05
1.40478e-05
1.40478e-05
1.40478e-05
1.40478e-05
1.40478e-05
1.40478e-05
1.40478e-05
1.40478e-05
1.40478e-05
1.40478e-05
1.40478e-05
1.40478e-05
1.40478e-05
1.40478e-05
1.40478e-05
1.40478e-05
1.40478e-05
1.40478e-05
1.40478e-05
1.40479e-05
1.40479e-05
1.40479e-05
1.40479e-05
1.40479e-05
1.40479e-05
1.40479e-05
1.40479e-05
1.40479e-05
1.40479e-05
1.40479e-05
1.40479e-05
1.40479e-05
1.40479e-05
1.40479e-05
1.40479e-05
1.40479e-05
1.4048e-05
1.4048e-05
1.4048e-05
1.4048e-05
1.4048e-05
1.4048e-05
1.4048e-05
1.4048e-05
1.4048e-05
1.4048e-05
1.40481e-05
1.40481e-05
1.40481e-05
1.40481e-05
1.40481e-05
1.40481e-05
1.40481e-05
1.40482e-05
1.40482e-05
1.40482e-05
1.40482e-05
1.40483e-05
1.40483e-05
1.40483e-05
1.40483e-05
1.40484e-05
1.40484e-05
1.40484e-05
1.40484e-05
1.40485e-05
1.40485e-05
1.40485e-05
1.40486e-05
1.40486e-05
1.40487e-05
1.40487e-05
1.40488e-05
1.40488e-05
1.40489e-05
1.40489e-05
1.4049e-05
1.4049e-05
1.40491e-05
1.40492e-05
1.40492e-05
1.40493e-05
1.40494e-05
1.40481e-05
1.40481e-05
1.40481e-05
1.40481e-05
1.40481e-05
1.40481e-05
1.4048e-05
1.4048e-05
1.4048e-05
1.4048e-05
1.4048e-05
1.4048e-05
1.4048e-05
1.4048e-05
1.4048e-05
1.4048e-05
1.4048e-05
1.40479e-05
1.40479e-05
1.40479e-05
1.40479e-05
1.40479e-05
1.40479e-05
1.40479e-05
1.40479e-05
1.40479e-05
1.40479e-05
1.40479e-05
1.40479e-05
1.40479e-05
1.40479e-05
1.40479e-05
1.40479e-05
1.40479e-05
1.40479e-05
1.40479e-05
1.4048e-05
1.4048e-05
1.4048e-05
1.4048e-05
1.4048e-05
1.4048e-05
1.4048e-05
1.40481e-05
1.40481e-05
1.40481e-05
1.40481e-05
1.40481e-05
1.40482e-05
1.40482e-05
1.40482e-05
1.40482e-05
1.40483e-05
1.40483e-05
1.40483e-05
1.40483e-05
1.40484e-05
1.40484e-05
1.40484e-05
1.40485e-05
1.40485e-05
1.40486e-05
1.40486e-05
1.40487e-05
1.40487e-05
1.40488e-05
1.40488e-05
1.40489e-05
1.40489e-05
1.4049e-05
1.4049e-05
1.40491e-05
1.40492e-05
1.40492e-05
1.40493e-05
1.40494e-05
1.40495e-05
1.40496e-05
1.40497e-05
1.40497e-05
1.40498e-05
1.405e-05
1.40501e-05
1.40502e-05
1.40503e-05
1.40504e-05
1.40506e-05
1.40507e-05
1.40509e-05
1.4051e-05
1.40512e-05
1.40514e-05
1.40516e-05
1.40518e-05
1.4052e-05
1.40522e-05
1.40524e-05
1.40527e-05
1.4053e-05
1.40532e-05
1.40535e-05
1.40538e-05
1.40541e-05
1.40545e-05
1.40548e-05
1.40552e-05
1.40556e-05
1.4056e-05
1.40565e-05
1.4057e-05
1.40492e-05
1.40492e-05
1.40491e-05
1.40491e-05
1.4049e-05
1.4049e-05
1.4049e-05
1.40489e-05
1.40489e-05
1.40488e-05
1.40488e-05
1.40487e-05
1.40487e-05
1.40486e-05
1.40486e-05
1.40486e-05
1.40485e-05
1.40485e-05
1.40485e-05
1.40485e-05
1.40484e-05
1.40484e-05
1.40484e-05
1.40484e-05
1.40484e-05
1.40484e-05
1.40484e-05
1.40484e-05
1.40484e-05
1.40484e-05
1.40484e-05
1.40484e-05
1.40484e-05
1.40485e-05
1.40485e-05
1.40486e-05
1.40486e-05
1.40487e-05
1.40487e-05
1.40488e-05
1.40489e-05
1.40489e-05
1.4049e-05
1.40491e-05
1.40492e-05
1.40493e-05
1.40494e-05
1.40496e-05
1.40497e-05
1.40498e-05
1.40499e-05
1.40501e-05
1.40502e-05
1.40503e-05
1.40505e-05
1.40507e-05
1.40508e-05
1.4051e-05
1.40512e-05
1.40514e-05
1.40516e-05
1.40518e-05
1.4052e-05
1.40523e-05
1.40525e-05
1.40528e-05
1.40531e-05
1.40533e-05
1.40536e-05
1.4054e-05
1.40543e-05
1.40547e-05
1.4055e-05
1.40554e-05
1.40558e-05
1.40563e-05
1.40567e-05
1.40572e-05
1.40577e-05
1.40582e-05
1.40588e-05
1.40594e-05
1.406e-05
1.40607e-05
1.40614e-05
1.40621e-05
1.40629e-05
1.40637e-05
1.40646e-05
1.40655e-05
1.40665e-05
1.40675e-05
1.40686e-05
1.40698e-05
1.4071e-05
1.40722e-05
1.40736e-05
1.4075e-05
1.40765e-05
1.40781e-05
1.40798e-05
1.40815e-05
1.40834e-05
1.40853e-05
1.40874e-05
1.40896e-05
1.40919e-05
1.40944e-05
1.40969e-05
1.40997e-05
1.40542e-05
1.4054e-05
1.40538e-05
1.40536e-05
1.40534e-05
1.40532e-05
1.4053e-05
1.40528e-05
1.40526e-05
1.40524e-05
1.40522e-05
1.4052e-05
1.40518e-05
1.40516e-05
1.40514e-05
1.40513e-05
1.40512e-05
1.4051e-05
1.40509e-05
1.40508e-05
1.40507e-05
1.40506e-05
1.40506e-05
1.40505e-05
1.40505e-05
1.40505e-05
1.40505e-05
1.40505e-05
1.40505e-05
1.40506e-05
1.40507e-05
1.40508e-05
1.40509e-05
1.40511e-05
1.40512e-05
1.40515e-05
1.40517e-05
1.4052e-05
1.40523e-05
1.40527e-05
1.40531e-05
1.40535e-05
1.40539e-05
1.40544e-05
1.40549e-05
1.40554e-05
1.4056e-05
1.40566e-05
1.40572e-05
1.40578e-05
1.40584e-05
1.40591e-05
1.40598e-05
1.40606e-05
1.40613e-05
1.40622e-05
1.4063e-05
1.40639e-05
1.40649e-05
1.40659e-05
1.4067e-05
1.40681e-05
1.40693e-05
1.40706e-05
1.40719e-05
1.40733e-05
1.40748e-05
1.40764e-05
1.4078e-05
1.40797e-05
1.40815e-05
1.40835e-05
1.40855e-05
1.40876e-05
1.40898e-05
1.40921e-05
1.40946e-05
1.40972e-05
1.40999e-05
1.41028e-05
1.41059e-05
1.41091e-05
1.41125e-05
1.41161e-05
1.41199e-05
1.41239e-05
1.41282e-05
1.41327e-05
1.41375e-05
1.41426e-05
1.4148e-05
1.41536e-05
1.41596e-05
1.4166e-05
1.41727e-05
1.41798e-05
1.41873e-05
1.41953e-05
1.42036e-05
1.42125e-05
1.42218e-05
1.42317e-05
1.42421e-05
1.4253e-05
1.42646e-05
1.42769e-05
1.42898e-05
1.43035e-05
1.4318e-05
1.43333e-05
1.40761e-05
1.40752e-05
1.40743e-05
1.40733e-05
1.40724e-05
1.40714e-05
1.40705e-05
1.40695e-05
1.40686e-05
1.40677e-05
1.40669e-05
1.40661e-05
1.40653e-05
1.40645e-05
1.40638e-05
1.40632e-05
1.40626e-05
1.4062e-05
1.40615e-05
1.40611e-05
1.40607e-05
1.40604e-05
1.40602e-05
1.406e-05
1.40599e-05
1.40599e-05
1.406e-05
1.40601e-05
1.40603e-05
1.40606e-05
1.40611e-05
1.40617e-05
1.40623e-05
1.40632e-05
1.40642e-05
1.40653e-05
1.40666e-05
1.4068e-05
1.40696e-05
1.40714e-05
1.40733e-05
1.40754e-05
1.40776e-05
1.408e-05
1.40825e-05
1.40851e-05
1.40879e-05
1.40908e-05
1.40938e-05
1.4097e-05
1.41003e-05
1.41037e-05
1.41073e-05
1.4111e-05
1.4115e-05
1.41191e-05
1.41235e-05
1.41281e-05
1.4133e-05
1.41382e-05
1.41437e-05
1.41495e-05
1.41556e-05
1.41621e-05
1.4169e-05
1.41762e-05
1.41839e-05
1.41919e-05
1.42004e-05
1.42094e-05
1.42188e-05
1.42287e-05
1.42391e-05
1.42501e-05
1.42617e-05
1.42739e-05
1.42868e-05
1.43004e-05
1.43147e-05
1.43298e-05
1.43458e-05
1.43627e-05
1.43805e-05
1.43993e-05
1.44192e-05
1.44403e-05
1.44626e-05
1.44862e-05
1.45112e-05
1.45377e-05
1.45658e-05
1.45956e-05
1.46272e-05
1.46606e-05
1.46961e-05
1.47336e-05
1.47733e-05
1.48153e-05
1.48597e-05
1.49064e-05
1.49558e-05
1.50077e-05
1.50623e-05
1.51196e-05
1.51798e-05
1.5243e-05
1.53091e-05
1.53785e-05
1.54512e-05
1.55273e-05
1.4174e-05
1.41701e-05
1.41661e-05
1.4162e-05
1.41579e-05
1.41537e-05
1.41496e-05
1.41455e-05
1.41415e-05
1.41375e-05
1.41338e-05
1.41301e-05
1.41266e-05
1.41233e-05
1.41202e-05
1.41173e-05
1.41146e-05
1.41121e-05
1.41099e-05
1.41079e-05
1.41062e-05
1.41047e-05
1.41035e-05
1.41026e-05
1.41021e-05
1.41021e-05
1.41023e-05
1.41027e-05
1.41035e-05
1.41047e-05
1.41065e-05
1.41088e-05
1.41117e-05
1.41153e-05
1.41194e-05
1.41243e-05
1.41299e-05
1.41362e-05
1.41433e-05
1.41511e-05
1.41597e-05
1.41691e-05
1.41792e-05
1.419e-05
1.42015e-05
1.42137e-05
1.42266e-05
1.42401e-05
1.42541e-05
1.42688e-05
1.42841e-05
1.43e-05
1.43166e-05
1.4334e-05
1.43522e-05
1.43713e-05
1.43915e-05
1.44128e-05
1.44352e-05
1.4459e-05
1.44842e-05
1.45109e-05
1.45391e-05
1.45689e-05
1.46005e-05
1.46339e-05
1.46691e-05
1.47062e-05
1.47454e-05
1.47867e-05
1.48302e-05
1.48759e-05
1.49242e-05
1.49749e-05
1.50283e-05
1.50845e-05
1.51436e-05
1.52057e-05
1.5271e-05
1.53395e-05
1.54114e-05
1.54867e-05
1.55657e-05
1.56485e-05
1.57352e-05
1.58259e-05
1.59209e-05
1.60204e-05
1.61246e-05
1.62337e-05
1.63482e-05
1.64683e-05
1.65944e-05
1.67267e-05
1.68658e-05
1.70119e-05
1.71654e-05
1.73266e-05
1.74957e-05
1.7673e-05
1.78586e-05
1.80527e-05
1.82551e-05
1.8466e-05
1.8685e-05
1.8912e-05
1.91467e-05
1.93888e-05
1.9638e-05
1.9894e-05
2.01565e-05
1.45736e-05
1.45572e-05
1.45405e-05
1.45234e-05
1.45062e-05
1.44889e-05
1.44719e-05
1.4455e-05
1.44386e-05
1.44227e-05
1.44073e-05
1.43926e-05
1.43785e-05
1.43652e-05
1.43528e-05
1.43412e-05
1.43306e-05
1.43209e-05
1.43123e-05
1.43046e-05
1.4298e-05
1.42925e-05
1.42883e-05
1.42856e-05
1.42849e-05
1.42854e-05
1.42866e-05
1.42894e-05
1.4294e-05
1.43008e-05
1.43099e-05
1.43214e-05
1.43356e-05
1.43527e-05
1.43727e-05
1.43959e-05
1.44223e-05
1.44521e-05
1.44852e-05
1.45218e-05
1.45617e-05
1.4605e-05
1.46514e-05
1.47009e-05
1.47533e-05
1.48086e-05
1.48665e-05
1.4927e-05
1.499e-05
1.50555e-05
1.51235e-05
1.51942e-05
1.52677e-05
1.53443e-05
1.54243e-05
1.55081e-05
1.55959e-05
1.5688e-05
1.57847e-05
1.58863e-05
1.59928e-05
1.61044e-05
1.62214e-05
1.63438e-05
1.64716e-05
1.66052e-05
1.67445e-05
1.68897e-05
1.7041e-05
1.71987e-05
1.73629e-05
1.7534e-05
1.77123e-05
1.78979e-05
1.80913e-05
1.82926e-05
1.85021e-05
1.87199e-05
1.8946e-05
1.91804e-05
1.94231e-05
1.96738e-05
1.99324e-05
2.01986e-05
2.04722e-05
2.07527e-05
2.10401e-05
2.1334e-05
2.16345e-05
2.19414e-05
2.22549e-05
2.25753e-05
2.2903e-05
2.32385e-05
2.35825e-05
2.39359e-05
2.42993e-05
2.46738e-05
2.50603e-05
2.54595e-05
2.58722e-05
2.62989e-05
2.67397e-05
2.71949e-05
2.76638e-05
2.8146e-05
2.86402e-05
2.91449e-05
2.96583e-05
3.01779e-05
3.07014e-05
3.12257e-05
3.17481e-05
1.60603e-05
1.60012e-05
1.59406e-05
1.58788e-05
1.58165e-05
1.5754e-05
1.56921e-05
1.56313e-05
1.55719e-05
1.55143e-05
1.54587e-05
1.54053e-05
1.53544e-05
1.53063e-05
1.52614e-05
1.52199e-05
1.51818e-05
1.51475e-05
1.5117e-05
1.50903e-05
1.50676e-05
1.50493e-05
1.50364e-05
1.50311e-05
1.50318e-05
1.50355e-05
1.50442e-05
1.50598e-05
1.50833e-05
1.51154e-05
1.5157e-05
1.52088e-05
1.52715e-05
1.53458e-05
1.54321e-05
1.55308e-05
1.56419e-05
1.57657e-05
1.59019e-05
1.60501e-05
1.62095e-05
1.63792e-05
1.65582e-05
1.67456e-05
1.69402e-05
1.71414e-05
1.73483e-05
1.75606e-05
1.77777e-05
1.79998e-05
1.82267e-05
1.84589e-05
1.86969e-05
1.89415e-05
1.91937e-05
1.94542e-05
1.97233e-05
2.00014e-05
2.02886e-05
2.05849e-05
2.08901e-05
2.12038e-05
2.15253e-05
2.18541e-05
2.21896e-05
2.25314e-05
2.28789e-05
2.3232e-05
2.35905e-05
2.39546e-05
2.43246e-05
2.47009e-05
2.50843e-05
2.54754e-05
2.5875e-05
2.62838e-05
2.67024e-05
2.71315e-05
2.75712e-05
2.80215e-05
2.84823e-05
2.89528e-05
2.94322e-05
2.99192e-05
3.04121e-05
3.0909e-05
3.14078e-05
3.19062e-05
3.24016e-05
3.28915e-05
3.33735e-05
3.38452e-05
3.43043e-05
3.47489e-05
3.51774e-05
3.55885e-05
3.59813e-05
3.63552e-05
3.67103e-05
3.70466e-05
3.73652e-05
3.76666e-05
3.79514e-05
3.82202e-05
3.84736e-05
3.87125e-05
3.89375e-05
3.91492e-05
3.93484e-05
3.95356e-05
3.97115e-05
3.98767e-05
4.00318e-05
2.05938e-05
2.04533e-05
2.03072e-05
2.01567e-05
2.00021e-05
1.98438e-05
1.96826e-05
1.95202e-05
1.93585e-05
1.91989e-05
1.90426e-05
1.889e-05
1.87419e-05
1.85987e-05
1.84615e-05
1.83314e-05
1.82094e-05
1.80963e-05
1.79929e-05
1.79e-05
1.78181e-05
1.77474e-05
1.76879e-05
1.76423e-05
1.76167e-05
1.76152e-05
1.76233e-05
1.76451e-05
1.76862e-05
1.77497e-05
1.78378e-05
1.79527e-05
1.80964e-05
1.8271e-05
1.84777e-05
1.87169e-05
1.89883e-05
1.92912e-05
1.96246e-05
1.99869e-05
2.03757e-05
2.07873e-05
2.12176e-05
2.16619e-05
2.21158e-05
2.2575e-05
2.30361e-05
2.34961e-05
2.39531e-05
2.44063e-05
2.48553e-05
2.53005e-05
2.57429e-05
2.61839e-05
2.66257e-05
2.70706e-05
2.75213e-05
2.79791e-05
2.84452e-05
2.892e-05
2.94034e-05
2.98949e-05
3.03933e-05
3.08968e-05
3.14032e-05
3.191e-05
3.24142e-05
3.29132e-05
3.3404e-05
3.38842e-05
3.43512e-05
3.48031e-05
3.5238e-05
3.56549e-05
3.60528e-05
3.64313e-05
3.67904e-05
3.71303e-05
3.74514e-05
3.77544e-05
3.80404e-05
3.83103e-05
3.85646e-05
3.88039e-05
3.90288e-05
3.92401e-05
3.94384e-05
3.96242e-05
3.97983e-05
3.99612e-05
4.01138e-05
4.02566e-05
4.03906e-05
4.05166e-05
4.06357e-05
4.0749e-05
4.08579e-05
4.09637e-05
4.10677e-05
4.11711e-05
4.12749e-05
4.13843e-05
4.14988e-05
4.16125e-05
4.17257e-05
4.18393e-05
4.19538e-05
4.20682e-05
4.21825e-05
4.22971e-05
4.24123e-05
4.25281e-05
4.26447e-05
4.27622e-05
4.28804e-05
2.85134e-05
2.82934e-05
2.80658e-05
2.78329e-05
2.7594e-05
2.73475e-05
2.70936e-05
2.68357e-05
2.65777e-05
2.63229e-05
2.60725e-05
2.5827e-05
2.5587e-05
2.53534e-05
2.51279e-05
2.49129e-05
2.47109e-05
2.45237e-05
2.4353e-05
2.42013e-05
2.40705e-05
2.39598e-05
2.3868e-05
2.38072e-05
2.38003e-05
2.38144e-05
2.38541e-05
2.39285e-05
2.4043e-05
2.42019e-05
2.44085e-05
2.46652e-05
2.49741e-05
2.53366e-05
2.57514e-05
2.62148e-05
2.67219e-05
2.72682e-05
2.78499e-05
2.84627e-05
2.91001e-05
2.97543e-05
3.0417e-05
3.108e-05
3.17354e-05
3.23762e-05
3.29962e-05
3.35905e-05
3.41555e-05
3.46894e-05
3.51912e-05
3.5661e-05
3.60993e-05
3.65074e-05
3.68871e-05
3.72422e-05
3.75755e-05
3.78872e-05
3.81788e-05
3.8453e-05
3.87117e-05
3.89552e-05
3.91838e-05
3.93981e-05
3.95987e-05
3.9786e-05
3.99608e-05
4.01236e-05
4.02752e-05
4.04164e-05
4.05481e-05
4.06713e-05
4.07872e-05
4.0897e-05
4.10021e-05
4.11039e-05
4.12037e-05
4.13025e-05
4.14014e-05
4.15035e-05
4.16105e-05
4.17164e-05
4.18214e-05
4.19263e-05
4.2032e-05
4.21381e-05
4.22442e-05
4.23504e-05
4.24571e-05
4.25644e-05
4.26725e-05
4.27814e-05
4.28911e-05
4.30016e-05
4.31131e-05
4.32255e-05
4.33385e-05
4.34521e-05
4.35657e-05
4.3679e-05
4.37926e-05
4.39022e-05
4.40051e-05
4.41071e-05
4.42089e-05
4.43101e-05
4.44109e-05
4.4514e-05
4.46205e-05
4.473e-05
4.48424e-05
4.49574e-05
4.50749e-05
4.51947e-05
4.53163e-05
4.54396e-05
3.80474e-05
3.79013e-05
3.77382e-05
3.7568e-05
3.73949e-05
3.7221e-05
3.70428e-05
3.68538e-05
3.66568e-05
3.64587e-05
3.62605e-05
3.60572e-05
3.58441e-05
3.56221e-05
3.53964e-05
3.51721e-05
3.49506e-05
3.47311e-05
3.45133e-05
3.42978e-05
3.40859e-05
3.38798e-05
3.36827e-05
3.34979e-05
3.33272e-05
3.3173e-05
3.304e-05
3.2932e-05
3.28442e-05
3.27772e-05
3.27651e-05
3.27877e-05
3.28416e-05
3.29316e-05
3.30637e-05
3.32437e-05
3.34752e-05
3.37578e-05
3.40878e-05
3.44634e-05
3.4885e-05
3.5343e-05
3.58212e-05
3.63062e-05
3.67892e-05
3.72642e-05
3.77252e-05
3.81641e-05
3.85747e-05
3.89538e-05
3.92993e-05
3.96093e-05
3.98841e-05
4.01254e-05
4.03355e-05
4.0517e-05
4.06734e-05
4.08083e-05
4.09259e-05
4.10304e-05
4.11256e-05
4.12142e-05
4.12983e-05
4.13814e-05
4.14668e-05
4.15549e-05
4.16504e-05
4.17477e-05
4.18454e-05
4.19441e-05
4.20446e-05
4.21473e-05
4.22515e-05
4.23565e-05
4.24623e-05
4.2569e-05
4.26764e-05
4.27846e-05
4.28933e-05
4.30026e-05
4.31121e-05
4.32218e-05
4.33312e-05
4.34398e-05
4.35476e-05
4.36549e-05
4.37595e-05
4.38577e-05
4.39549e-05
4.4052e-05
4.4149e-05
4.42454e-05
4.43423e-05
4.4442e-05
4.45447e-05
4.46499e-05
4.47576e-05
4.48676e-05
4.49796e-05
4.50932e-05
4.52082e-05
4.53243e-05
4.54409e-05
4.55578e-05
4.56746e-05
4.57913e-05
4.59079e-05
4.60239e-05
4.61393e-05
4.62564e-05
4.63766e-05
4.65003e-05
4.66279e-05
4.676e-05
4.68952e-05
4.70329e-05
4.71729e-05
4.7315e-05
4.74592e-05
4.7605e-05
4.77523e-05
4.7901e-05
4.80509e-05
4.12346e-05
4.10914e-05
4.09482e-05
4.0806e-05
4.06722e-05
4.05406e-05
4.03972e-05
4.02532e-05
4.01152e-05
3.99832e-05
3.98599e-05
3.97397e-05
3.96219e-05
3.95065e-05
3.93921e-05
3.92824e-05
3.91802e-05
3.90859e-05
3.89983e-05
3.89178e-05
3.88448e-05
3.87789e-05
3.87214e-05
3.86725e-05
3.86319e-05
3.86023e-05
3.8588e-05
3.85863e-05
3.85943e-05
3.86201e-05
3.86694e-05
3.87261e-05
3.87969e-05
3.88882e-05
3.90013e-05
3.91376e-05
3.92954e-05
3.94673e-05
3.965e-05
3.98509e-05
4.00686e-05
4.02794e-05
4.0482e-05
4.0683e-05
4.08817e-05
4.10736e-05
4.12561e-05
4.14296e-05
4.15968e-05
4.17544e-05
4.19083e-05
4.20584e-05
4.22012e-05
4.2336e-05
4.24638e-05
4.25853e-05
4.27015e-05
4.28134e-05
4.29219e-05
4.30277e-05
4.31314e-05
4.32323e-05
4.33297e-05
4.34257e-05
4.35223e-05
4.36185e-05
4.3709e-05
4.37976e-05
4.38878e-05
4.398e-05
4.40737e-05
4.41682e-05
4.42649e-05
4.43653e-05
4.44689e-05
4.45751e-05
4.46834e-05
4.47936e-05
4.4905e-05
4.50172e-05
4.51297e-05
4.52421e-05
4.53542e-05
4.54662e-05
4.55778e-05
4.56887e-05
4.57987e-05
4.59097e-05
4.60231e-05
4.61391e-05
4.62581e-05
4.63808e-05
4.6507e-05
4.66356e-05
4.67663e-05
4.6899e-05
4.70334e-05
4.71693e-05
4.73067e-05
4.74453e-05
4.75849e-05
4.77256e-05
4.78674e-05
4.80103e-05
4.81546e-05
4.83007e-05
4.84488e-05
4.85993e-05
4.87528e-05
4.89098e-05
4.90702e-05
4.92337e-05
4.94001e-05
4.95689e-05
4.97394e-05
4.99116e-05
5.00853e-05
5.02606e-05
5.04373e-05
5.06155e-05
5.07951e-05
5.09762e-05
5.11589e-05
4.2973e-05
4.28433e-05
4.27146e-05
4.25878e-05
4.24704e-05
4.23547e-05
4.22252e-05
4.20956e-05
4.19704e-05
4.18526e-05
4.17436e-05
4.16378e-05
4.15343e-05
4.14334e-05
4.13342e-05
4.12386e-05
4.11489e-05
4.10657e-05
4.09891e-05
4.09201e-05
4.08592e-05
4.08066e-05
4.07625e-05
4.07265e-05
4.06983e-05
4.06828e-05
4.06828e-05
4.06895e-05
4.07072e-05
4.07392e-05
4.07859e-05
4.08445e-05
4.09147e-05
4.09981e-05
4.10964e-05
4.12106e-05
4.13392e-05
4.14786e-05
4.16276e-05
4.17904e-05
4.19654e-05
4.21351e-05
4.23078e-05
4.24861e-05
4.2668e-05
4.28523e-05
4.30357e-05
4.32157e-05
4.3394e-05
4.3564e-05
4.37189e-05
4.38668e-05
4.40099e-05
4.41465e-05
4.42776e-05
4.44061e-05
4.45324e-05
4.46557e-05
4.47753e-05
4.4891e-05
4.50026e-05
4.51098e-05
4.52135e-05
4.53153e-05
4.54158e-05
4.55152e-05
4.56148e-05
4.57169e-05
4.58226e-05
4.59323e-05
4.60464e-05
4.61653e-05
4.62883e-05
4.6414e-05
4.65419e-05
4.66717e-05
4.6803e-05
4.69355e-05
4.7069e-05
4.72033e-05
4.73384e-05
4.74744e-05
4.76116e-05
4.775e-05
4.78899e-05
4.80316e-05
4.81758e-05
4.83227e-05
4.84725e-05
4.86251e-05
4.87803e-05
4.89377e-05
4.9097e-05
4.92577e-05
4.94199e-05
4.95835e-05
4.97485e-05
4.99149e-05
5.00827e-05
5.02521e-05
5.0423e-05
5.05958e-05
5.07705e-05
5.09473e-05
5.11264e-05
5.13078e-05
5.14916e-05
5.16779e-05
5.18665e-05
5.20571e-05
5.22496e-05
5.24436e-05
5.2639e-05
5.28356e-05
5.30335e-05
5.32325e-05
5.34329e-05
5.36344e-05
5.38373e-05
5.40416e-05
5.42472e-05
5.44544e-05
5.4663e-05
4.4448e-05
4.43406e-05
4.42332e-05
4.41302e-05
4.40338e-05
4.39357e-05
4.38318e-05
4.37251e-05
4.36207e-05
4.35237e-05
4.34339e-05
4.33487e-05
4.32667e-05
4.31869e-05
4.31087e-05
4.30327e-05
4.29606e-05
4.28939e-05
4.28334e-05
4.27795e-05
4.27326e-05
4.26927e-05
4.26594e-05
4.2632e-05
4.26106e-05
4.26016e-05
4.26029e-05
4.26099e-05
4.26267e-05
4.26555e-05
4.2696e-05
4.27472e-05
4.28089e-05
4.28822e-05
4.29685e-05
4.30682e-05
4.31796e-05
4.3301e-05
4.3434e-05
4.35767e-05
4.37205e-05
4.38757e-05
4.40427e-05
4.42196e-05
4.43976e-05
4.45764e-05
4.47565e-05
4.49367e-05
4.51156e-05
4.52909e-05
4.54629e-05
4.56341e-05
4.58051e-05
4.59758e-05
4.61451e-05
4.63108e-05
4.64715e-05
4.66266e-05
4.67757e-05
4.6919e-05
4.70569e-05
4.71905e-05
4.73211e-05
4.745e-05
4.75783e-05
4.77076e-05
4.78394e-05
4.79746e-05
4.81136e-05
4.82565e-05
4.84032e-05
4.85532e-05
4.87056e-05
4.886e-05
4.90161e-05
4.91738e-05
4.93329e-05
4.94934e-05
4.96554e-05
4.9819e-05
4.99843e-05
5.01514e-05
5.03205e-05
5.04916e-05
5.06649e-05
5.08402e-05
5.10177e-05
5.11969e-05
5.13778e-05
5.15602e-05
5.17439e-05
5.19287e-05
5.21147e-05
5.23019e-05
5.24903e-05
5.26799e-05
5.2871e-05
5.30635e-05
5.32574e-05
5.3453e-05
5.36501e-05
5.38489e-05
5.40494e-05
5.42514e-05
5.4455e-05
5.466e-05
5.48663e-05
5.50737e-05
5.52821e-05
5.54914e-05
5.57014e-05
5.59121e-05
5.61236e-05
5.63358e-05
5.65487e-05
5.67624e-05
5.69769e-05
5.71921e-05
5.7408e-05
5.76247e-05
5.78421e-05
5.80601e-05
5.82787e-05
5.84978e-05
5.87172e-05
4.59735e-05
4.58917e-05
4.581e-05
4.57321e-05
4.56583e-05
4.55836e-05
4.55058e-05
4.54255e-05
4.53465e-05
4.5272e-05
4.5202e-05
4.51357e-05
4.50726e-05
4.50117e-05
4.49522e-05
4.48939e-05
4.48376e-05
4.47845e-05
4.47359e-05
4.46929e-05
4.46561e-05
4.46252e-05
4.45996e-05
4.45784e-05
4.45625e-05
4.45567e-05
4.45578e-05
4.4564e-05
4.45792e-05
4.46049e-05
4.46409e-05
4.46868e-05
4.47433e-05
4.48115e-05
4.48924e-05
4.49856e-05
4.50929e-05
4.52108e-05
4.53322e-05
4.54667e-05
4.56167e-05
4.5782e-05
4.59584e-05
4.61414e-05
4.63289e-05
4.65212e-05
4.67194e-05
4.69226e-05
4.71299e-05
4.73404e-05
4.75535e-05
4.77682e-05
4.79829e-05
4.81955e-05
4.8404e-05
4.86065e-05
4.88023e-05
4.89909e-05
4.91727e-05
4.93481e-05
4.95181e-05
4.96838e-05
4.98466e-05
5.00076e-05
5.01682e-05
5.03294e-05
5.04924e-05
5.06575e-05
5.08253e-05
5.09957e-05
5.11685e-05
5.13436e-05
5.15207e-05
5.16997e-05
5.18803e-05
5.20626e-05
5.22464e-05
5.24319e-05
5.2619e-05
5.28077e-05
5.29981e-05
5.31901e-05
5.33837e-05
5.35788e-05
5.37752e-05
5.39727e-05
5.41711e-05
5.43704e-05
5.45705e-05
5.47712e-05
5.49726e-05
5.51747e-05
5.53776e-05
5.55814e-05
5.5786e-05
5.59915e-05
5.61979e-05
5.64053e-05
5.66135e-05
5.68226e-05
5.70325e-05
5.72432e-05
5.74544e-05
5.76662e-05
5.78785e-05
5.8091e-05
5.83038e-05
5.85168e-05
5.87299e-05
5.89432e-05
5.91565e-05
5.93699e-05
5.95833e-05
5.97968e-05
6.00103e-05
6.02238e-05
6.04372e-05
6.06505e-05
6.08636e-05
6.10763e-05
6.12888e-05
6.15007e-05
6.17122e-05
6.19229e-05
6.2133e-05
4.77328e-05
4.76802e-05
4.76295e-05
4.75798e-05
4.7532e-05
4.74841e-05
4.74338e-05
4.73816e-05
4.73303e-05
4.72819e-05
4.72358e-05
4.71914e-05
4.71491e-05
4.71087e-05
4.70693e-05
4.70305e-05
4.69924e-05
4.6956e-05
4.69224e-05
4.68928e-05
4.68679e-05
4.68478e-05
4.68317e-05
4.68191e-05
4.68118e-05
4.68117e-05
4.68154e-05
4.68253e-05
4.68433e-05
4.68704e-05
4.69068e-05
4.69528e-05
4.70095e-05
4.70779e-05
4.71581e-05
4.72523e-05
4.73615e-05
4.74734e-05
4.75977e-05
4.77398e-05
4.79013e-05
4.80788e-05
4.82667e-05
4.84626e-05
4.8667e-05
4.88813e-05
4.9106e-05
4.93401e-05
4.95816e-05
4.98284e-05
5.00781e-05
5.03282e-05
5.05761e-05
5.08198e-05
5.10577e-05
5.12888e-05
5.15123e-05
5.17282e-05
5.19367e-05
5.21384e-05
5.23341e-05
5.25249e-05
5.27119e-05
5.28964e-05
5.30795e-05
5.32623e-05
5.34456e-05
5.36302e-05
5.38164e-05
5.40046e-05
5.41947e-05
5.43867e-05
5.45804e-05
5.47757e-05