/*--------------------------------*- C++ -*----------------------------------*\
| =========                 |                                                 |
| \\      /  F ield         | OpenFOAM: The Open Source CFD Toolbox           |
|  \\    /   O peration     | Version:  v1706                                 |
|   \\  /    A nd           | Web:      www.OpenFOAM.com                      |
|    \\/     M anipulation  |                                                 |
\*---------------------------------------------------------------------------*/
FoamFile
{
    version     2.0;
    format      ascii;
    class       volScalarField;
    location    "4e-06";
    object      kappave;
}
// * * * * * * * * * * * * * * * * * * * * * * * * * * * * * * * * * * * * * //

dimensions      [1 1 -3 -1 0 0 0];


internalField   nonuniform List<scalar> 
29871
(
1.46038e-10
1.46038e-10
1.46038e-10
1.46038e-10
1.46038e-10
1.46038e-10
1.46038e-10
1.46038e-10
1.46038e-10
1.46038e-10
1.46038e-10
1.46038e-10
1.46038e-10
1.46038e-10
1.46038e-10
1.46038e-10
1.46038e-10
1.46038e-10
1.46038e-10
1.46038e-10
1.46038e-10
1.46038e-10
1.46038e-10
1.46038e-10
1.46038e-10
1.46038e-10
1.46038e-10
1.46038e-10
1.46038e-10
1.46038e-10
1.46038e-10
1.46038e-10
1.46038e-10
1.46038e-10
1.46038e-10
1.46038e-10
1.46038e-10
1.46038e-10
1.46038e-10
1.46038e-10
1.46038e-10
1.46038e-10
1.46038e-10
1.46038e-10
1.46038e-10
1.46038e-10
1.46038e-10
1.46038e-10
1.46038e-10
1.46038e-10
1.46038e-10
1.46038e-10
1.46038e-10
1.46038e-10
1.46038e-10
1.46038e-10
1.46038e-10
1.46038e-10
1.46038e-10
1.46038e-10
1.46038e-10
1.46038e-10
1.46038e-10
1.46038e-10
1.46038e-10
1.46038e-10
1.46038e-10
1.46038e-10
1.46038e-10
1.46038e-10
1.46038e-10
1.46038e-10
1.46038e-10
1.46038e-10
1.46038e-10
1.46038e-10
1.46038e-10
1.46038e-10
1.46038e-10
1.46038e-10
1.46038e-10
1.46038e-10
1.46038e-10
1.46038e-10
1.46038e-10
1.46038e-10
1.46038e-10
1.46038e-10
1.46038e-10
1.46038e-10
1.46038e-10
1.46038e-10
1.46038e-10
1.46038e-10
1.46038e-10
1.46038e-10
1.46038e-10
1.46038e-10
1.46038e-10
1.46038e-10
1.46038e-10
1.46038e-10
1.46038e-10
1.46038e-10
1.46038e-10
1.46038e-10
1.46038e-10
1.46038e-10
1.46038e-10
1.46038e-10
1.46038e-10
1.46038e-10
1.46038e-10
1.46038e-10
1.46038e-10
1.46038e-10
1.46038e-10
1.46038e-10
1.46038e-10
1.46038e-10
1.46038e-10
1.46038e-10
1.46038e-10
1.46038e-10
1.46038e-10
1.46038e-10
1.46038e-10
1.46038e-10
1.46038e-10
1.46038e-10
1.46038e-10
1.46038e-10
1.46038e-10
1.46038e-10
1.46038e-10
1.46038e-10
1.46038e-10
1.46038e-10
1.46038e-10
1.46038e-10
1.46038e-10
1.46038e-10
1.46038e-10
1.46038e-10
1.46038e-10
1.46038e-10
1.46038e-10
1.46038e-10
1.46038e-10
1.46038e-10
1.46038e-10
1.46038e-10
1.46038e-10
1.46038e-10
1.46038e-10
1.46038e-10
1.46038e-10
1.46038e-10
1.46038e-10
1.46038e-10
1.46038e-10
1.46038e-10
1.46038e-10
1.46038e-10
1.46038e-10
1.46038e-10
1.46038e-10
1.46038e-10
1.46038e-10
1.46038e-10
1.46038e-10
1.46038e-10
1.46038e-10
1.46038e-10
1.46038e-10
1.46038e-10
1.46038e-10
1.46038e-10
1.46038e-10
1.46038e-10
1.46038e-10
1.46038e-10
1.46038e-10
1.46038e-10
1.46038e-10
1.46038e-10
1.46038e-10
1.46038e-10
1.46038e-10
1.46038e-10
1.46038e-10
1.46038e-10
1.46038e-10
1.46038e-10
1.46038e-10
1.46038e-10
1.46038e-10
1.46038e-10
1.46038e-10
1.46038e-10
1.46038e-10
1.46038e-10
1.46038e-10
1.46038e-10
1.46038e-10
1.46038e-10
1.46038e-10
1.46038e-10
1.46038e-10
1.46038e-10
1.46038e-10
1.46038e-10
1.46038e-10
1.46038e-10
1.46038e-10
1.46038e-10
1.46038e-10
1.46038e-10
1.46038e-10
1.46038e-10
1.46038e-10
1.46038e-10
1.46038e-10
1.46038e-10
1.46038e-10
1.46038e-10
1.46038e-10
1.46038e-10
1.46038e-10
1.46038e-10
1.46038e-10
1.46038e-10
1.46038e-10
1.46038e-10
1.46038e-10
1.46038e-10
1.46038e-10
1.46038e-10
1.46038e-10
1.46038e-10
1.46038e-10
1.46038e-10
1.46038e-10
1.46038e-10
1.46038e-10
1.46038e-10
1.46038e-10
1.46038e-10
1.46038e-10
1.46038e-10
1.46038e-10
1.46038e-10
1.46038e-10
1.46038e-10
1.46038e-10
1.46038e-10
1.46038e-10
1.46038e-10
1.46038e-10
1.46038e-10
1.46038e-10
1.46038e-10
1.46038e-10
1.46038e-10
1.46038e-10
1.46038e-10
1.46038e-10
1.46038e-10
1.46038e-10
1.46038e-10
1.46038e-10
1.46038e-10
1.46038e-10
1.46038e-10
1.46038e-10
1.46038e-10
1.46038e-10
1.46038e-10
1.46038e-10
1.46038e-10
1.46038e-10
1.46038e-10
1.46038e-10
1.46038e-10
1.46038e-10
1.46038e-10
1.46038e-10
1.46038e-10
1.46038e-10
1.46038e-10
1.46038e-10
1.46038e-10
1.46038e-10
1.46038e-10
1.46038e-10
1.46038e-10
1.46038e-10
1.46038e-10
1.46038e-10
1.46038e-10
1.46038e-10
1.46038e-10
1.46038e-10
1.46038e-10
1.46038e-10
1.46038e-10
1.46038e-10
1.46038e-10
1.46038e-10
1.46038e-10
1.46038e-10
1.46038e-10
1.46038e-10
1.46038e-10
1.46038e-10
1.46038e-10
1.46038e-10
1.46038e-10
1.46038e-10
1.46038e-10
1.46038e-10
1.46038e-10
1.46038e-10
1.46038e-10
1.46038e-10
1.46038e-10
1.46038e-10
1.46038e-10
1.46038e-10
1.46038e-10
1.46038e-10
1.46038e-10
1.46038e-10
1.46038e-10
1.46038e-10
1.46038e-10
1.46038e-10
1.46038e-10
1.46038e-10
1.46038e-10
1.46038e-10
1.46038e-10
1.46038e-10
1.46038e-10
1.46038e-10
1.46038e-10
1.46038e-10
1.46038e-10
1.46038e-10
1.46038e-10
1.46038e-10
1.46038e-10
1.46038e-10
1.46038e-10
1.46038e-10
1.46038e-10
1.46038e-10
1.46038e-10
1.46038e-10
1.46038e-10
1.46038e-10
1.46038e-10
1.46038e-10
1.46038e-10
1.46038e-10
1.46038e-10
1.46038e-10
1.46038e-10
1.46038e-10
1.46038e-10
1.46038e-10
1.46038e-10
1.46038e-10
1.46038e-10
1.46038e-10
1.46038e-10
1.46038e-10
1.46038e-10
1.46038e-10
1.46038e-10
1.46038e-10
1.46038e-10
1.46038e-10
1.46038e-10
1.46038e-10
1.46038e-10
1.46038e-10
1.46038e-10
1.46038e-10
1.46038e-10
1.46038e-10
1.46038e-10
1.46038e-10
1.46038e-10
1.46038e-10
1.46038e-10
1.46038e-10
1.46038e-10
1.46038e-10
1.46038e-10
1.46038e-10
1.46038e-10
1.46038e-10
1.46038e-10
1.46038e-10
1.46038e-10
1.46038e-10
1.46038e-10
1.46038e-10
1.46038e-10
1.46038e-10
1.46038e-10
1.46038e-10
1.46038e-10
1.46038e-10
1.46038e-10
1.46038e-10
1.46038e-10
1.46038e-10
1.46038e-10
1.46038e-10
1.46038e-10
1.46038e-10
1.46038e-10
1.46038e-10
1.46038e-10
1.46038e-10
1.46038e-10
1.46038e-10
1.46038e-10
1.46038e-10
1.46038e-10
1.46038e-10
1.46038e-10
1.46038e-10
1.46038e-10
1.46038e-10
1.46038e-10
1.46038e-10
1.46038e-10
1.46038e-10
1.46038e-10
1.46038e-10
1.46038e-10
1.46038e-10
1.46038e-10
1.46038e-10
1.46038e-10
1.46038e-10
1.46038e-10
1.46038e-10
1.46038e-10
1.46038e-10
1.46038e-10
1.46038e-10
1.46038e-10
1.46038e-10
1.46038e-10
1.46038e-10
1.46038e-10
1.46038e-10
1.46038e-10
1.46038e-10
1.46038e-10
1.46038e-10
1.46038e-10
1.46038e-10
1.46038e-10
1.46038e-10
1.46038e-10
1.46038e-10
1.46038e-10
1.46038e-10
1.46038e-10
1.46038e-10
1.46038e-10
1.46038e-10
1.46038e-10
1.46038e-10
1.46038e-10
1.46038e-10
1.46038e-10
1.46038e-10
1.46038e-10
1.46038e-10
1.46038e-10
1.46038e-10
1.46038e-10
1.46038e-10
1.46038e-10
1.46038e-10
1.46038e-10
1.46038e-10
1.46038e-10
1.46038e-10
1.46038e-10
1.46038e-10
1.46038e-10
1.46038e-10
1.46038e-10
1.46038e-10
1.46038e-10
1.46038e-10
1.46038e-10
1.46038e-10
1.46038e-10
1.46038e-10
1.46038e-10
1.46038e-10
1.46038e-10
1.46038e-10
1.46038e-10
1.46038e-10
1.46038e-10
1.46038e-10
1.46038e-10
1.46038e-10
1.46038e-10
1.46038e-10
1.46038e-10
1.46038e-10
1.46038e-10
1.46038e-10
1.46038e-10
1.46038e-10
1.46038e-10
1.46038e-10
1.46038e-10
1.46038e-10
1.46038e-10
1.46038e-10
1.46038e-10
1.46038e-10
1.46038e-10
1.46038e-10
1.46038e-10
1.46038e-10
1.46038e-10
1.46038e-10
1.46038e-10
1.46038e-10
1.46038e-10
1.46038e-10
1.46038e-10
1.46038e-10
1.46038e-10
1.46038e-10
1.46038e-10
1.46038e-10
1.46038e-10
1.46038e-10
1.46038e-10
1.46038e-10
1.46038e-10
1.46038e-10
1.46038e-10
1.46038e-10
1.46038e-10
1.46038e-10
1.46038e-10
1.46038e-10
1.46038e-10
1.46038e-10
1.46038e-10
1.46038e-10
1.46038e-10
1.46038e-10
1.46038e-10
1.46038e-10
1.46038e-10
1.46038e-10
1.46038e-10
1.46038e-10
1.46038e-10
1.46038e-10
1.46038e-10
1.46038e-10
1.46038e-10
1.46038e-10
1.46038e-10
1.46038e-10
1.46038e-10
1.46038e-10
1.46038e-10
1.46038e-10
1.46038e-10
1.46038e-10
1.46038e-10
1.46038e-10
1.46038e-10
1.46038e-10
1.46038e-10
1.46038e-10
1.46038e-10
1.46038e-10
1.46038e-10
1.46038e-10
1.46038e-10
1.46038e-10
1.46038e-10
1.46038e-10
1.46038e-10
1.46038e-10
1.46038e-10
1.46038e-10
1.46038e-10
1.46038e-10
1.46038e-10
1.46039e-10
1.46039e-10
1.46039e-10
1.46039e-10
1.46039e-10
1.46039e-10
1.46039e-10
1.46039e-10
1.46039e-10
1.46039e-10
1.46039e-10
1.46039e-10
1.46039e-10
1.46039e-10
1.46039e-10
1.46039e-10
1.46039e-10
1.4604e-10
1.4604e-10
1.4604e-10
1.4604e-10
1.4604e-10
1.4604e-10
1.4604e-10
1.4604e-10
1.4604e-10
1.46041e-10
1.46041e-10
1.46038e-10
1.46038e-10
1.46038e-10
1.46038e-10
1.46038e-10
1.46038e-10
1.46038e-10
1.46038e-10
1.46038e-10
1.46038e-10
1.46038e-10
1.46038e-10
1.46038e-10
1.46038e-10
1.46038e-10
1.46038e-10
1.46038e-10
1.46038e-10
1.46038e-10
1.46038e-10
1.46038e-10
1.46038e-10
1.46038e-10
1.46038e-10
1.46038e-10
1.46038e-10
1.46038e-10
1.46038e-10
1.46038e-10
1.46038e-10
1.46038e-10
1.46038e-10
1.46038e-10
1.46038e-10
1.46038e-10
1.46038e-10
1.46038e-10
1.46038e-10
1.46038e-10
1.46038e-10
1.46038e-10
1.46038e-10
1.46038e-10
1.46038e-10
1.46038e-10
1.46038e-10
1.46038e-10
1.46038e-10
1.46038e-10
1.46039e-10
1.46039e-10
1.46039e-10
1.46039e-10
1.46039e-10
1.46039e-10
1.46039e-10
1.46039e-10
1.46039e-10
1.46039e-10
1.46039e-10
1.46039e-10
1.46039e-10
1.46039e-10
1.46039e-10
1.4604e-10
1.4604e-10
1.4604e-10
1.4604e-10
1.4604e-10
1.4604e-10
1.4604e-10
1.4604e-10
1.4604e-10
1.46041e-10
1.46041e-10
1.46041e-10
1.46041e-10
1.46041e-10
1.46041e-10
1.46042e-10
1.46042e-10
1.46042e-10
1.46042e-10
1.46043e-10
1.46043e-10
1.46043e-10
1.46043e-10
1.46044e-10
1.46044e-10
1.46044e-10
1.46045e-10
1.46045e-10
1.46045e-10
1.46046e-10
1.46046e-10
1.46047e-10
1.46047e-10
1.46048e-10
1.46048e-10
1.46049e-10
1.46049e-10
1.4605e-10
1.4605e-10
1.46051e-10
1.46052e-10
1.46053e-10
1.46053e-10
1.46054e-10
1.46055e-10
1.46056e-10
1.46041e-10
1.46041e-10
1.46041e-10
1.46041e-10
1.46041e-10
1.46041e-10
1.4604e-10
1.4604e-10
1.4604e-10
1.4604e-10
1.4604e-10
1.4604e-10
1.4604e-10
1.4604e-10
1.4604e-10
1.4604e-10
1.46039e-10
1.46039e-10
1.46039e-10
1.46039e-10
1.46039e-10
1.46039e-10
1.46039e-10
1.46039e-10
1.46039e-10
1.46039e-10
1.46039e-10
1.46039e-10
1.46039e-10
1.46039e-10
1.46039e-10
1.46039e-10
1.46039e-10
1.46039e-10
1.46039e-10
1.46039e-10
1.46039e-10
1.4604e-10
1.4604e-10
1.4604e-10
1.4604e-10
1.4604e-10
1.4604e-10
1.46041e-10
1.46041e-10
1.46041e-10
1.46041e-10
1.46041e-10
1.46042e-10
1.46042e-10
1.46042e-10
1.46043e-10
1.46043e-10
1.46043e-10
1.46043e-10
1.46044e-10
1.46044e-10
1.46045e-10
1.46045e-10
1.46045e-10
1.46046e-10
1.46046e-10
1.46047e-10
1.46047e-10
1.46048e-10
1.46048e-10
1.46049e-10
1.46049e-10
1.4605e-10
1.46051e-10
1.46051e-10
1.46052e-10
1.46053e-10
1.46054e-10
1.46055e-10
1.46056e-10
1.46056e-10
1.46057e-10
1.46059e-10
1.4606e-10
1.46061e-10
1.46062e-10
1.46063e-10
1.46065e-10
1.46066e-10
1.46068e-10
1.46069e-10
1.46071e-10
1.46073e-10
1.46075e-10
1.46077e-10
1.46079e-10
1.46081e-10
1.46084e-10
1.46086e-10
1.46089e-10
1.46092e-10
1.46095e-10
1.46098e-10
1.46101e-10
1.46104e-10
1.46108e-10
1.46112e-10
1.46116e-10
1.46121e-10
1.46125e-10
1.4613e-10
1.46136e-10
1.46141e-10
1.46147e-10
1.46053e-10
1.46053e-10
1.46052e-10
1.46052e-10
1.46051e-10
1.46051e-10
1.4605e-10
1.4605e-10
1.46049e-10
1.46049e-10
1.46048e-10
1.46048e-10
1.46047e-10
1.46047e-10
1.46047e-10
1.46046e-10
1.46046e-10
1.46045e-10
1.46045e-10
1.46045e-10
1.46045e-10
1.46044e-10
1.46044e-10
1.46044e-10
1.46044e-10
1.46044e-10
1.46044e-10
1.46044e-10
1.46044e-10
1.46044e-10
1.46044e-10
1.46044e-10
1.46045e-10
1.46045e-10
1.46045e-10
1.46046e-10
1.46046e-10
1.46047e-10
1.46048e-10
1.46049e-10
1.46049e-10
1.4605e-10
1.46051e-10
1.46052e-10
1.46053e-10
1.46055e-10
1.46056e-10
1.46057e-10
1.46058e-10
1.4606e-10
1.46061e-10
1.46063e-10
1.46064e-10
1.46066e-10
1.46068e-10
1.4607e-10
1.46071e-10
1.46073e-10
1.46076e-10
1.46078e-10
1.4608e-10
1.46083e-10
1.46085e-10
1.46088e-10
1.46091e-10
1.46094e-10
1.46097e-10
1.46101e-10
1.46104e-10
1.46108e-10
1.46112e-10
1.46116e-10
1.4612e-10
1.46125e-10
1.4613e-10
1.46135e-10
1.4614e-10
1.46146e-10
1.46152e-10
1.46159e-10
1.46166e-10
1.46173e-10
1.4618e-10
1.46189e-10
1.46197e-10
1.46206e-10
1.46216e-10
1.46226e-10
1.46237e-10
1.46249e-10
1.46261e-10
1.46274e-10
1.46287e-10
1.46302e-10
1.46317e-10
1.46334e-10
1.46351e-10
1.46369e-10
1.46388e-10
1.46409e-10
1.46431e-10
1.46454e-10
1.46478e-10
1.46504e-10
1.46531e-10
1.46561e-10
1.46592e-10
1.46624e-10
1.46659e-10
1.46697e-10
1.46109e-10
1.46107e-10
1.46105e-10
1.46102e-10
1.461e-10
1.46098e-10
1.46095e-10
1.46093e-10
1.4609e-10
1.46088e-10
1.46086e-10
1.46084e-10
1.46082e-10
1.4608e-10
1.46078e-10
1.46076e-10
1.46075e-10
1.46073e-10
1.46072e-10
1.46071e-10
1.46069e-10
1.46069e-10
1.46068e-10
1.46067e-10
1.46067e-10
1.46067e-10
1.46067e-10
1.46067e-10
1.46067e-10
1.46068e-10
1.46069e-10
1.4607e-10
1.46072e-10
1.46073e-10
1.46076e-10
1.46078e-10
1.46081e-10
1.46084e-10
1.46088e-10
1.46092e-10
1.46096e-10
1.46101e-10
1.46106e-10
1.46111e-10
1.46117e-10
1.46123e-10
1.4613e-10
1.46137e-10
1.46144e-10
1.46151e-10
1.46159e-10
1.46167e-10
1.46175e-10
1.46184e-10
1.46193e-10
1.46203e-10
1.46213e-10
1.46224e-10
1.46235e-10
1.46247e-10
1.4626e-10
1.46274e-10
1.46289e-10
1.46304e-10
1.4632e-10
1.46338e-10
1.46356e-10
1.46375e-10
1.46395e-10
1.46416e-10
1.46439e-10
1.46463e-10
1.46488e-10
1.46514e-10
1.46542e-10
1.46572e-10
1.46603e-10
1.46637e-10
1.46672e-10
1.46709e-10
1.46749e-10
1.46791e-10
1.46835e-10
1.46883e-10
1.46933e-10
1.46987e-10
1.47043e-10
1.47104e-10
1.47168e-10
1.47237e-10
1.47309e-10
1.47387e-10
1.47469e-10
1.47557e-10
1.4765e-10
1.47749e-10
1.47854e-10
1.47966e-10
1.48085e-10
1.48212e-10
1.48346e-10
1.48489e-10
1.48641e-10
1.48802e-10
1.48973e-10
1.49156e-10
1.4935e-10
1.49556e-10
1.49776e-10
1.50011e-10
1.46364e-10
1.46353e-10
1.46342e-10
1.4633e-10
1.46319e-10
1.46308e-10
1.46296e-10
1.46285e-10
1.46275e-10
1.46264e-10
1.46254e-10
1.46244e-10
1.46235e-10
1.46226e-10
1.46218e-10
1.46211e-10
1.46204e-10
1.46198e-10
1.46192e-10
1.46187e-10
1.46182e-10
1.46179e-10
1.46176e-10
1.46174e-10
1.46173e-10
1.46173e-10
1.46174e-10
1.46175e-10
1.46178e-10
1.46181e-10
1.46186e-10
1.46193e-10
1.46201e-10
1.4621e-10
1.46221e-10
1.46235e-10
1.46249e-10
1.46266e-10
1.46285e-10
1.46306e-10
1.46329e-10
1.46353e-10
1.4638e-10
1.46409e-10
1.46439e-10
1.46472e-10
1.46506e-10
1.46541e-10
1.46579e-10
1.46618e-10
1.46659e-10
1.46701e-10
1.46746e-10
1.46793e-10
1.46843e-10
1.46895e-10
1.46951e-10
1.47009e-10
1.47072e-10
1.47138e-10
1.47208e-10
1.47283e-10
1.47363e-10
1.47448e-10
1.47538e-10
1.47633e-10
1.47734e-10
1.47841e-10
1.47954e-10
1.48074e-10
1.48201e-10
1.48336e-10
1.48479e-10
1.4863e-10
1.4879e-10
1.4896e-10
1.4914e-10
1.49331e-10
1.49534e-10
1.4975e-10
1.49979e-10
1.50223e-10
1.50482e-10
1.50758e-10
1.51052e-10
1.51364e-10
1.51698e-10
1.52053e-10
1.52432e-10
1.52837e-10
1.53269e-10
1.5373e-10
1.54223e-10
1.5475e-10
1.55313e-10
1.55915e-10
1.56557e-10
1.57243e-10
1.57975e-10
1.58756e-10
1.59588e-10
1.60475e-10
1.61419e-10
1.62425e-10
1.63494e-10
1.64631e-10
1.6584e-10
1.67125e-10
1.6849e-10
1.69946e-10
1.47565e-10
1.47515e-10
1.47463e-10
1.47411e-10
1.47357e-10
1.47304e-10
1.47252e-10
1.472e-10
1.4715e-10
1.47101e-10
1.47053e-10
1.47008e-10
1.46965e-10
1.46924e-10
1.46885e-10
1.4685e-10
1.46817e-10
1.46787e-10
1.4676e-10
1.46735e-10
1.46714e-10
1.46696e-10
1.46682e-10
1.46671e-10
1.46665e-10
1.46665e-10
1.46666e-10
1.46671e-10
1.4668e-10
1.46695e-10
1.46715e-10
1.46743e-10
1.46778e-10
1.4682e-10
1.4687e-10
1.46929e-10
1.46997e-10
1.47074e-10
1.47161e-10
1.47259e-10
1.47366e-10
1.47485e-10
1.47613e-10
1.47752e-10
1.47901e-10
1.4806e-10
1.48229e-10
1.48407e-10
1.48594e-10
1.48791e-10
1.48996e-10
1.49212e-10
1.49438e-10
1.49675e-10
1.49925e-10
1.50189e-10
1.50468e-10
1.50765e-10
1.51079e-10
1.51415e-10
1.51772e-10
1.52152e-10
1.52558e-10
1.5299e-10
1.5345e-10
1.53939e-10
1.5446e-10
1.55014e-10
1.55603e-10
1.56228e-10
1.56893e-10
1.576e-10
1.5835e-10
1.59149e-10
1.59997e-10
1.60899e-10
1.61859e-10
1.62879e-10
1.63964e-10
1.65117e-10
1.66343e-10
1.67646e-10
1.69031e-10
1.70503e-10
1.72067e-10
1.73728e-10
1.75494e-10
1.77372e-10
1.7937e-10
1.81497e-10
1.83762e-10
1.86177e-10
1.88753e-10
1.91505e-10
1.94446e-10
1.97592e-10
2.00958e-10
2.04563e-10
2.08425e-10
2.12562e-10
2.16994e-10
2.2174e-10
2.26822e-10
2.3226e-10
2.38074e-10
2.44286e-10
2.50916e-10
2.57985e-10
2.65516e-10
2.73528e-10
2.82058e-10
1.52885e-10
1.52648e-10
1.52407e-10
1.52164e-10
1.5192e-10
1.51678e-10
1.51439e-10
1.51206e-10
1.50979e-10
1.50761e-10
1.50551e-10
1.50351e-10
1.50161e-10
1.49983e-10
1.49816e-10
1.49663e-10
1.49522e-10
1.49394e-10
1.49279e-10
1.49178e-10
1.49091e-10
1.49018e-10
1.48961e-10
1.48924e-10
1.48914e-10
1.48919e-10
1.48933e-10
1.48966e-10
1.49022e-10
1.49106e-10
1.49219e-10
1.49364e-10
1.49545e-10
1.49763e-10
1.50022e-10
1.50323e-10
1.50671e-10
1.51066e-10
1.51511e-10
1.52008e-10
1.52557e-10
1.5316e-10
1.53816e-10
1.54524e-10
1.55285e-10
1.56096e-10
1.56957e-10
1.57868e-10
1.58827e-10
1.59834e-10
1.60891e-10
1.61999e-10
1.63163e-10
1.64387e-10
1.65677e-10
1.67042e-10
1.68487e-10
1.70021e-10
1.71652e-10
1.73386e-10
1.75233e-10
1.77198e-10
1.7929e-10
1.81514e-10
1.83878e-10
1.86389e-10
1.89054e-10
1.91883e-10
1.94886e-10
1.98072e-10
2.01456e-10
2.05051e-10
2.08873e-10
2.1294e-10
2.1727e-10
2.21884e-10
2.26801e-10
2.32043e-10
2.37634e-10
2.43594e-10
2.49947e-10
2.56716e-10
2.63924e-10
2.71594e-10
2.79752e-10
2.88421e-10
2.97627e-10
3.07398e-10
3.17763e-10
3.28755e-10
3.4041e-10
3.52768e-10
3.65876e-10
3.79786e-10
3.94557e-10
4.10257e-10
4.26963e-10
4.44762e-10
4.63747e-10
4.84027e-10
5.05714e-10
5.28932e-10
5.53813e-10
5.80495e-10
6.09121e-10
6.39837e-10
6.72788e-10
7.08119e-10
7.45964e-10
7.86449e-10
8.29682e-10
8.75768e-10
9.24826e-10
1.75787e-10
1.74732e-10
1.73666e-10
1.72596e-10
1.71529e-10
1.70473e-10
1.69438e-10
1.68431e-10
1.67458e-10
1.66524e-10
1.65631e-10
1.64782e-10
1.63981e-10
1.6323e-10
1.62533e-10
1.61893e-10
1.61309e-10
1.60785e-10
1.6032e-10
1.59914e-10
1.59567e-10
1.59285e-10
1.59078e-10
1.58978e-10
1.58979e-10
1.59024e-10
1.59133e-10
1.59335e-10
1.5965e-10
1.6009e-10
1.60668e-10
1.61398e-10
1.62293e-10
1.63369e-10
1.64637e-10
1.66109e-10
1.678e-10
1.6972e-10
1.71878e-10
1.74283e-10
1.76936e-10
1.79837e-10
1.82984e-10
1.86373e-10
1.89997e-10
1.9385e-10
1.97926e-10
2.02219e-10
2.06728e-10
2.1145e-10
2.1639e-10
2.2156e-10
2.26976e-10
2.32665e-10
2.38662e-10
2.45e-10
2.51716e-10
2.58849e-10
2.66436e-10
2.74512e-10
2.83113e-10
2.9227e-10
3.02009e-10
3.12354e-10
3.23328e-10
3.34953e-10
3.47252e-10
3.60253e-10
3.73984e-10
3.88482e-10
4.03794e-10
4.1997e-10
4.37076e-10
4.55183e-10
4.74375e-10
4.94742e-10
5.16385e-10
5.3941e-10
5.63933e-10
5.90071e-10
6.17946e-10
6.47685e-10
6.79412e-10
7.1325e-10
7.49318e-10
7.87729e-10
8.28584e-10
8.71971e-10
9.17965e-10
9.66622e-10
1.01798e-09
1.07205e-09
1.12883e-09
1.18829e-09
1.2504e-09
1.31511e-09
1.38236e-09
1.45209e-09
1.52425e-09
1.5988e-09
1.67577e-09
1.75513e-09
1.83688e-09
1.92104e-09
2.00763e-09
2.09672e-09
2.1884e-09
2.28276e-09
2.37995e-09
2.48012e-09
2.58345e-09
2.69013e-09
2.80047e-09
2.74236e-10
2.70063e-10
2.65829e-10
2.61566e-10
2.57296e-10
2.53035e-10
2.48803e-10
2.44636e-10
2.40569e-10
2.36632e-10
2.32848e-10
2.29227e-10
2.2578e-10
2.22513e-10
2.19438e-10
2.16568e-10
2.13913e-10
2.11483e-10
2.09281e-10
2.07316e-10
2.05591e-10
2.04101e-10
2.02841e-10
2.01842e-10
2.0119e-10
2.01004e-10
2.01102e-10
2.01415e-10
2.02039e-10
2.03066e-10
2.04562e-10
2.06578e-10
2.09169e-10
2.12396e-10
2.16318e-10
2.20992e-10
2.26471e-10
2.32808e-10
2.40065e-10
2.48299e-10
2.57554e-10
2.67862e-10
2.79235e-10
2.91668e-10
3.05145e-10
3.19636e-10
3.35101e-10
3.5149e-10
3.68752e-10
3.86839e-10
4.05707e-10
4.25323e-10
4.45676e-10
4.66783e-10
4.88701e-10
5.11537e-10
5.35427e-10
5.60521e-10
5.86982e-10
6.14984e-10
6.447e-10
6.76294e-10
7.09922e-10
7.45716e-10
7.83784e-10
8.24205e-10
8.67036e-10
9.12311e-10
9.60039e-10
1.01021e-09
1.0628e-09
1.11778e-09
1.17508e-09
1.23468e-09
1.29653e-09
1.36059e-09
1.42682e-09
1.49521e-09
1.56573e-09
1.63839e-09
1.71323e-09
1.79026e-09
1.86949e-09
1.95097e-09
2.03472e-09
2.12084e-09
2.20939e-09
2.30051e-09
2.39432e-09
2.49098e-09
2.59066e-09
2.69356e-09
2.7999e-09
2.9099e-09
3.0238e-09
3.14187e-09
3.26439e-09
3.39164e-09
3.52386e-09
3.66131e-09
3.8042e-09
3.95355e-09
4.10942e-09
4.27063e-09
4.43728e-09
4.60958e-09
4.78772e-09
4.97173e-09
5.16176e-09
5.35803e-09
5.56078e-09
5.77028e-09
5.98681e-09
6.21066e-09
6.44226e-09
6.05704e-10
5.90918e-10
5.7602e-10
5.61159e-10
5.46372e-10
5.31656e-10
5.17058e-10
5.02701e-10
4.88726e-10
4.75241e-10
4.62306e-10
4.49959e-10
4.38222e-10
4.27121e-10
4.16688e-10
4.06969e-10
3.98004e-10
3.89819e-10
3.82434e-10
3.75888e-10
3.7021e-10
3.6535e-10
3.61249e-10
3.58105e-10
3.56447e-10
3.56212e-10
3.56954e-10
3.58526e-10
3.61312e-10
3.656e-10
3.71593e-10
3.79464e-10
3.8941e-10
4.01658e-10
4.16422e-10
4.33878e-10
4.54192e-10
4.77555e-10
5.04195e-10
5.34329e-10
5.68114e-10
6.05632e-10
6.46903e-10
6.91882e-10
7.40463e-10
7.92495e-10
8.47767e-10
9.0601e-10
9.66919e-10
1.03017e-09
1.09541e-09
1.16228e-09
1.23044e-09
1.29961e-09
1.36962e-09
1.44054e-09
1.51246e-09
1.58542e-09
1.65961e-09
1.73539e-09
1.81305e-09
1.89274e-09
1.97461e-09
2.05879e-09
2.14538e-09
2.23446e-09
2.32609e-09
2.42035e-09
2.51734e-09
2.61717e-09
2.71999e-09
2.82597e-09
2.93531e-09
3.04824e-09
3.16502e-09
3.28593e-09
3.41123e-09
3.54116e-09
3.67592e-09
3.81617e-09
3.96231e-09
4.11328e-09
4.26914e-09
4.43009e-09
4.59634e-09
4.76802e-09
4.94521e-09
5.1281e-09
5.31694e-09
5.51197e-09
5.71346e-09
5.9217e-09
6.13698e-09
6.35964e-09
6.59001e-09
6.82844e-09
7.07526e-09
7.33083e-09
7.59529e-09
7.86888e-09
8.15198e-09
8.44478e-09
8.74663e-09
9.05729e-09
9.37701e-09
9.70596e-09
1.00444e-08
1.03932e-08
1.07531e-08
1.11243e-08
1.15073e-08
1.19025e-08
1.23103e-08
1.27312e-08
1.31653e-08
1.36139e-08
1.78462e-09
1.75306e-09
1.71906e-09
1.68326e-09
1.64629e-09
1.60887e-09
1.57096e-09
1.53197e-09
1.49207e-09
1.452e-09
1.41215e-09
1.37241e-09
1.33265e-09
1.29305e-09
1.25402e-09
1.21595e-09
1.179e-09
1.14327e-09
1.10891e-09
1.07607e-09
1.04487e-09
1.01546e-09
9.87981e-10
9.62595e-10
9.39367e-10
9.18372e-10
8.99833e-10
8.8392e-10
8.70358e-10
8.58869e-10
8.50473e-10
8.46124e-10
8.46909e-10
8.50024e-10
8.55736e-10
8.65279e-10
8.79478e-10
8.98839e-10
9.23665e-10
9.5445e-10
9.92001e-10
1.0368e-09
1.08896e-09
1.1486e-09
1.21596e-09
1.29135e-09
1.37488e-09
1.46636e-09
1.56531e-09
1.67118e-09
1.78311e-09
1.90005e-09
2.02098e-09
2.14493e-09
2.27097e-09
2.39826e-09
2.52618e-09
2.65427e-09
2.78228e-09
2.91019e-09
3.03811e-09
3.16629e-09
3.29525e-09
3.42574e-09
3.55869e-09
3.69485e-09
3.83574e-09
3.98101e-09
4.13077e-09
4.2855e-09
4.44559e-09
4.6113e-09
4.78264e-09
4.95963e-09
5.14232e-09
5.33079e-09
5.52517e-09
5.7256e-09
5.93229e-09
6.1455e-09
6.36549e-09
6.59258e-09
6.82704e-09
7.06909e-09
7.31899e-09
7.57709e-09
7.84364e-09
8.11823e-09
8.40067e-09
8.69125e-09
8.99022e-09
9.2977e-09
9.61417e-09
9.94043e-09
1.02769e-08
1.06238e-08
1.09817e-08
1.13509e-08
1.17317e-08
1.21245e-08
1.25296e-08
1.29474e-08
1.33782e-08
1.38222e-08
1.42796e-08
1.47507e-08
1.52357e-08
1.57347e-08
1.6248e-08
1.67759e-08
1.73191e-08
1.78782e-08
1.84541e-08
1.90475e-08
1.96585e-08
2.02874e-08
2.09349e-08
2.16014e-08
2.22875e-08
2.29936e-08
2.37203e-08
2.44677e-08
2.52368e-08
3.68339e-09
3.61728e-09
3.54865e-09
3.47771e-09
3.40561e-09
3.33326e-09
3.26009e-09
3.18594e-09
3.11103e-09
3.03622e-09
2.96232e-09
2.88932e-09
2.81733e-09
2.74655e-09
2.67705e-09
2.60911e-09
2.54312e-09
2.47953e-09
2.4187e-09
2.36095e-09
2.30643e-09
2.2552e-09
2.20744e-09
2.16329e-09
2.12279e-09
2.08624e-09
2.05424e-09
2.02698e-09
2.00399e-09
1.98476e-09
1.97004e-09
1.96558e-09
1.96967e-09
1.97721e-09
1.99039e-09
2.01115e-09
2.04088e-09
2.07996e-09
2.12865e-09
2.18846e-09
2.26096e-09
2.34546e-09
2.44257e-09
2.55354e-09
2.67903e-09
2.81925e-09
2.97422e-09
3.14393e-09
3.3282e-09
3.52623e-09
3.73747e-09
3.95944e-09
4.18983e-09
4.42666e-09
4.6681e-09
4.9123e-09
5.15784e-09
5.40353e-09
5.64855e-09
5.89254e-09
6.13554e-09
6.37796e-09
6.62033e-09
6.86378e-09
7.11008e-09
7.36086e-09
7.61722e-09
7.87991e-09
8.15003e-09
8.42848e-09
8.71576e-09
9.01203e-09
9.31776e-09
9.63334e-09
9.9588e-09
1.02942e-08
1.06395e-08
1.0995e-08
1.13607e-08
1.1737e-08
1.2124e-08
1.2522e-08
1.29313e-08
1.33522e-08
1.3785e-08
1.42299e-08
1.4687e-08
1.51569e-08
1.564e-08
1.6137e-08
1.66485e-08
1.71752e-08
1.77175e-08
1.82757e-08
1.885e-08
1.9441e-08
2.00491e-08
2.06747e-08
2.13181e-08
2.19798e-08
2.266e-08
2.33592e-08
2.40777e-08
2.48159e-08
2.55742e-08
2.6353e-08
2.7153e-08
2.79745e-08
2.88185e-08
2.96856e-08
3.05767e-08
3.14923e-08
3.24329e-08
3.3399e-08
3.4391e-08
3.54093e-08
3.64545e-08
3.75272e-08
3.86278e-08
3.97567e-08
4.09147e-08
4.21019e-08
4.33196e-08
6.76221e-09
6.64707e-09
6.52832e-09
6.40615e-09
6.28241e-09
6.15881e-09
6.03448e-09
5.9094e-09
5.78323e-09
5.65734e-09
5.53279e-09
5.40991e-09
5.2893e-09
5.17138e-09
5.05592e-09
4.94274e-09
4.83221e-09
4.72526e-09
4.62292e-09
4.52603e-09
4.43489e-09
4.3496e-09
4.27034e-09
4.1972e-09
4.13028e-09
4.07042e-09
4.01869e-09
3.97484e-09
3.93854e-09
3.90836e-09
3.88824e-09
3.88879e-09
3.89819e-09
3.91491e-09
3.9429e-09
3.98511e-09
4.0437e-09
4.11938e-09
4.21238e-09
4.32482e-09
4.45944e-09
4.61569e-09
4.7965e-09
5.00379e-09
5.23812e-09
5.49958e-09
5.78758e-09
6.10141e-09
6.44055e-09
6.80291e-09
7.18529e-09
7.58404e-09
7.99569e-09
8.41663e-09
8.84356e-09
9.27392e-09
9.70514e-09
1.01349e-08
1.05614e-08
1.09838e-08
1.1402e-08
1.18167e-08
1.22292e-08
1.26416e-08
1.30562e-08
1.34759e-08
1.39033e-08
1.43411e-08
1.47913e-08
1.52553e-08
1.57343e-08
1.6229e-08
1.67394e-08
1.7265e-08
1.78057e-08
1.83615e-08
1.89324e-08
1.95183e-08
2.01196e-08
2.07363e-08
2.1369e-08
2.2018e-08
2.26838e-08
2.3367e-08
2.4068e-08
2.47876e-08
2.55262e-08
2.62848e-08
2.7064e-08
2.78644e-08
2.86865e-08
2.95306e-08
3.03973e-08
3.12867e-08
3.21994e-08
3.31358e-08
3.40964e-08
3.50816e-08
3.60918e-08
3.71276e-08
3.81894e-08
3.92778e-08
4.03932e-08
4.15365e-08
4.27081e-08
4.39087e-08
4.51391e-08
4.63998e-08
4.76914e-08
4.90146e-08
5.03697e-08
5.17572e-08
5.31775e-08
5.46311e-08
5.61184e-08
5.764e-08
5.91963e-08
6.07878e-08
6.24151e-08
6.40786e-08
6.5779e-08
6.75167e-08
6.92925e-08
1.14291e-08
1.12503e-08
1.10669e-08
1.088e-08
1.0691e-08
1.05018e-08
1.03132e-08
1.01244e-08
9.93521e-09
9.74666e-09
9.55979e-09
9.37598e-09
9.19671e-09
9.02239e-09
8.85213e-09
8.68514e-09
8.52175e-09
8.36349e-09
8.21227e-09
8.06952e-09
7.93587e-09
7.81148e-09
7.69646e-09
7.59081e-09
7.49477e-09
7.41008e-09
7.33766e-09
7.2776e-09
7.22932e-09
7.19246e-09
7.17984e-09
7.18994e-09
7.21033e-09
7.24756e-09
7.30582e-09
7.38854e-09
7.49843e-09
7.63674e-09
7.80443e-09
8.00351e-09
8.23606e-09
8.50737e-09
8.82139e-09
9.18038e-09
9.58361e-09
1.00306e-08
1.05205e-08
1.10515e-08
1.1621e-08
1.22252e-08
1.28593e-08
1.3518e-08
1.41961e-08
1.48883e-08
1.55888e-08
1.6292e-08
1.69932e-08
1.76885e-08
1.83753e-08
1.90524e-08
1.97202e-08
2.03803e-08
2.10356e-08
2.16896e-08
2.23464e-08
2.30107e-08
2.36871e-08
2.43796e-08
2.50911e-08
2.58233e-08
2.65774e-08
2.73535e-08
2.81514e-08
2.89708e-08
2.98113e-08
3.06728e-08
3.15551e-08
3.24584e-08
3.3383e-08
3.43294e-08
3.52983e-08
3.62902e-08
3.73061e-08
3.83465e-08
3.94123e-08
4.05041e-08
4.16226e-08
4.27683e-08
4.39416e-08
4.5143e-08
4.63729e-08
4.76316e-08
4.89195e-08
5.02373e-08
5.15852e-08
5.29637e-08
5.43734e-08
5.58148e-08
5.72884e-08
5.87948e-08
6.03345e-08
6.19081e-08
6.35162e-08
6.51593e-08
6.68379e-08
6.85524e-08
7.03033e-08
7.2091e-08
7.39156e-08
7.57775e-08
7.76771e-08
7.96145e-08
8.15903e-08
8.36047e-08
8.56582e-08
8.7751e-08
8.98836e-08
9.20562e-08
9.42692e-08
9.65229e-08
9.88176e-08
1.01154e-07
1.03529e-07
1.05949e-07
1.08411e-07
1.80468e-08
1.77914e-08
1.75316e-08
1.72691e-08
1.70052e-08
1.67415e-08
1.64795e-08
1.6219e-08
1.59598e-08
1.57023e-08
1.54474e-08
1.51975e-08
1.49549e-08
1.47203e-08
1.44923e-08
1.42695e-08
1.40522e-08
1.38423e-08
1.36425e-08
1.3455e-08
1.32809e-08
1.31206e-08
1.29741e-08
1.28414e-08
1.2723e-08
1.26212e-08
1.25369e-08
1.24706e-08
1.24226e-08
1.24028e-08
1.24137e-08
1.24408e-08
1.24937e-08
1.25778e-08
1.26961e-08
1.28523e-08
1.3051e-08
1.32937e-08
1.35799e-08
1.39163e-08
1.43085e-08
1.47612e-08
1.52782e-08
1.58615e-08
1.65116e-08
1.72282e-08
1.80095e-08
1.88517e-08
1.97496e-08
2.06966e-08
2.16855e-08
2.27082e-08
2.37557e-08
2.48187e-08
2.58883e-08
2.6956e-08
2.80151e-08
2.90607e-08
3.00898e-08
3.1102e-08
3.20988e-08
3.30836e-08
3.40612e-08
3.50373e-08
3.60182e-08
3.70103e-08
3.80193e-08
3.90501e-08
4.01059e-08
4.11889e-08
4.23001e-08
4.34395e-08
4.46071e-08
4.58022e-08
4.70246e-08
4.82738e-08
4.955e-08
5.08534e-08
5.21845e-08
5.35439e-08
5.49323e-08
5.63504e-08
5.77991e-08
5.92788e-08
6.07903e-08
6.23338e-08
6.39098e-08
6.55187e-08
6.71607e-08
6.88361e-08
7.05454e-08
7.22889e-08
7.40669e-08
7.58799e-08
7.77283e-08
7.96125e-08
8.15329e-08
8.34898e-08
8.54838e-08
8.7515e-08
8.95838e-08
9.16905e-08
9.38353e-08
9.60183e-08
9.82397e-08
1.005e-07
1.02798e-07
1.05135e-07
1.0751e-07
1.09924e-07
1.12377e-07
1.14868e-07
1.17398e-07
1.19967e-07
1.22574e-07
1.2522e-07
1.27904e-07
1.30627e-07
1.33387e-07
1.36185e-07
1.39021e-07
1.41893e-07
1.448e-07
1.47744e-07
1.50723e-07
2.69633e-08
2.66241e-08
2.62834e-08
2.59413e-08
2.56e-08
2.52606e-08
2.49243e-08
2.45919e-08
2.4264e-08
2.39408e-08
2.36228e-08
2.33123e-08
2.30123e-08
2.27237e-08
2.24451e-08
2.21755e-08
2.19151e-08
2.1666e-08
2.14313e-08
2.12136e-08
2.10144e-08
2.08347e-08
2.06747e-08
2.05343e-08
2.04151e-08
2.03192e-08
2.02464e-08
2.0202e-08
2.01966e-08
2.02166e-08
2.02658e-08
2.03533e-08
2.04832e-08
2.06592e-08
2.08852e-08
2.1167e-08
2.15108e-08
2.19158e-08
2.23901e-08
2.29402e-08
2.35724e-08
2.42912e-08
2.50992e-08
2.59985e-08
2.69906e-08
2.80753e-08
2.92494e-08
3.05066e-08
3.18378e-08
3.3232e-08
3.46773e-08
3.61606e-08
3.76685e-08
3.91878e-08
4.07064e-08
4.22142e-08
4.37034e-08
4.51686e-08
4.6608e-08
4.80223e-08
4.9415e-08
5.07916e-08
5.21591e-08
5.35254e-08
5.48986e-08
5.62863e-08
5.76952e-08
5.91307e-08
6.05965e-08
6.20949e-08
6.36268e-08
6.51923e-08
6.6791e-08