/*--------------------------------*- C++ -*----------------------------------*\
| =========                 |                                                 |
| \\      /  F ield         | OpenFOAM: The Open Source CFD Toolbox           |
|  \\    /   O peration     | Version:  v1706                                 |
|   \\  /    A nd           | Web:      www.OpenFOAM.com                      |
|    \\/     M anipulation  |                                                 |
\*---------------------------------------------------------------------------*/
FoamFile
{
    version     2.0;
    format      ascii;
    class       volScalarField;
    location    "4e-06";
    object      kappatr;
}
// * * * * * * * * * * * * * * * * * * * * * * * * * * * * * * * * * * * * * //

dimensions      [1 1 -3 -1 0 0 0];


internalField   nonuniform List<scalar> 
29871
(
0.014593
0.014593
0.014593
0.014593
0.014593
0.014593
0.014593
0.014593
0.014593
0.014593
0.014593
0.014593
0.014593
0.014593
0.014593
0.014593
0.014593
0.014593
0.014593
0.014593
0.014593
0.014593
0.014593
0.014593
0.014593
0.014593
0.014593
0.014593
0.014593
0.014593
0.014593
0.014593
0.014593
0.014593
0.014593
0.014593
0.014593
0.014593
0.014593
0.014593
0.014593
0.014593
0.014593
0.014593
0.014593
0.014593
0.014593
0.014593
0.014593
0.014593
0.014593
0.014593
0.014593
0.014593
0.014593
0.014593
0.014593
0.014593
0.014593
0.014593
0.014593
0.014593
0.014593
0.014593
0.014593
0.014593
0.014593
0.014593
0.014593
0.014593
0.014593
0.014593
0.014593
0.014593
0.014593
0.014593
0.014593
0.014593
0.014593
0.014593
0.014593
0.014593
0.014593
0.014593
0.014593
0.014593
0.014593
0.014593
0.014593
0.014593
0.014593
0.014593
0.014593
0.014593
0.014593
0.014593
0.014593
0.014593
0.014593
0.014593
0.014593
0.014593
0.014593
0.014593
0.014593
0.014593
0.014593
0.014593
0.014593
0.014593
0.014593
0.014593
0.014593
0.014593
0.014593
0.014593
0.014593
0.014593
0.014593
0.014593
0.014593
0.014593
0.014593
0.014593
0.014593
0.014593
0.014593
0.014593
0.014593
0.014593
0.014593
0.014593
0.014593
0.014593
0.014593
0.014593
0.014593
0.014593
0.014593
0.014593
0.014593
0.014593
0.014593
0.014593
0.014593
0.014593
0.014593
0.014593
0.014593
0.014593
0.014593
0.014593
0.014593
0.014593
0.014593
0.014593
0.014593
0.014593
0.014593
0.014593
0.014593
0.014593
0.014593
0.014593
0.014593
0.014593
0.014593
0.014593
0.014593
0.014593
0.014593
0.014593
0.014593
0.014593
0.014593
0.014593
0.014593
0.014593
0.014593
0.014593
0.014593
0.014593
0.014593
0.014593
0.014593
0.014593
0.014593
0.014593
0.014593
0.014593
0.014593
0.014593
0.014593
0.014593
0.014593
0.014593
0.014593
0.014593
0.014593
0.014593
0.014593
0.014593
0.014593
0.014593
0.014593
0.014593
0.014593
0.014593
0.014593
0.014593
0.014593
0.014593
0.014593
0.014593
0.014593
0.014593
0.014593
0.014593
0.014593
0.014593
0.014593
0.014593
0.014593
0.014593
0.014593
0.014593
0.014593
0.014593
0.014593
0.014593
0.014593
0.014593
0.014593
0.014593
0.014593
0.014593
0.014593
0.014593
0.014593
0.014593
0.014593
0.014593
0.014593
0.014593
0.014593
0.014593
0.014593
0.014593
0.014593
0.014593
0.014593
0.014593
0.014593
0.014593
0.014593
0.014593
0.014593
0.014593
0.014593
0.014593
0.014593
0.014593
0.014593
0.014593
0.014593
0.014593
0.014593
0.014593
0.014593
0.014593
0.014593
0.014593
0.014593
0.014593
0.014593
0.014593
0.014593
0.014593
0.014593
0.014593
0.014593
0.014593
0.014593
0.014593
0.014593
0.014593
0.014593
0.014593
0.014593
0.014593
0.014593
0.014593
0.014593
0.014593
0.014593
0.014593
0.014593
0.014593
0.014593
0.014593
0.014593
0.014593
0.014593
0.014593
0.014593
0.014593
0.014593
0.014593
0.014593
0.014593
0.014593
0.014593
0.014593
0.014593
0.014593
0.014593
0.014593
0.014593
0.014593
0.014593
0.014593
0.014593
0.014593
0.014593
0.014593
0.014593
0.014593
0.014593
0.014593
0.014593
0.014593
0.014593
0.014593
0.014593
0.014593
0.014593
0.014593
0.014593
0.014593
0.014593
0.014593
0.014593
0.014593
0.014593
0.014593
0.014593
0.014593
0.014593
0.014593
0.014593
0.014593
0.014593
0.014593
0.014593
0.014593
0.014593
0.014593
0.014593
0.014593
0.014593
0.014593
0.014593
0.014593
0.014593
0.014593
0.014593
0.014593
0.014593
0.014593
0.014593
0.014593
0.014593
0.014593
0.014593
0.014593
0.014593
0.014593
0.014593
0.014593
0.014593
0.014593
0.014593
0.014593
0.014593
0.014593
0.014593
0.014593
0.014593
0.014593
0.014593
0.014593
0.014593
0.014593
0.014593
0.014593
0.014593
0.014593
0.014593
0.014593
0.014593
0.014593
0.014593
0.014593
0.014593
0.014593
0.014593
0.014593
0.014593
0.014593
0.014593
0.014593
0.014593
0.014593
0.014593
0.014593
0.014593
0.014593
0.014593
0.014593
0.014593
0.014593
0.014593
0.014593
0.014593
0.014593
0.014593
0.014593
0.014593
0.014593
0.014593
0.014593
0.014593
0.014593
0.014593
0.014593
0.014593
0.014593
0.014593
0.014593
0.014593
0.014593
0.014593
0.014593
0.014593
0.014593
0.014593
0.014593
0.014593
0.014593
0.014593
0.014593
0.014593
0.014593
0.014593
0.014593
0.014593
0.014593
0.014593
0.014593
0.014593
0.014593
0.014593
0.014593
0.014593
0.014593
0.014593
0.014593
0.014593
0.014593
0.014593
0.014593
0.014593
0.014593
0.014593
0.014593
0.014593
0.014593
0.014593
0.014593
0.014593
0.014593
0.014593
0.014593
0.014593
0.014593
0.014593
0.014593
0.014593
0.014593
0.014593
0.014593
0.014593
0.014593
0.014593
0.014593
0.014593
0.014593
0.014593
0.014593
0.014593
0.014593
0.014593
0.014593
0.014593
0.014593
0.014593
0.014593
0.014593
0.014593
0.014593
0.014593
0.014593
0.014593
0.014593
0.014593
0.014593
0.014593
0.014593
0.014593
0.014593
0.014593
0.014593
0.014593
0.014593
0.014593
0.014593
0.014593
0.0145931
0.0145931
0.014593
0.014593
0.014593
0.014593
0.014593
0.014593
0.014593
0.014593
0.014593
0.014593
0.014593
0.014593
0.014593
0.014593
0.014593
0.014593
0.014593
0.014593
0.014593
0.014593
0.014593
0.014593
0.014593
0.014593
0.014593
0.014593
0.014593
0.014593
0.014593
0.014593
0.014593
0.014593
0.014593
0.014593
0.014593
0.014593
0.014593
0.014593
0.014593
0.014593
0.014593
0.014593
0.014593
0.014593
0.014593
0.014593
0.014593
0.014593
0.014593
0.014593
0.014593
0.014593
0.014593
0.014593
0.014593
0.014593
0.014593
0.014593
0.014593
0.014593
0.014593
0.014593
0.014593
0.014593
0.014593
0.014593
0.014593
0.0145931
0.0145931
0.0145931
0.0145931
0.0145931
0.0145931
0.0145931
0.0145931
0.0145931
0.0145931
0.0145931
0.0145931
0.0145931
0.0145931
0.0145931
0.0145931
0.0145931
0.0145931
0.0145931
0.0145931
0.0145931
0.0145931
0.0145931
0.0145931
0.0145931
0.0145932
0.0145932
0.0145932
0.0145932
0.0145932
0.0145932
0.0145932
0.0145932
0.0145932
0.0145932
0.0145932
0.0145933
0.0145933
0.0145933
0.0145933
0.0145931
0.0145931
0.0145931
0.0145931
0.0145931
0.0145931
0.0145931
0.0145931
0.0145931
0.0145931
0.0145931
0.0145931
0.0145931
0.014593
0.014593
0.014593
0.014593
0.014593
0.014593
0.014593
0.014593
0.014593
0.014593
0.014593
0.014593
0.014593
0.014593
0.014593
0.014593
0.014593
0.014593
0.014593
0.014593
0.014593
0.014593
0.014593
0.014593
0.014593
0.014593
0.014593
0.0145931
0.0145931
0.0145931
0.0145931
0.0145931
0.0145931
0.0145931
0.0145931
0.0145931
0.0145931
0.0145931
0.0145931
0.0145931
0.0145931
0.0145931
0.0145931
0.0145931
0.0145931
0.0145931
0.0145931
0.0145932
0.0145932
0.0145932
0.0145932
0.0145932
0.0145932
0.0145932
0.0145932
0.0145932
0.0145932
0.0145932
0.0145933
0.0145933
0.0145933
0.0145933
0.0145933
0.0145933
0.0145933
0.0145934
0.0145934
0.0145934
0.0145934
0.0145934
0.0145935
0.0145935
0.0145935
0.0145935
0.0145936
0.0145936
0.0145936
0.0145937
0.0145937
0.0145937
0.0145938
0.0145938
0.0145938
0.0145939
0.0145939
0.014594
0.014594
0.0145941
0.0145941
0.0145942
0.0145942
0.0145943
0.0145944
0.0145944
0.0145945
0.0145946
0.0145947
0.0145933
0.0145933
0.0145933
0.0145933
0.0145933
0.0145933
0.0145933
0.0145933
0.0145933
0.0145932
0.0145932
0.0145932
0.0145932
0.0145932
0.0145932
0.0145932
0.0145932
0.0145932
0.0145932
0.0145932
0.0145932
0.0145931
0.0145931
0.0145931
0.0145931
0.0145931
0.0145931
0.0145931
0.0145931
0.0145931
0.0145931
0.0145931
0.0145931
0.0145932
0.0145932
0.0145932
0.0145932
0.0145932
0.0145932
0.0145932
0.0145932
0.0145932
0.0145933
0.0145933
0.0145933
0.0145933
0.0145933
0.0145934
0.0145934
0.0145934
0.0145934
0.0145935
0.0145935
0.0145935
0.0145936
0.0145936
0.0145936
0.0145937
0.0145937
0.0145937
0.0145938
0.0145938
0.0145939
0.0145939
0.014594
0.014594
0.0145941
0.0145941
0.0145942
0.0145942
0.0145943
0.0145944
0.0145944
0.0145945
0.0145946
0.0145947
0.0145948
0.0145948
0.0145949
0.014595
0.0145951
0.0145953
0.0145954
0.0145955
0.0145956
0.0145958
0.0145959
0.0145961
0.0145962
0.0145964
0.0145966
0.0145968
0.0145969
0.0145972
0.0145974
0.0145976
0.0145978
0.0145981
0.0145984
0.0145987
0.014599
0.0145993
0.0145996
0.0146
0.0146003
0.0146007
0.0146011
0.0146016
0.014602
0.0146025
0.0145945
0.0145945
0.0145944
0.0145944
0.0145943
0.0145943
0.0145942
0.0145942
0.0145941
0.0145941
0.014594
0.014594
0.0145939
0.0145939
0.0145939
0.0145938
0.0145938
0.0145938
0.0145937
0.0145937
0.0145937
0.0145937
0.0145936
0.0145936
0.0145936
0.0145936
0.0145936
0.0145936
0.0145936
0.0145936
0.0145936
0.0145937
0.0145937
0.0145937
0.0145938
0.0145938
0.0145939
0.0145939
0.014594
0.014594
0.0145941
0.0145942
0.0145943
0.0145944
0.0145945
0.0145946
0.0145947
0.0145948
0.014595
0.0145951
0.0145952
0.0145954
0.0145955
0.0145957
0.0145958
0.014596
0.0145962
0.0145963
0.0145965
0.0145967
0.0145969
0.0145972
0.0145974
0.0145977
0.0145979
0.0145982
0.0145985
0.0145988
0.0145991
0.0145994
0.0145998
0.0146001
0.0146005
0.0146009
0.0146013
0.0146018
0.0146023
0.0146028
0.0146033
0.0146038
0.0146044
0.014605
0.0146057
0.0146064
0.0146071
0.0146079
0.0146087
0.0146096
0.0146105
0.0146114
0.0146124
0.0146135
0.0146146
0.0146158
0.0146171
0.0146184
0.0146198
0.0146213
0.0146228
0.0146245
0.0146262
0.0146281
0.01463
0.014632
0.0146342
0.0146364
0.0146388
0.0146414
0.0146441
0.0146469
0.0145997
0.0145995
0.0145993
0.0145991
0.0145988
0.0145986
0.0145984
0.0145982
0.014598
0.0145978
0.0145975
0.0145973
0.0145972
0.014597
0.0145968
0.0145966
0.0145965
0.0145964
0.0145962
0.0145961
0.014596
0.0145959
0.0145959
0.0145958
0.0145958
0.0145958
0.0145958
0.0145958
0.0145958
0.0145959
0.014596
0.0145961
0.0145962
0.0145964
0.0145966
0.0145968
0.0145971
0.0145974
0.0145977
0.0145981
0.0145985
0.0145989
0.0145994
0.0145999
0.0146004
0.0146009
0.0146015
0.0146021
0.0146027
0.0146034
0.0146041
0.0146048
0.0146055
0.0146063
0.0146071
0.0146079
0.0146088
0.0146098
0.0146108
0.0146118
0.014613
0.0146141
0.0146154
0.0146167
0.0146181
0.0146195
0.0146211
0.0146227
0.0146244
0.0146262
0.0146281
0.0146301
0.0146321
0.0146343
0.0146366
0.014639
0.0146416
0.0146443
0.0146471
0.0146502
0.0146533
0.0146567
0.0146602
0.014664
0.0146679
0.0146721
0.0146766
0.0146813
0.0146862
0.0146915
0.0146971
0.014703
0.0147092
0.0147158
0.0147228
0.0147302
0.014738
0.0147462
0.0147549
0.0147641
0.0147738
0.014784
0.0147948
0.0148062
0.0148183
0.014831
0.0148444
0.0148586
0.0148737
0.0148896
0.0146224
0.0146215
0.0146205
0.0146195
0.0146185
0.0146176
0.0146166
0.0146156
0.0146147
0.0146137
0.0146128
0.014612
0.0146112
0.0146104
0.0146097
0.014609
0.0146084
0.0146078
0.0146073
0.0146068
0.0146064
0.0146061
0.0146059
0.0146057
0.0146056
0.0146056
0.0146057
0.0146058
0.014606
0.0146064
0.0146068
0.0146074
0.0146081
0.014609
0.01461
0.0146112
0.0146125
0.014614
0.0146157
0.0146175
0.0146195
0.0146216
0.014624
0.0146264
0.014629
0.0146318
0.0146347
0.0146377
0.0146408
0.0146441
0.0146475
0.0146511
0.0146548
0.0146587
0.0146628
0.0146671
0.0146716
0.0146765
0.0146815
0.0146869
0.0146926
0.0146987
0.014705
0.0147118
0.0147189
0.0147264
0.0147344
0.0147428
0.0147516
0.0147609
0.0147706
0.0147809
0.0147918
0.0148032
0.0148152
0.0148279
0.0148413
0.0148554
0.0148703
0.014886
0.0149026
0.0149201
0.0149386
0.0149582
0.0149788
0.0150007
0.0150239
0.0150484
0.0150744
0.0151019
0.0151311
0.0151621
0.0151949
0.0152296
0.0152665
0.0153054
0.0153467
0.0153903
0.0154364
0.015485
0.0155362
0.0155901
0.0156469
0.0157064
0.015769
0.0158346
0.0159033
0.0159754
0.0160508
0.0161299
0.0147241
0.0147201
0.0147159
0.0147117
0.0147074
0.0147031
0.0146987
0.0146945
0.0146903
0.0146862
0.0146823
0.0146785
0.0146749
0.0146714
0.0146682
0.0146652
0.0146624
0.0146598
0.0146575
0.0146555
0.0146536
0.0146521
0.0146509
0.01465
0.0146495
0.0146495
0.0146496
0.01465
0.0146509
0.0146522
0.014654
0.0146564
0.0146594
0.0146631
0.0146674
0.0146725
0.0146783
0.0146849
0.0146922
0.0147003
0.0147093
0.014719
0.0147295
0.0147407
0.0147527
0.0147654
0.0147787
0.0147927
0.0148074
0.0148226
0.0148385
0.014855
0.0148723
0.0148903
0.0149092
0.0149291
0.01495
0.0149721
0.0149955
0.0150202
0.0150464
0.0150741
0.0151034
0.0151344
0.0151672
0.0152018
0.0152384
0.015277
0.0153177
0.0153606
0.0154057
0.0154533
0.0155034
0.0155561
0.0156116
0.01567
0.0157314
0.0157959
0.0158637
0.0159348
0.0160095
0.0160878
0.0161699
0.0162558
0.0163459
0.0164401
0.0165388
0.0166421
0.0167504
0.0168638
0.0169827
0.0171075
0.0172384
0.0173759
0.0175204
0.0176722
0.0178316
0.017999
0.0181747
0.0183589
0.0185518
0.0187533
0.0189637
0.0191826
0.0194102
0.019646
0.0198898
0.0201413
0.0204002
0.0206662
0.0209388
0.0151392
0.0151222
0.0151048
0.0150871
0.0150692
0.0150513
0.0150335
0.0150161
0.014999
0.0149825
0.0149665
0.0149512
0.0149366
0.0149228
0.0149098
0.0148978
0.0148868
0.0148768
0.0148678
0.0148598
0.0148529
0.0148472
0.0148428
0.01484
0.0148393
0.0148398
0.0148411
0.014844
0.0148488
0.0148558
0.0148652
0.0148772
0.014892
0.0149097
0.0149305
0.0149546
0.0149821
0.015013
0.0150474
0.0150854
0.0151269
0.0151718
0.01522
0.0152715
0.0153259
0.0153833
0.0154435
0.0155063
0.0155718
0.0156398
0.0157105
0.0157839
0.0158602
0.0159398
0.016023
0.01611
0.0162012
0.0162969
0.0163974
0.0165028
0.0166135
0.0167295
0.016851
0.0169781
0.0171109
0.0172496
0.0173943
0.0175452
0.0177024
0.0178662
0.0180368
0.0182145
0.0183997
0.0185926
0.0187935
0.0190026
0.0192202
0.0194464
0.0196813
0.0199248
0.0201769
0.0204374
0.020706
0.0209826
0.0212667
0.0215582
0.0218567
0.022162
0.0224741
0.022793
0.0231187
0.0234515
0.0237919
0.0241404
0.0244978
0.0248648
0.0252424
0.0256315
0.0260329
0.0264476
0.0268763
0.0273196
0.0277776
0.0282503
0.0287375
0.0292384
0.0297518
0.0302761
0.0308093
0.0313492
0.0318929
0.0324377
0.0329803
0.0166837
0.0166222
0.0165592
0.0164951
0.0164303
0.0163654
0.0163011
0.0162379
0.0161763
0.0161164
0.0160586
0.0160032
0.0159503
0.0159004
0.0158538
0.0158106
0.0157711
0.0157354
0.0157037
0.015676
0.0156524
0.0156334
0.0156199
0.0156145
0.0156153
0.0156191
0.0156281
0.0156443
0.0156687
0.0157021
0.0157453
0.015799
0.0158642
0.0159414
0.0160311
0.0161335
0.016249
0.0163776
0.0165191
0.016673
0.0168386
0.0170149
0.0172009
0.0173955
0.0175977
0.0178067
0.0180216
0.0182421
0.0184677
0.0186984
0.0189341
0.0191753
0.0194225
0.0196767
0.0199387
0.0202092
0.0204888
0.0207777
0.021076
0.0213839
0.0217009
0.0220267
0.0223607
0.0227023
0.0230509
0.0234059
0.0237669
0.0241336
0.0245061
0.0248843
0.0252687
0.0256596
0.0260579
0.0264641
0.0268792
0.0273039
0.0277388
0.0281845
0.0286412
0.0291091
0.0295877
0.0300765
0.0305745
0.0310804
0.0315924
0.0321086
0.0326268
0.0331445
0.0336591
0.0341681
0.0346688
0.0351588
0.0356357
0.0360976
0.0365427
0.0369697
0.0373778
0.0377663
0.0381351
0.0384844
0.0388154
0.0391285
0.0394244
0.0397035
0.0399668
0.040215
0.0404487
0.0406687
0.0408756
0.04107
0.0412527
0.0414243
0.0415855
0.0213931
0.0212471
0.0210954
0.020939
0.0207784
0.020614
0.0204465
0.0202779
0.0201098
0.0199441
0.0197817
0.0196232
0.0194693
0.0193206
0.019178
0.0190429
0.0189161
0.0187986
0.0186913
0.0185947
0.0185097
0.0184362
0.0183744
0.0183271
0.0183005
0.0182989
0.0183073
0.0183299
0.0183726
0.0184386
0.0185301
0.0186494
0.0187988
0.0189801
0.0191949
0.0194433
0.0197253
0.0200399
0.0203862
0.0207626
0.0211665
0.0215941
0.0220411
0.0225027
0.0229741
0.0234512
0.0239302
0.024408
0.0248828
0.0253535
0.02582
0.0262825
0.026742
0.0272002
0.0276591
0.0281213
0.0285894
0.029065
0.0295492
0.0300424
0.0305446
0.0310552
0.0315729
0.032096
0.0326221
0.0331484
0.0336722
0.0341906
0.0347005
0.0351993
0.0356845
0.0361538
0.0366057
0.0370387
0.0374521
0.0378453
0.0382183
0.0385714
0.038905
0.0392197
0.0395169
0.0397972
0.0400614
0.0403099
0.0405436
0.0407631
0.040969
0.0411621
0.0413429
0.0415122
0.0416707
0.0418191
0.0419582
0.0420891
0.0422128
0.0423305
0.0424436
0.0425536
0.0426616
0.042769
0.0428769
0.0429904
0.0431094
0.0432275
0.0433452
0.0434632
0.0435821
0.043701
0.0438197
0.0439388
0.0440584
0.0441787
0.0442998
0.0444218
0.0445447
0.0296201
0.0293916
0.0291551
0.0289131
0.028665
0.0284089
0.0281452
0.0278772
0.0276093
0.0273445
0.0270844
0.0268294
0.0265801
0.0263374
0.0261032
0.0258799
0.02567
0.0254755
0.0252982
0.0251405
0.0250047
0.0248897
0.0247944
0.0247312
0.024724
0.0247387
0.0247799
0.0248572
0.0249762
0.0251413
0.0253558
0.0256225
0.0259434
0.0263199
0.0267508
0.0272322
0.027759
0.0283265
0.0289308
0.0295674
0.0302295
0.0309091
0.0315975
0.0322863
0.0329671
0.0336327
0.0342769
0.0348942
0.0354812
0.0360357
0.0365571
0.037045
0.0375004
0.0379243
0.0383188
0.0386876
0.0390338
0.0393577
0.0396606
0.0399454
0.0402141
0.0404671
0.0407046
0.0409272
0.0411355
0.0413302
0.0415117
0.0416808
0.0418383
0.041985
0.0421218
0.0422498
0.0423702
0.0424843
0.0425935
0.0426992
0.0428029
0.0429056
0.0430082
0.0431143
0.0432254
0.0433355
0.0434446
0.0435536
0.0436633
0.0437736
0.0438838
0.0439941
0.044105
0.0442164
0.0443287
0.0444418
0.0445557
0.0446706
0.0447864
0.0449031
0.0450205
0.0451385
0.0452565
0.0453743
0.0454923
0.0456061
0.045713
0.045819
0.0459247
0.0460299
0.0461346
0.0462417
0.0463523
0.046466
0.0465828
0.0467023
0.0468244
0.0469487
0.0470751
0.0472031
0.039524
0.0393723
0.0392028
0.0390261
0.0388463
0.0386656
0.0384805
0.0382842
0.0380795
0.0378737
0.0376679
0.0374566
0.0372353
0.0370046
0.0367702
0.0365372
0.0363071
0.0360791
0.0358528
0.035629
0.0354089
0.0351947
0.03499
0.034798
0.0346207
0.0344605
0.0343223
0.0342101
0.034119
0.0340494
0.0340368
0.0340602
0.0341162
0.0342098
0.034347
0.034534
0.0347744
0.035068
0.0354108
0.035801
0.0362389
0.0367147
0.0372115
0.0377153
0.038217
0.0387105
0.0391893
0.0396454
0.0400718
0.0404657
0.0408246
0.0411466
0.0414321
0.0416828
0.041901
0.0420896
0.042252
0.0423921
0.0425143
0.0426228
0.0427218
0.0428137
0.0429012
0.0429875
0.0430762
0.0431677
0.0432669
0.043368
0.0434695
0.043572
0.0436764
0.0437831
0.0438913
0.0440004
0.0441104
0.0442212
0.0443328
0.0444451
0.0445581
0.0446716
0.0447854
0.0448993
0.0450129
0.0451258
0.0452377
0.0453493
0.0454579
0.0455599
0.0456609
0.0457618
0.0458625
0.0459626
0.0460633
0.0461669
0.0462735
0.0463828
0.0464947
0.046609
0.0467253
0.0468433
0.0469628
0.0470834
0.0472046
0.047326
0.0474473
0.0475685
0.0476896
0.0478102
0.04793
0.0480517
0.0481766
0.048305
0.0484376
0.0485748
0.0487153
0.0488583
0.0490037
0.0491514
0.0493011
0.0494526
0.0496057
0.0497602
0.0499158
0.042835
0.0426862
0.0425374
0.0423898
0.0422507
0.0421141
0.0419651
0.0418155
0.0416721
0.041535
0.0414069
0.0412821
0.0411597
0.0410398
0.0409209
0.040807
0.0407008
0.0406029
0.0405119
0.0404283
0.0403524
0.040284
0.0402242
0.0401734
0.0401313
0.0401005
0.0400857
0.0400839
0.0400922
0.040119
0.0401702
0.0402292
0.0403026
0.0403975
0.040515
0.0406566
0.0408205
0.0409991
0.0411889
0.0413976
0.0416238
0.0418427
0.0420531
0.0422619
0.0424683
0.0426677
0.0428573
0.0430375
0.0432112
0.043375
0.0435348
0.0436907
0.0438391
0.0439791
0.0441119
0.0442381
0.0443588
0.0444751
0.0445877
0.0446976
0.0448054
0.0449103
0.0450114
0.0451112
0.0452114
0.0453114
0.0454054
0.0454975
0.0455912
0.0456869
0.0457843
0.0458824
0.0459829
0.0460872
0.0461948
0.0463051
0.0464177
0.0465321
0.0466478
0.0467644
0.0468813
0.046998
0.0471145
0.0472308
0.0473467
0.0474619
0.0475762
0.0476916
0.0478093
0.0479299
0.0480535
0.0481809
0.0483121
0.0484456
0.0485814
0.0487192
0.0488588
0.0490001
0.0491427
0.0492867
0.0494318
0.0495779
0.0497252
0.0498737
0.0500236
0.0501753
0.0503291
0.0504855
0.050645
0.0508081
0.0509747
0.0511446
0.0513175
0.0514927
0.0516699
0.0518487
0.0520292
0.0522113
0.0523949
0.0525799
0.0527665
0.0529546
0.0531445
0.0446408
0.0445061
0.0443724
0.0442407
0.0441188
0.0439985
0.043864
0.0437294
0.0435993
0.0434769
0.0433637
0.0432538
0.0431463
0.0430415
0.0429385
0.0428392
0.0427459
0.0426595
0.04258
0.0425083
0.042445
0.0423904
0.0423446
0.0423071
0.0422778
0.0422617
0.0422617
0.0422687
0.0422871
0.0423204
0.0423689
0.0424297
0.0425027
0.0425893
0.0426914
0.04281
0.0429437
0.0430885
0.0432432
0.0434124
0.0435942
0.0437704
0.0439498
0.0441351
0.044324
0.0445155
0.0447059
0.044893
0.0450782
0.0452548
0.0454157
0.0455694
0.045718
0.0458599
0.0459961
0.0461296
0.0462608
0.0463888
0.0465131
0.0466333
0.0467492
0.0468606
0.0469683
0.047074
0.0471784
0.0472817
0.0473851
0.0474912
0.047601
0.047715
0.0478335
0.0479571
0.0480848
0.0482154
0.0483483
0.0484831
0.0486195
0.0487571
0.0488958
0.0490353
0.0491757
0.049317
0.0494594
0.0496032
0.0497486
0.0498958
0.0500455
0.0501982
0.0503538
0.0505123
0.0506735
0.0508371
0.0510025
0.0511695
0.051338
0.0515079
0.0516793
0.0518522
0.0520265
0.0522024
0.0523801
0.0525595
0.052741
0.0529247
0.0531107
0.0532991
0.0534901
0.0536836
0.0538795
0.0540776
0.0542775
0.054479
0.054682
0.0548863
0.0550918
0.0552986
0.0555067
0.0557161
0.0559268
0.056139
0.0563527
0.0565678
0.0567846
0.0461731
0.0460616
0.0459499
0.0458429
0.0457428
0.0456409
0.045533
0.0454221
0.0453137
0.0452129
0.0451197
0.0450311
0.0449459
0.0448631
0.0447818
0.0447028
0.044628
0.0445587
0.0444959
0.0444398
0.0443911
0.0443497
0.0443151
0.0442866
0.0442644
0.0442551
0.0442564
0.0442637
0.0442811
0.0443111
0.0443531
0.0444063
0.0444704
0.0445465
0.0446362
0.0447397
0.0448554
0.0449816
0.0451197
0.045268
0.0454174
0.0455786
0.0457521
0.0459358
0.0461208
0.0463065
0.0464936
0.0466808
0.0468666
0.0470487
0.0472274
0.0474052
0.0475829
0.0477602
0.0479361
0.0481082
0.0482751
0.0484362
0.0485912
0.04874
0.0488833
0.0490221
0.0491577
0.0492916
0.0494249
0.0495593
0.0496962
0.0498366
0.049981
0.0501294
0.0502819
0.0504376
0.0505959
0.0507563
0.0509185
0.0510823
0.0512476
0.0514144
0.0515827
0.0517526
0.0519243
0.0520979
0.0522735
0.0524513
0.0526313
0.0528134
0.0529977
0.053184
0.0533719
0.0535614
0.0537522
0.0539442
0.0541374
0.0543318
0.0545275
0.0547245
0.054923
0.0551229
0.0553245
0.0555276
0.0557324
0.0559389
0.0561471
0.056357
0.0565685
0.0567815
0.0569958
0.0572112
0.0574277
0.0576451
0.0578633
0.0580822
0.0583019
0.0585223
0.0587435
0.0589655
0.0591882
0.0594118
0.0596362
0.0598613
0.0600871
0.0603136
0.0605406
0.0607682
0.0609962
0.0477578
0.0476728
0.047588
0.0475071
0.0474303
0.0473527
0.047272
0.0471886
0.0471064
0.047029
0.0469564
0.0468875
0.0468219
0.0467587
0.0466969
0.0466363
0.0465778
0.0465227
0.0464722
0.0464275
0.0463893
0.0463572
0.0463306
0.0463086
0.046292
0.046286
0.0462872
0.0462936
0.0463094
0.0463361
0.0463735
0.0464212
0.0464798
0.0465508
0.0466347
0.0467315
0.046843
0.0469655
0.0470916
0.0472313
0.0473872
0.0475588
0.0477421
0.0479322
0.048127
0.0483268
0.0485326
0.0487438
0.0489591
0.0491777
0.0493991
0.0496222
0.0498452
0.0500661
0.0502826
0.050493
0.0506964
0.0508923
0.0510812
0.0512634
0.05144
0.0516121
0.0517812
0.0519485
0.0521153
0.0522828
0.0524521
0.0526237
0.0527979
0.0529749
0.0531545
0.0533364
0.0535203
0.0537062
0.0538939
0.0540832
0.0542742
0.0544669
0.0546612
0.0548573
0.0550551
0.0552545
0.0554557
0.0556583
0.0558623
0.0560674
0.0562736
0.0564806
0.0566884
0.0568969
0.0571062
0.0573161
0.0575269
0.0577386
0.0579511
0.0581646
0.0583791
0.0585945
0.0588108
0.059028
0.0592461
0.0594649
0.0596844
0.0599044
0.0601248
0.0603456
0.0605667
0.060788
0.0610094
0.0612309
0.0614525
0.0616741
0.0618959
0.0621177
0.0623394
0.0625612
0.0627829
0.0630045
0.0632258
0.0634468
0.0636675
0.0638877
0.0641073
0.0643263
0.0645445
0.0495854
0.0495308
0.0494781
0.0494264
0.0493768
0.049327
0.0492748
0.0492206
0.0491672
0.049117
0.0490691
0.049023
0.0489791
0.0489371
0.0488962
0.0488558
0.0488163
0.0487784
0.0487435
0.0487128
0.048687
0.048666
0.0486493
0.0486362
0.0486287
0.0486286
0.0486323
0.0486426
0.0486614
0.0486896
0.0487274
0.0487752
0.048834
0.0489051
0.0489884
0.0490863
0.0491997
0.0493159
0.049445
0.0495927
0.0497605
0.0499448
0.05014
0.0503435
0.0505558
0.0507785
0.0510119
0.051255
0.0515059
0.0517623
0.0520218
0.0522815
0.052539
0.0527922
0.0530394
0.0532794
0.0535116
0.0537358
0.0539524
0.054162
0.0543653
0.0545635
0.0547578
0.0549494
0.0551396
0.0553295
0.0555199
0.0557117
0.0559051
0.0561006
0.0562981
0.0564975
0.0566988
0.0569017
0.057106
0.0573117
0.0575187
0.0577269
0.0579363
0.0581467
0.0583582
0.0585705
0.0587836
0.0589972
0.0592114
0.0594258
0.0596405
0.0598553
0.0600703
0.0602855
0.0605007
0.0607161
0.0609317
0.0611475
0.0613634
0.0615794
0.0617956
0.0620117
0.0622279
0.062444
0.0626599
0.0628755
0.0630909
0.0633058
0.0635203
0.0637343
0.0639478
0.0641606
0.0643729
0.0645844
0.0647953
0.0650054
0.0652147
0.0654232
0.0656307
0.0658372
0.0660426
0.0662468
0.0664498
0.0666514
0.0668516
0.0670503
0.0672474
0.0674429
0.0676367
0.0516933
0.0516699
0.0516487
0.0516297
0.0516099
0.051591
0.0515715
0.0515501
0.0515267
0.0515026
0.0514811
0.0514612
0.0514412
0.0514213
0.0514025
0.0513842
0.0513659
0.0513479
0.0513307
0.051315
0.0513017
0.0512915
0.0512848
0.0512816
0.0512815
0.0512844
0.0512921
0.0513047
0.0513229
0.0513483
0.0513818
0.0514241
0.0514761
0.0515392
0.0516139
0.0517007
0.0518049
0.0519161
0.0520365
0.0521751
0.0523339
0.0525132
0.0527096
0.0529177
0.0531358
0.0533656
0.0536092
0.0538661
0.054134
0.0544098
0.0546902
0.0549721
0.0552529
0.0555301
0.0558019
0.0560669
0.056324
0.0565726
0.0568124
0.0570438
0.0572673
0.0574837
0.0576942
0.0579001
0.0581027
0.0583032
0.0585028
0.0587025
0.058903
0.0591047
0.0593079
0.0595126
0.0597186
0.0599259
0.0601343
0.0603435
0.0605533
0.0607638
0.0609748
0.0611861
0.0613978
0.0616098
0.0618218
0.0620338
0.0622458
0.0624574
0.0626687
0.0628796
0.06309
0.0632998
0.0635091
0.0637177
0.0639257
0.0641331
0.0643397
0.0645457
0.0647509
0.0649554
0.065159
0.0653617
0.0655634
0.0657641
0.0659638
0.0661623
0.0663596
0.0665557
0.0667505
0.066944
0.067136
0.0673266
0.0675157
0.0677032
0.067889
0.0680731
0.0682554
0.0684357
0.0686142
0.0687906
0.0689649
0.0691371
0.069307
0.0694747
0.06964
0.0698029
0.0699633
0.0701212
0.0539463
0.0539576
0.0539702
0.0539831
0.0539953
0.0540071
0.0540179
0.0540271
0.0540339
0.0540387
0.0540442
0.0540525
0.0540587
0.0540613
0.0540647
0.0540689
0.0540719
0.0540752
0.0540794
0.0540836
0.0540881
0.0540941
0.0541024
0.054113
0.0541258
0.0541412
0.0541598
0.0541825
0.0542102
0.0542442
0.0542852
0.0543344
0.0543932
0.0544627
0.0545435
0.0546374
0.0547468
0.0548606
0.0549902
0.0551395
0.0553087
0.0554978
0.0557045
0.0559229
0.0561518
0.0563941
0.0566512
0.0569215
0.0572017
0.0574882
0.0577777
0.0580674
0.0583546
0.0586372
0.0589133
0.0591815
0.0594409
0.0596907
0.0599311
0.0601623
0.060385
0.0606003
0.0608095
0.061014
0.061215
0.0614139
0.0616118
0.0618094
0.0620075
0.0622063
0.062406
0.0626065
0.0628078
0.0630095
0.0632117
0.063414
0.0636164
0.0638187
0.0640209
0.0642229
0.0644246
0.0646258
0.0648266
0.0650266
0.0652259
0.0654242
0.0656215
0.0658176
0.0660125
0.066206
0.0663982
0.066589
0.0667784
0.0669663
0.0671527
0.0673377
0.0675211
0.0677029
0.0678831
0.0680616
0.0682385
0.0684135
0.0685867
0.068758
0.0689273
0.0690947
0.06926
0.0694231
0.0695841
0.0697428
0.0698992
0.0700533
0.0702048
0.0703538
0.0705003
0.0706441
0.0707851
0.0709234
0.071059
0.0711916
0.0713214
0.0714483
0.0715722
0.0716932
0.071811
0.0719258
0.0720373
0.0721454
0.0563303
0.0563728
0.056415
0.0564566
0.056497
0.0565362
0.0565737
0.0566092
0.0566422
0.0566731
0.0567031
0.0567333
0.0567614
0.0567846
0.0568071
0.0568308
0.0568496
0.0568706
0.0568943
0.0569162
0.0569354
0.0569549
0.056976
0.0569988
0.0570231
0.0570493
0.0570781
0.0571106
0.0571475
0.05719
0.057239
0.0572959
0.0573621
0.057439
0.0575269
0.0576297
0.0577416
0.0578636
0.0580033
0.058162
0.0583392
0.0585352
0.0587483
0.0589725
0.0592069
0.0594548
0.0597167
0.0599898
0.0602706
0.0605555
0.0608415
0.0611259
0.0614063
0.0616807
0.0619472
0.0622046
0.0624522
0.0626896
0.0629171
0.0631353
0.063345
0.0635476
0.0637443
0.0639366
0.0641257
0.0643127
0.0644987
0.0646842
0.0648697
0.0650555
0.0652416
0.065428
0.0656145
0.0658009
0.0659872
0.0661731
0.0663585
0.0665434
0.0667276
0.066911
0.0670936
0.0672751
0.0674555
0.0676345
0.067812
0.0679879
0.0681619
0.068334
0.0685042
0.0686723
0.0688383
0.0690021
0.0691639
0.0693234
0.0694809
0.0696361
0.0697891
0.0699399
0.0700884
0.0702346
0.0703783
0.0705197
0.0706585
0.0707948
0.0709284
0.0710594
0.0711876
0.071313
0.0714357
0.0715555
0.0716724
0.0717865
0.0718975
0.0720055
0.0721104
0.072212
0.0723104
0.0724054
0.0724968
0.0725847
0.0726689
0.0727495
0.0728266
0.0729004
0.0729707
0.0730376
0.0731009
0.0731607
0.058763
0.0588304
0.0588964
0.0589608
0.0590234
0.0590839
0.059142
0.0591974
0.05925
0.0593002
0.0593484
0.0593947
0.059438
0.0594771
0.0595143
0.0595507
0.0595798
0.0596118
0.0596512
0.0596865
0.0597141
0.0597426
0.0597734
0.059805
0.0598375
0.0598716
0.0599083
0.0599484
0.0599928
0.0600424
0.0600984
0.0601622
0.0602353
0.0603189
0.060414
0.0605238
0.0606399
0.0607705
0.0609189
0.0610843
0.0612662
0.061465
0.0616801
0.0619048
0.0621391
0.0623856
0.0626437
0.0629101
0.0631813
0.0634542
0.0637259
0.063994
0.0642563
0.0645109
0.0647564
0.0649919
0.0652169
0.0654315
0.0656362
0.0658319
0.0660197
0.0662008
0.0663765
0.0665482
0.066717
0.0668839
0.0670496
0.0672146
0.0673794
0.067544
0.0677085
0.0678728
0.0680368
0.0682003
0.0683631
0.0685252
0.0686863
0.0688464
0.0690054
0.069163
0.0693192
0.0694736
0.0696263
0.0697769
0.0699253
0.0700714
0.070215
0.0703561
0.0704945
0.0706303
0.0707633
0.0708937
0.0710213
0.0711462
0.0712683
0.0713877
0.0715044
0.0716183
0.0717294
0.0718378
0.0719433
0.0720459
0.0721455
0.0722421
0.0723355
0.0724257
0.0725125
0.0725959
0.0726757
0.072752
0.0728248
0.0728944
0.0729607
0.0730237
0.0730834
0.0731397
0.0731924
0.0732413
0.0732862