/*--------------------------------*- C++ -*----------------------------------*\
| =========                 |                                                 |
| \\      /  F ield         | OpenFOAM: The Open Source CFD Toolbox           |
|  \\    /   O peration     | Version:  v1706                                 |
|   \\  /    A nd           | Web:      www.OpenFOAM.com                      |
|    \\/     M anipulation  |                                                 |
\*---------------------------------------------------------------------------*/
FoamFile
{
    version     2.0;
    format      ascii;
    class       volScalarField;
    location    "4e-06";
    object      Mach;
}
// * * * * * * * * * * * * * * * * * * * * * * * * * * * * * * * * * * * * * //

dimensions      [0 0 0 0 0 0 0];


internalField   nonuniform List<scalar> 
29871
(
11.2859
11.2859
11.2859
11.2859
11.2859
11.2859
11.2859
11.2859
11.2859
11.2859
11.2859
11.2859
11.2859
11.2859
11.2859
11.2859
11.2859
11.2859
11.2859
11.2859
11.2859
11.2859
11.2859
11.2859
11.2859
11.2859
11.2859
11.2859
11.2859
11.2859
11.2859
11.2859
11.2859
11.2859
11.2859
11.2859
11.2859
11.2859
11.2859
11.2859
11.2859
11.2859
11.2859
11.2859
11.2859
11.2859
11.2859
11.2859
11.2859
11.2859
11.2859
11.2859
11.2859
11.2859
11.2859
11.2859
11.2859
11.2859
11.2859
11.2859
11.2859
11.2859
11.2859
11.2859
11.2859
11.2859
11.2859
11.2859
11.2859
11.2859
11.2859
11.2859
11.2859
11.2859
11.2859
11.2859
11.2859
11.2859
11.2859
11.2859
11.2859
11.2859
11.2859
11.2859
11.2859
11.2859
11.2859
11.2859
11.2859
11.2859
11.2859
11.2859
11.2859
11.2859
11.2859
11.2859
11.2859
11.2859
11.2859
11.2859
11.2859
11.2859
11.2859
11.2859
11.2859
11.2859
11.2859
11.2859
11.2859
11.2859
11.2859
11.2859
11.2859
11.2859
11.2859
11.2859
11.2859
11.2859
11.2859
11.2859
11.2859
11.2859
11.2859
11.2859
11.2859
11.2859
11.2859
11.2859
11.2859
11.2859
11.2859
11.2859
11.2859
11.2859
11.2859
11.2859
11.2859
11.2859
11.2859
11.2859
11.2859
11.2859
11.2859
11.2859
11.2859
11.2859
11.2859
11.2859
11.2859
11.2859
11.2859
11.2859
11.2859
11.2859
11.2859
11.2859
11.2859
11.2859
11.2859
11.2859
11.2859
11.2859
11.2859
11.2859
11.2859
11.2859
11.2859
11.2859
11.2859
11.2859
11.2859
11.2859
11.2859
11.2859
11.2859
11.2859
11.2859
11.2859
11.2859
11.2859
11.2859
11.2859
11.2859
11.2859
11.2859
11.2859
11.2859
11.2859
11.2859
11.2859
11.2859
11.2859
11.2859
11.2859
11.2859
11.2859
11.2859
11.2859
11.2859
11.2859
11.2859
11.2859
11.2859
11.2859
11.2859
11.2859
11.2859
11.2859
11.2859
11.2859
11.2859
11.2859
11.2859
11.2859
11.2859
11.2859
11.2859
11.2859
11.2859
11.2859
11.2859
11.2859
11.2859
11.2859
11.2859
11.2859
11.2859
11.2859
11.2859
11.2859
11.2859
11.2859
11.2859
11.2859
11.2859
11.2859
11.2859
11.2859
11.2859
11.2859
11.2859
11.2859
11.2859
11.2859
11.2859
11.2859
11.2859
11.2859
11.2859
11.2859
11.2859
11.2859
11.2859
11.2859
11.2859
11.2859
11.2859
11.2859
11.2859
11.2859
11.2859
11.2859
11.2859
11.2859
11.2859
11.2859
11.2859
11.2859
11.2859
11.2859
11.2859
11.2859
11.2859
11.2859
11.2859
11.2859
11.2859
11.2859
11.2859
11.2859
11.2859
11.2859
11.2859
11.2859
11.2859
11.2859
11.2859
11.2859
11.2859
11.2859
11.2859
11.2859
11.2859
11.2859
11.2859
11.2859
11.2859
11.2859
11.2859
11.2859
11.2859
11.2859
11.2859
11.2859
11.2859
11.2859
11.2859
11.2859
11.2859
11.2859
11.2859
11.2859
11.2859
11.2859
11.2859
11.2859
11.2859
11.2859
11.2859
11.2859
11.2859
11.2859
11.2859
11.2859
11.2859
11.2859
11.2859
11.2859
11.2859
11.2859
11.2859
11.2859
11.2859
11.2859
11.2859
11.2859
11.2859
11.2859
11.2859
11.2859
11.2859
11.2859
11.2859
11.2859
11.2859
11.2859
11.2859
11.2859
11.2859
11.2859
11.2859
11.2859
11.2859
11.2859
11.2859
11.2859
11.2859
11.2859
11.2859
11.2859
11.2859
11.2859
11.2859
11.2859
11.2859
11.2859
11.2859
11.2859
11.2859
11.2859
11.2859
11.2859
11.2859
11.2859
11.2859
11.2859
11.2859
11.2859
11.2859
11.2859
11.2859
11.2859
11.2859
11.2859
11.2859
11.2859
11.2859
11.2859
11.2859
11.2859
11.2859
11.2859
11.2859
11.2859
11.2859
11.2859
11.2859
11.2859
11.2859
11.2859
11.2859
11.2859
11.2859
11.2859
11.2859
11.2859
11.2859
11.2859
11.2859
11.2859
11.2859
11.2859
11.2859
11.2859
11.2859
11.2859
11.2859
11.2859
11.2859
11.2859
11.2859
11.2859
11.2859
11.2859
11.2859
11.2859
11.2859
11.2859
11.2859
11.2859
11.2859
11.2859
11.2859
11.2859
11.2859
11.2859
11.2859
11.2859
11.2859
11.2859
11.2859
11.2859
11.2859
11.2859
11.2859
11.2859
11.2859
11.2859
11.2859
11.2859
11.2859
11.2859
11.2859
11.2859
11.2859
11.2859
11.2859
11.2859
11.2859
11.2859
11.2859
11.2859
11.2859
11.2859
11.2859
11.2859
11.2859
11.2859
11.2859
11.2859
11.2859
11.2859
11.2859
11.2859
11.2859
11.2859
11.2859
11.2859
11.2859
11.2859
11.2859
11.2859
11.2859
11.2859
11.2859
11.2859
11.2859
11.2859
11.2859
11.2859
11.2859
11.2859
11.2859
11.2859
11.2859
11.2859
11.2859
11.2859
11.2859
11.2859
11.2859
11.2859
11.2859
11.2858
11.2858
11.2858
11.2858
11.2858
11.2858
11.2858
11.2858
11.2858
11.2858
11.2858
11.2858
11.2858
11.2858
11.2858
11.2858
11.2858
11.2858
11.2858
11.2858
11.2858
11.2858
11.2858
11.2858
11.2858
11.2858
11.2859
11.2859
11.2859
11.2859
11.2859
11.2859
11.2859
11.2859
11.2859
11.2859
11.2859
11.2859
11.2859
11.2859
11.2859
11.2859
11.2859
11.2859
11.2859
11.2859
11.2859
11.2859
11.2859
11.2859
11.2859
11.2859
11.2859
11.2859
11.2859
11.2859
11.2859
11.2859
11.2859
11.2859
11.2859
11.2859
11.2859
11.2859
11.2859
11.2859
11.2859
11.2859
11.2859
11.2859
11.2859
11.2859
11.2858
11.2858
11.2858
11.2858
11.2858
11.2858
11.2858
11.2858
11.2858
11.2858
11.2858
11.2858
11.2858
11.2858
11.2858
11.2858
11.2858
11.2858
11.2858
11.2858
11.2858
11.2858
11.2858
11.2858
11.2858
11.2858
11.2858
11.2858
11.2858
11.2858
11.2858
11.2858
11.2858
11.2858
11.2858
11.2858
11.2858
11.2858
11.2858
11.2858
11.2858
11.2858
11.2858
11.2858
11.2858
11.2858
11.2858
11.2858
11.2858
11.2858
11.2858
11.2858
11.2857
11.2857
11.2857
11.2857
11.2857
11.2857
11.2857
11.2857
11.2857
11.2858
11.2858
11.2858
11.2858
11.2858
11.2858
11.2858
11.2858
11.2858
11.2858
11.2858
11.2858
11.2858
11.2858
11.2858
11.2858
11.2858
11.2858
11.2858
11.2858
11.2858
11.2858
11.2858
11.2858
11.2858
11.2858
11.2858
11.2858
11.2858
11.2858
11.2858
11.2858
11.2858
11.2858
11.2858
11.2858
11.2858
11.2858
11.2858
11.2858
11.2858
11.2858
11.2858
11.2858
11.2858
11.2858
11.2858
11.2858
11.2858
11.2858
11.2858
11.2858
11.2858
11.2858
11.2858
11.2858
11.2858
11.2858
11.2858
11.2858
11.2858
11.2858
11.2858
11.2858
11.2858
11.2858
11.2857
11.2857
11.2857
11.2857
11.2857
11.2857
11.2857
11.2857
11.2857
11.2857
11.2857
11.2857
11.2857
11.2856
11.2856
11.2856
11.2856
11.2856
11.2856
11.2856
11.2856
11.2855
11.2855
11.2855
11.2855
11.2855
11.2855
11.2854
11.2854
11.2854
11.2854
11.2853
11.2853
11.2853
11.2853
11.2852
11.2852
11.2852
11.2851
11.2851
11.285
11.285
11.285
11.2849
11.2857
11.2857
11.2857
11.2857
11.2857
11.2857
11.2857
11.2857
11.2857
11.2857
11.2857
11.2857
11.2857
11.2857
11.2858
11.2858
11.2858
11.2858
11.2858
11.2858
11.2858
11.2858
11.2858
11.2858
11.2858
11.2858
11.2858
11.2858
11.2858
11.2858
11.2858
11.2858
11.2858
11.2858
11.2858
11.2858
11.2858
11.2858
11.2857
11.2857
11.2857
11.2857
11.2857
11.2857
11.2857
11.2857
11.2857
11.2857
11.2856
11.2856
11.2856
11.2856
11.2856
11.2856
11.2855
11.2855
11.2855
11.2855
11.2855
11.2854
11.2854
11.2854
11.2854
11.2854
11.2853
11.2853
11.2853
11.2852
11.2852
11.2852
11.2851
11.2851
11.285
11.285
11.285
11.2849
11.2849
11.2848
11.2848
11.2847
11.2846
11.2846
11.2845
11.2844
11.2844
11.2843
11.2842
11.2841
11.284
11.2839
11.2838
11.2837
11.2836
11.2835
11.2834
11.2832
11.2831
11.283
11.2828
11.2827
11.2825
11.2823
11.2821
11.2819
11.2817
11.2815
11.2813
11.281
11.2808
11.2805
11.285
11.285
11.2851
11.2851
11.2851
11.2852
11.2852
11.2852
11.2852
11.2853
11.2853
11.2853
11.2853
11.2854
11.2854
11.2854
11.2854
11.2854
11.2855
11.2855
11.2855
11.2855
11.2855
11.2855
11.2855
11.2855
11.2855
11.2855
11.2855
11.2855
11.2855
11.2855
11.2855
11.2855
11.2854
11.2854
11.2854
11.2853
11.2853
11.2853
11.2852
11.2852
11.2851
11.2851
11.285
11.285
11.2849
11.2848
11.2848
11.2847
11.2846
11.2845
11.2844
11.2844
11.2843
11.2842
11.2841
11.284
11.2839
11.2837
11.2836
11.2835
11.2834
11.2832
11.2831
11.2829
11.2828
11.2826
11.2824
11.2822
11.282
11.2818
11.2816
11.2814
11.2811
11.2809
11.2806
11.2803
11.28
11.2797
11.2794
11.2791
11.2787
11.2783
11.2779
11.2775
11.277
11.2766
11.2761
11.2755
11.275
11.2744
11.2737
11.2731
11.2724
11.2716
11.2708
11.27
11.2691
11.2682
11.2672
11.2662
11.2651
11.2639
11.2627
11.2614
11.2601
11.2586
11.2571
11.2555
11.2821
11.2822
11.2823
11.2825
11.2826
11.2827
11.2828
11.283
11.2831
11.2832
11.2833
11.2834
11.2835
11.2836
11.2837
11.2838
11.2839
11.284
11.2841
11.2841
11.2842
11.2842
11.2843
11.2843
11.2843
11.2843
11.2843
11.2843
11.2843
11.2842
11.2842
11.2841
11.284
11.2839
11.2838
11.2837
11.2835
11.2834
11.2832
11.283
11.2828
11.2825
11.2822
11.282
11.2817
11.2814
11.281
11.2807
11.2803
11.28
11.2796
11.2792
11.2788
11.2784
11.2779
11.2774
11.2769
11.2764
11.2758
11.2753
11.2746
11.274
11.2733
11.2725
11.2718
11.271
11.2701
11.2692
11.2683
11.2673
11.2662
11.2651
11.2639
11.2627
11.2614
11.2601
11.2586
11.2571
11.2555
11.2538
11.252
11.2501
11.2481
11.246
11.2438
11.2414
11.2389
11.2363
11.2335
11.2306
11.2274
11.2241
11.2207
11.217
11.2131
11.209
11.2046
11.2001
11.1953
11.1902
11.1848
11.1792
11.1733
11.167
11.1604
11.1535
11.1462
11.1385
11.1304
11.1219
11.2694
11.27
11.2705
11.271
11.2716
11.2721
11.2727
11.2732
11.2738
11.2743
11.2748
11.2752
11.2757
11.2761
11.2765
11.2769
11.2773
11.2776
11.2779
11.2781
11.2783
11.2785
11.2786
11.2787
11.2788
11.2788
11.2787
11.2787
11.2785
11.2783
11.2781
11.2777
11.2773
11.2768
11.2763
11.2756
11.2749
11.274
11.2731
11.2721
11.2709
11.2697
11.2684
11.2671
11.2656
11.2641
11.2625
11.2608
11.259
11.2572
11.2553
11.2533
11.2513
11.2491
11.2468
11.2444
11.2419
11.2392
11.2363
11.2333
11.2301
11.2267
11.2232
11.2194
11.2154
11.2112
11.2068
11.2022
11.1973
11.1921
11.1867
11.181
11.1751
11.1688
11.1622
11.1552
11.1479
11.1402
11.1321
11.1236
11.1146
11.1051
11.0952
11.0847
11.0736
11.062
11.0497
11.0367
11.0231
11.0086
10.9933
10.9772
10.9602
10.9422
10.9233
10.9033
10.8822
10.8599
10.8366
10.812
10.7862
10.7591
10.7308
10.7011
10.6701
10.6377
10.604
10.5688
10.5322
10.494
11.2134
11.2157
11.2179
11.2203
11.2227
11.225
11.2274
11.2298
11.2321
11.2343
11.2365
11.2386
11.2406
11.2425
11.2442
11.2459
11.2474
11.2488
11.2501
11.2512
11.2522
11.253
11.2537
11.2542
11.2545
11.2544
11.2543
11.2541
11.2536
11.2529
11.2518
11.2505
11.2488
11.2467
11.2442
11.2414
11.2382
11.2345
11.2304
11.2258
11.2209
11.2154
11.2096
11.2033
11.1967
11.1897
11.1823
11.1746
11.1666
11.1582
11.1495
11.1405
11.1311
11.1213
11.111
11.1003
11.089
11.0771
11.0645
11.0513
11.0374
11.0227
11.0072
10.9909
10.9738
10.9557
10.9367
10.9168
10.8959
10.874
10.851
10.8269
10.8017
10.7752
10.7476
10.7186
10.6883
10.6566
10.6235
10.589
10.553
10.5154
10.4764
10.4357
10.3934
10.3495
10.3039
10.2566
10.2076
10.1566
10.1038
10.049
9.99224
9.93336
9.87233
9.80913
9.74371
9.6761
9.60629
9.53435
9.46036
9.38443
9.30669
9.22732
9.14651
9.06445
8.98136
8.89746
8.81293
8.72798
8.64274
10.9907
10.9996
11.0088
11.0181
11.0276
11.0371
11.0465
11.0557
11.0648
11.0736
11.0821
11.0903
11.0981
11.1055
11.1124
11.1189
11.1248
11.1302
11.135
11.1393
11.1429
11.146
11.1483
11.1498
11.1501
11.1497
11.1489
11.1473
11.1446
11.1407
11.1355
11.1289
11.1207
11.111
11.0997
11.0866
11.0717
11.0551
11.0366
11.0164
10.9944
10.9707
10.9455
10.9187
10.8906
10.8612
10.8306
10.7988
10.766
10.7321
10.6972
10.6612
10.624
10.5856
10.5457
10.5043
10.4612
10.4164
10.3697
10.3212
10.2707
10.2183
10.164
10.1079
10.0498
9.98996
9.9283
9.86488
9.7997
9.73279
9.66414
9.59375
9.52162
9.44775
9.37217
9.2949
9.21602
9.1356
9.05376
8.97063
8.88638
8.80118
8.71521
8.62867
8.54172
8.45452
8.36722
8.27991
8.19267
8.1055
8.01841
7.93134
7.84421
7.7569
7.66929
7.58125
7.49263
7.40333
7.31328
7.22243
7.13079
7.03845
6.94556
6.85231
6.75899
6.66593
6.57351
6.48216
6.3923
6.30437
6.21882
6.13602
6.05633
10.2481
10.2757
10.3041
10.3332
10.3628
10.3925
10.4222
10.4515
10.4802
10.5082
10.5354
10.5617
10.5868
10.6107
10.633
10.6538
10.6729
10.6901
10.7055
10.7189
10.7304
10.7395
10.7459
10.7483
10.7474
10.7454
10.7408
10.7324
10.72
10.7031
10.6814
10.6547
10.6225
10.5847
10.5413
10.4922
10.4375
10.3773
10.312
10.2419
10.1678
10.0901
10.0096
9.9268
9.84235
9.75671
9.67029
9.58336
9.49614
9.40873
9.32119
9.23343
9.14529
9.05655
8.96701
8.87656
8.78515
8.69284
8.59971
8.50591
8.41163
8.31712
8.22261
8.12837
8.03458
7.9414
7.84896
7.75729
7.6664
7.57624
7.4867
7.39767
7.309
7.22055
7.13219
7.04384
6.95545
6.86702
6.77863
6.69038
6.60249
6.51518
6.42877
6.34356
6.25993
6.17823
6.0988
6.02199
5.94809
5.87734
5.80993
5.74599
5.68559
5.62872
5.57533
5.5253
5.47844
5.43456
5.39344
5.35481
5.3184
5.28398
5.25134
5.22029
5.19066
5.1623
5.13505
5.10881
5.08345
5.05889
5.03506
5.01188
4.98929
8.53113
8.57544
8.62197
8.6704
8.72068
8.77283
8.82658
8.88142
8.93671
8.99192
9.04669
9.10078
9.15398
9.20598
9.25637
9.30467
9.35038
9.3931
9.43247
9.46806
9.49954
9.52686
9.54989
9.56736
9.5767
9.57576
9.57099
9.56197
9.54474
9.51832
9.48215
9.43569
9.37848
9.31019
9.2309
9.14112
9.04168
8.9336
8.81795
8.69601
8.5693
8.43954
8.30851
8.17786
8.04902
7.92313
7.80103
7.68322
7.56989
7.46096
7.35617
7.25513
7.15736
7.06231
6.96936
6.87788
6.78736
6.69751
6.60825
6.51958
6.43161
6.34459
6.25881
6.17469
6.09265
6.01314
5.93655
5.86323
5.79347
5.72745
5.66529
5.60703
5.55259
5.50187
5.45468
5.41078
5.36992
5.33184
5.29626
5.26291
5.2315
5.20181
5.17365
5.14684
5.12123
5.09668
5.07306
5.05028
5.02822
5.00681
4.98598
4.96564
4.94575
4.92625
4.90707
4.88819
4.86954
4.85111
4.83291
4.81494
4.7972
4.77952
4.76211
4.74569
4.73013
4.7154
4.70142
4.68792
4.67483
4.66218
4.64998
4.63823
4.62691
4.616
4.60546
6.64787
6.69007
6.73403
6.77943
6.82656
6.87584
6.92721
6.98
7.03336
7.08669
7.13974
7.19239
7.24452
7.29588
7.346
7.39425
7.44
7.48274
7.52194
7.5569
7.58706
7.61258
7.63365
7.64712
7.64551
7.63838
7.62789
7.60815
7.57776
7.53653
7.48417
7.42059
7.34585
7.26029
7.16499
7.06163
6.952
6.83761
6.71974
6.59976
6.47927
6.35997
6.24343
6.13108
6.02412
5.92352
5.82999
5.74399
5.66566
5.5948
5.53107
5.47397
5.42283
5.37693
5.33553
5.29769
5.26268
5.23018
5.19983
5.17123
5.14405
5.11815
5.09338
5.06966
5.04689
5.025
5.00389
4.9835
4.96373
4.94452
4.9258
4.9075
4.88955
4.8719
4.85449
4.83729
4.82029
4.8035
4.78693
4.77051
4.75429
4.73894
4.72439
4.71058
4.69753
4.68508
4.67304
4.66141
4.6502
4.6394
4.62898
4.61893
4.60918
4.59974
4.59056
4.58163
4.57291
4.56444
4.55604
4.54772
4.53958
4.53172
4.52369
4.51507
4.50589
4.49613
4.48585
4.47558
4.46542
4.45533
4.44529
4.43528
4.42525
4.4152
4.40508
4.39488
5.26925
5.28909
5.30907
5.33244
5.35602
5.37938
5.40349
5.4296
5.45719
5.48452
5.51114
5.53807
5.56623
5.59578
5.62606
5.65623
5.68592
5.71514
5.74395
5.77232
5.80016
5.82717
5.85288
5.87682
5.89873
5.91827
5.93459
5.94708
5.95657
5.96339
5.96166
5.94872
5.93714
5.92121
5.89714
5.86531
5.82577
5.77909
5.72617
5.66747
5.60348
5.53616
5.46819
5.4016
5.33756
5.27673
5.21985
5.16779
5.12108
5.07971
5.0433
5.01142
4.98353
4.95902
4.93728
4.91777
4.89995
4.88336
4.86766
4.85252
4.83761
4.82262
4.80792
4.79353
4.77863
4.76341
4.7482
4.73357
4.71962
4.70633
4.69373
4.68183
4.67044
4.65946
4.6489
4.63872
4.62891
4.61943
4.61028
4.60142
4.59281
4.58443
4.57624
4.56821
4.56024
4.55248
4.54499
4.53745
4.52945
4.521
4.51211
4.5027
4.49303
4.48345
4.47395
4.46449
4.45505
4.44559
4.4361
4.42655
4.41691
4.40715
4.39724
4.38716
4.37687
4.36644
4.35583
4.34499
4.33388
4.32266
4.3114
4.30014
4.28892
4.27779
4.26651
4.25502
4.24332
4.23141
4.21927
4.20691
4.19433
4.18153
4.1685
4.86974
4.88744
4.90527
4.92311
4.94185
4.9586
4.97381
4.99316
5.01239
5.03084
5.04965
5.06715
5.08634
5.10433
5.12109
5.13836
5.15507
5.17071
5.18527
5.19911
5.21199
5.22323
5.23305
5.24144
5.24799
5.25249
5.25492
5.25509
5.25306
5.24868
5.2408
5.22807
5.21484
5.19933
5.18073
5.15839
5.13229
5.10374
5.07413
5.04272
5.00768
4.97125
4.93712
4.9048
4.87341
4.84277
4.81346
4.78599
4.76062
4.73528
4.71185
4.69154
4.6734
4.65735
4.64318
4.63053
4.61925
4.60914
4.60003
4.59169
4.5839
4.57657
4.56967
4.56313
4.55667
4.5502
4.54385
4.53712
4.52989
4.52216
4.51389
4.50502
4.496
4.48702
4.47806
4.46909
4.46011
4.45109
4.44201
4.43283
4.42353
4.41408
4.40447
4.39478
4.38493
4.37487
4.36453
4.35406
4.3435
4.33289
4.32225
4.31167
4.30106
4.29026
4.27925
4.26803
4.25661
4.24497
4.23313
4.22107
4.20881
4.19636
4.18372
4.17092
4.15797
4.14488
4.13167
4.11835
4.10494
4.09145
4.07786
4.06414
4.05027
4.03621
4.02194
4.00746
3.99277
3.9779
3.96285
3.94762
3.93225
3.91673
3.90108
4.65835
4.6732
4.68699
4.70127
4.71597
4.72875
4.74063
4.75412
4.76721
4.781
4.79398
4.80582
4.81731
4.82845
4.83907
4.84918
4.85865
4.86733
4.87524
4.88242
4.88878
4.89419
4.89861
4.90202
4.9044
4.90537
4.90471
4.90308
4.90005
4.89531
4.88871
4.88034
4.87033
4.85863
4.8451
4.82954
4.81199
4.79313
4.77365
4.75385
4.73156
4.70841
4.68724
4.66597
4.64519
4.62551
4.60634
4.58824
4.57162
4.55604
4.54175
4.52804
4.51463
4.50144
4.48877
4.47702
4.46609
4.45582
4.44608
4.43676
4.4277
4.4188
4.41008
4.40147
4.39278
4.38386
4.37467
4.36529
4.35574
4.34601
4.33617
4.32629
4.31625
4.30596
4.29543
4.28467
4.27369
4.26251
4.25113
4.23957
4.22783
4.21593
4.20387
4.19168
4.17934
4.16687
4.15429
4.14162
4.12883
4.11593
4.10288
4.08966
4.07624
4.06262
4.0488
4.03479
4.02061
4.00627
3.99177
3.97713
3.96237
3.94748
3.93247
3.91735
3.90212
3.88678
3.87133
3.85575
3.84005
3.8242
3.80821
3.79207
3.77578
3.75936
3.7428
3.72613
3.70935
3.69247
3.67549
3.65843
3.64128
3.62404
3.60673
4.52584
4.53748
4.54857
4.56041
4.57179
4.58264
4.5931
4.60344
4.61403
4.6248
4.63502
4.64458
4.65365
4.66227
4.67045
4.67823
4.68562
4.69258
4.69905
4.70485
4.70984
4.71398
4.71724
4.71968
4.72124
4.7215
4.72064
4.71893
4.71603
4.71174
4.70605
4.69896
4.69046
4.68054
4.66912
4.65617
4.64171
4.62614
4.6101
4.59285
4.5746
4.55664
4.53806
4.51893
4.49892
4.47959
4.46078
4.44231
4.42421
4.40646
4.38909
4.37227
4.35614
4.34082
4.32623
4.31214
4.29851
4.2853
4.27247
4.25999
4.24783
4.23594
4.22423
4.21259
4.20101
4.18946
4.17787
4.16619
4.15435
4.14234
4.13012
4.11766
4.10495
4.09201
4.07886
4.06552
4.05202
4.03837
4.02459
4.01068
3.99666
3.98252
3.96826
3.95388
3.93937
3.92473
3.90996
3.89504
3.87996
3.86474
3.84936
3.83384
3.81818
3.80239
3.7865
3.77049
3.75438
3.73818
3.72188
3.7055
3.68903
3.67246
3.65581
3.63906
3.62222
3.60528
3.58824
3.5711
3.55387
3.53655
3.51915
3.50167
3.48412
3.4665
3.44883
3.4311
3.41332
3.39549
3.37761
3.35968
3.3417
3.32367
3.30559
3.28747
3.26929
4.38363
4.39244
4.40073
4.4096
4.41807
4.42633
4.43447
4.44236
4.45026
4.45808
4.46562
4.4729
4.47985
4.4863
4.49224
4.49777
4.50298
4.50792
4.51254
4.5167
4.52025
4.52313
4.52532
4.52685
4.52764
4.52741
4.52643
4.52473
4.52201
4.51817
4.51323
4.50718
4.49991
4.49133
4.48141
4.47031
4.45814
4.44386
4.42876
4.41425
4.39852
4.38158
4.36311
4.34387
4.32431
4.30464
4.28486
4.26498
4.24511
4.22541
4.20599
4.18692
4.16825
4.15
4.13216
4.11474
4.0978
4.08133
4.06536
4.04985
4.03478
4.02007
4.00565
3.99143
3.97736
3.96337
3.94937
3.93531
3.92112
3.90677
3.89225
3.87755
3.8627
3.84772
3.8326
3.81738
3.80207
3.78666
3.77117
3.75559
3.73991
3.72413
3.70825
3.69226
3.67616
3.65994
3.64361
3.62717
3.61063
3.59399
3.57727
3.56046
3.54359
3.52665
3.50964
3.49257
3.47544
3.45825
3.44101
3.4237
3.40633
3.3889
3.37142
3.35388
3.33628
3.31863
3.30094
3.2832
3.26543
3.24762
3.22978
3.21192
3.19403
3.17612
3.15819
3.14024
3.12226
3.10427
3.08627
3.06824
3.0502
3.03215
3.01409
2.99602
2.97794
4.22209
4.22863
4.23412
4.23945
4.24497
4.25028
4.25553
4.26071
4.26584
4.2708
4.27558
4.2803
4.28483
4.28896
4.29266
4.296
4.29907
4.30196
4.30464
4.30704
4.30902
4.31049
4.31144
4.31183
4.31158
4.31061
4.30914
4.30696
4.30394
4.30001
4.29518
4.28936
4.28245
4.27435
4.26512
4.25505
4.24282
4.22895
4.21605
4.20209
4.18658
4.16936
4.15095
4.13201
4.11275
4.09305
4.07281
4.0521
4.0311
4.01
3.98891
3.96793
3.94716
3.92668
3.90659
3.88695
3.86781
3.8492
3.83111
3.81353
3.7964
3.77967
3.76327
3.74712
3.73117
3.71534
3.69956
3.6838
3.66799
3.65213
3.63618
3.62016
3.60406
3.58789
3.57166
3.55536
3.53901
3.52259
3.50612
3.48959
3.47299
3.45632
3.43959
3.42278
3.40589
3.38895
3.37193
3.35486
3.33773
3.32056
3.30334
3.28608
3.26879
3.25145
3.23409
3.21669
3.19927
3.18181
3.16433
3.14682
3.12929
3.11173
3.09416
3.07657
3.05897
3.04136
3.02375
3.00612
2.9885
2.97088
2.95325
2.93563
2.91801
2.90039
2.88278
2.86518
2.84757
2.82998
2.8124
2.79482
2.77726
2.75971
2.74218
2.72466
2.70715
4.04084
4.04355
4.0466
4.04913
4.05137
4.05396
4.05619
4.05844
4.06061
4.06293
4.06517
4.06715
4.06906
4.07094
4.07259
4.0739
4.07492
4.0757
4.07635
4.07689
4.07727
4.07739
4.07715
4.07648
4.07536
4.07381
4.07175
4.06919
4.06606
4.06227
4.05777
4.05249
4.04635
4.03926
4.03116
4.02222
4.01243
3.99946
3.98752
3.97503
3.9612
3.94591
3.929
3.91102
3.8926
3.8738
3.85437
3.83416
3.81325
3.79186
3.77018
3.74839
3.72661
3.70499
3.68362
3.6626
3.642
3.62186
3.6022
3.58303
3.56434
3.54609
3.52824
3.51074
3.49353
3.47655
3.45974
3.44305
3.42643
3.40985
3.39327
3.37669
3.36009
3.34346
3.32681
3.31014
3.29344
3.27671
3.25996
3.24319
3.22638
3.20954
3.19267
3.17577
3.15882
3.14185
3.12484
3.10779
3.09073
3.07363
3.05652
3.03939
3.02224
3.00508
2.98791
2.97074
2.95356
2.93638
2.9192
2.90202
2.88485
2.86768
2.85051
2.83336
2.81622
2.79909
2.78197
2.76486
2.74777
2.7307
2.71364
2.6966
2.67957
2.66256
2.64557
2.6286
2.61165
2.59472
2.57781
2.56092
2.54405
2.52721
2.51039
2.49359
2.47682
2.46008
3.85261
3.85227
3.85193
3.85144
3.85092
3.85045
3.8499
3.84936
3.84873
3.84817
3.84789
3.84745
3.84639
3.84569
3.84527
3.84436
3.84315
3.84175
3.8402
3.83862
3.83699
3.83522
3.83319
3.83086
3.8282
3.82519
3.82182
3.81804
3.81381
3.80908
3.80377
3.79782
3.79113
3.78363
3.77534
3.76647
3.75597
3.74403
3.73268
3.72023
3.70655
3.69168
3.67542
3.65809
3.64034
3.62216
3.60324
3.58347
3.56299
3.54197
3.52063
3.49912
3.47757
3.45612
3.43486
3.41387
3.39323
3.37298
3.35315
3.33376
3.31481
3.29627
3.27812
3.26031
3.24279
3.22552
3.20844
3.19152
3.1747
3.15796
3.14127
3.12461
3.10798
3.09137
3.07477
3.05817
3.04159
3.02501
3.00843
2.99185
2.97527
2.95868
2.94209
2.92548
2.90886
2.89222
2.87557
2.85892
2.84225
2.82559
2.80892
2.79225
2.77559
2.75893
2.74229
2.72566
2.70904
2.69244
2.67586
2.65929
2.64274
2.62622
2.60971
2.59322
2.57676
2.56031
2.54389
2.52749
2.51111
2.49476
2.47843
2.46212
2.44584
2.42959
2.41336
2.39717
2.381
2.36487
2.34877
2.33271
2.31668
2.30069
2.28473
2.26882
2.25296
2.23714
2.22138
2.20567
3.65672
3.65364
3.65053
3.64742
3.64434
3.64128
3.63825
3.63526
3.63227
3.62934
3.62659
3.62374
3.62066
3.61748
3.61516
3.61225
3.60914
3.60626
3.60286
3.59931
3.59588
3.59248
3.58891
3.5851
3.58103
3.57671
3.57212
3.56722
3.56198
3.55634
3.55025
3.54361
3.53633
3.52841
3.51992
3.51096
3.49986
3.48905
3.4777
3.46528
3.45184
3.43747
3.42197
3.40542
3.38847
3.37106
3.35288
3.3339
3.31427
3.29417
3.27373
3.2531
3.23239
3.21171
3.19115
3.17081
3.15074
3.131
3.11162
3.09262
3.07401
3.05577
3.03788
3.0203
3.003
2.98594
2.96907
2.95237
2.93579
2.91931
2.90291
2.88658
2.87031
2.85407
2.83788
2.82172
2.80559
2.78949
2.7734
2.75734
2.74128
2.72523
2.70918
2.69314
2.67709
2.66105
2.645
2.62896
2.61292
2.59689
2.58087
2.56487
2.54888
2.53291
2.51696
2.50103
2.48512
2.46924
2.45338
2.43755
2.42174
2.40596
2.39021
2.37449
2.35879
2.34313
2.3275
2.31191
2.29634
2.28082
2.26533
2.24989
2.23449
2.21913
2.20383
2.18858
2.17338
2.15824
2.14317
2.12816
2.11321
2.09833
2.08351
2.06875
2.05405
2.0394
2.02482
2.01031
3.45854
3.45321
3.44791
3.44266
3.43746
3.43232
3.42726
3.42228
3.41737
3.41256
3.40784
3.40315
3.39843
3.39363
3.38916
3.38461
3.37963
3.37601
3.37154
3.36627
3.36124
3.35673
3.35196
3.34693
3.34174
3.33637
3.3308
3.325
3.31893
3.31256
3.30579
3.29854
3.2908
3.28261
3.27405
3.2646
3.25386
3.24332
3.23196
3.21968
3.20659
3.19279
3.17808
3.16236
3.14627
3.12969
3.1124
3.09441
3.07586
3.05689
3.03761
3.01812
2.99853
2.97893
2.95941
2.94004
2.9209
2.90202
2.88345
2.8652
2.84728
2.82968
2.81238
2.79536
2.77859
2.76204
2.74568
2.72949
2.71343
2.69748
2.68163
2.66586
2.65017
2.63453
2.61895
2.60342
2.58793
2.57247
2.55703
2.54162
2.52623
2.51085
2.49547
2.48011
2.46475
2.44939
2.43405
2.41871
2.40339
2.38808
2.3728
2.35754
2.3423
2.32709
2.31191
2.29676
2.28165
2.26657
2.25153
2.23653
2.22156
2.20664
2.19177
2.17694
2.16217
2.14745
2.13279
2.11818
2.10364
2.08916
2.07474
2.06038
2.04606
2.0318
2.01761
2.00348
1.98941
1.97541
1.96147
1.9476
1.93381
1.92008
1.90642
1.8928
1.87921
1.86564
1.85213
1.83868
3.26266
3.25561
3.24864
3.24174
3.23494
3.22823
3.22163
3.21515
3.20878
3.20254
3.19641
3.19035
3.18433
3.17827
3.17249
3.16657
3.16038
3.15564
3.15057
3.14407
3.13811
3.13281
3.12709
3.12112
3.11511
3.10901
3.10274
3.09628
3.08961
3.08267
3.07534
3.06768
3.05971
3.05139
3.04278
3.03286
3.02271
3.01218
3.00089
2.98887
2.97622
2.96298
2.94909
2.93419
2.91892
2.9032
2.88684
2.8699
2.85249
2.83471
2.81665
2.79839
2.78002
2.76161
2.74326
2.72501
2.70695
2.68909
2.67149
2.65415
2.63708
2.62028
2.60374
2.58745
2.57137
2.5555
2.5398
2.52427
2.50886
2.49358
2.4784
2.46331
2.4483
2.43336
2.41847
2.40364
2.38885
2.37409
2.35937
2.34467
2.32999
2.31533
2.30069
2.28607
2.27146
2.25686
2.24229
2.22774
2.21322
2.19873
2.18428
2.16986
2.1555
2.14117
2.1269
2.11268
2.09852
2.08442
2.07038
2.05638
2.04244
2.02854
2.0147
2.00093
1.98721
1.97355
1.95995
1.94642
1.93295
1.91954
1.9062
1.8929
1.87963
1.86638
1.85318
1.84005
1.82697
1.81397
1.80103
1.78816
1.77537
1.76264
1.75003
1.73754
1.72522
1.71308
1.70104
1.68908
1.67721
3.06432
3.05613
3.04806
3.04011
3.03229
3.02461
3.01707
3.00967
3.00242
2.99529
2.98826
2.98132
2.97447
2.96784
2.96089
2.95375
2.94887
2.94243
2.93556
2.92911
2.92311
2.91663
2.91007
2.90353
2.89695
2.89024
2.88337
2.87629
2.86887
2.86122
2.85339
2.84532
2.83703
2.82808
2.81836
2.80843
2.79797
2.78689
2.77523
2.76303
2.75036
2.73722
2.72314
2.70865
2.69376
2.67834
2.66243
2.64613
2.62952
2.61264
2.59559
2.57841
2.5612
2.54401
2.5269
2.50992
2.49311
2.4765
2.4601
2.44393
2.42798
2.41226
2.39674
2.38143
2.3663
2.35133
2.33652
2.32184
2.30728
2.29283
2.27847
2.2642
2.25001
2.23587
2.2218
2.20777
2.19379
2.17985
2.16595
2.15208
2.13824
2.12444
2.11066
2.09693
2.08323
2.06958
2.05597
2.0424
2.02886
2.01538
2.00194
1.98856
1.97523
1.96196
1.94874
1.93558
1.92248
1.90944
1.89645
1.88349
1.87054
1.85764
1.8448
1.83201
1.81929
1.80664
1.79405
1.78153
1.76908
1.75672
1.74448
1.7324
1.72048
1.70866
1.69691
1.68524
1.67366
1.66217
1.65077
1.63946
1.62826
1.61715
1.60613
1.59518
1.58431
1.57354
1.56289
1.55235
2.88166
2.87266
2.86381
2.8551
2.84655
2.83816
2.82993
2.82186
2.81394
2.80616
2.79852
2.79102
2.78372
2.77645
2.76896
2.76163
2.7559
2.74874
2.74166
2.73504
2.7284
2.72153
2.71465
2.70779
2.70093
2.69397
2.68684
2.67943
2.67179
2.66404
2.65618
2.64813
2.63975
2.63069
2.62128
2.61149
2.60121
2.59042
2.57916
2.56745
2.55531
2.54281
2.52958
2.51582
2.50172
2.48719
2.47227
2.45701
2.44147
2.4257
2.40976
2.39371
2.3776
2.36151
2.34547
2.32952
2.31371
2.29807
2.2826
2.26732
2.25225
2.23737
2.22268
2.20818
2.19385
2.17968
2.16567
2.15179
2.13804
2.12441
2.11088
2.09745
2.0841
2.07083
2.05764
2.0445
2.03141
2.01836
2.00536
1.9924
1.97948
1.9666
1.95376
1.94095
1.92819
1.91547
1.9028
1.89015
1.87752
1.86492
1.85236
1.83985
1.8274
1.81501
1.80269
1.79043
1.77823
1.76611
1.75409
1.74221
1.73049
1.71886
1.70731
1.69583
1.68442
1.67311
1.66187
1.65072
1.63967
1.6287
1.61782
1.607
1.59625
1.5856
1.57506
1.56463
1.55431
1.5441
1.534
1.52402
1.51415
1.5044
1.49476
1.48525
1.47586
1.46662
1.4575
1.44853
2.69951
2.69019
2.68103
2.67205
2.66325
2.65461
2.64615
2.63786
2.62973
2.62176
2.61398
2.60635
2.59871
2.59087
2.58395
2.57696
2.5697
2.56259
2.55573
2.54876
2.54172
2.53468
2.52767
2.52067
2.51355
2.50624
2.49871
2.49105
2.48333
2.4755
2.46746
2.459
2.45013
2.44092
2.43132
2.4213
2.41086
2.40002
2.38879
2.37717
2.36517
2.35278
2.33975
2.3264
2.31271
2.29869
2.28439
2.26984
2.25508
2.24018
2.22518
2.21013
2.19507
2.18006
2.16513
2.15031
2.13564
2.12113
2.10679
2.09265
2.07869
2.06492
2.05133
2.03791
2.02465
2.01152
1.99854
1.98569
1.97295
1.96033
1.94779
1.93534
1.92296
1.91064
1.89838
1.88615
1.87393
1.86175
1.84961
1.83751
1.82544
1.81343
1.80146
1.78954
1.77768
1.76589
1.7542
1.74266
1.73123
1.71986
1.70856
1.69733
1.68617
1.6751
1.6641
1.65318
1.64236
1.6316
1.62091
1.61028
1.59973
1.58929
1.57895
1.56871
1.55857
1.54853
1.5386
1.52878
1.51906
1.50944
1.49994
1.49056
1.48131
1.47218
1.46318
1.45431
1.44557
1.43698
1.42852
1.4202
1.41203
1.40401
1.39614
1.38843
1.38088
1.37349
1.36627
2.52768
2.51831
2.50913
2.50014
2.49133
2.4827
2.47424
2.46597
2.45787
2.44994
2.44212
2.43424
2.42664
2.41944
2.4121
2.40481
2.3977
2.39066
2.38358
2.37649
2.36941
2.36236
2.35529
2.34809
2.34073
2.33323
2.32565
2.31801
2.31024
2.30222
2.29386
2.28519
2.27619
2.26685
2.25714
2.24708
2.23668
2.22594
2.21485
2.20341
2.19161
2.17941
2.1669
2.154
2.14084
2.12746
2.11388
2.10012
2.08624
2.07227
2.05828
2.04428
2.03033
2.01645
2.00265
1.98898
1.97545
1.96209
1.94889
1.93587
1.92302
1.91035
1.89783
1.88545
1.87317
1.86101
1.84896
1.83703
1.8252
1.81346
1.80182
1.79026
1.77878
1.76738
1.75609
1.74493
1.73383
1.72278
1.71179
1.70085
1.68997
1.67915
1.6684
1.65772
1.64711
1.63656
1.62605
1.61562
1.60527
1.59501
1.58485
1.57478
1.5648
1.55492
1.54514
1.53545
1.52586
1.51638
1.50699
1.49773
1.48858
1.47954
1.47063
1.46184
1.45318
1.44464
1.43623
1.42796
1.41982
1.41182
1.40397
1.39627
1.38871
1.38131
1.37407
1.36698
1.36005
1.3533
1.34671
1.34029
1.33405
1.32798
1.3221
1.3164
1.31088
1.30556
1.30043
1.2955
2.37627
2.36686
2.35765
2.34863
2.3398
2.33116
2.3227
2.31443
2.30631
2.29833
2.29046
2.28267
2.27517
2.26778
2.26044
2.2532
2.24609
2.23902
2.23195
2.22489
2.21786
2.21083
2.20376
2.19658
2.18928
2.18191
2.17447
2.16695
2.15928
2.15139
2.14323
2.1348