/*--------------------------------*- C++ -*----------------------------------*\
| =========                 |                                                 |
| \\      /  F ield         | OpenFOAM: The Open Source CFD Toolbox           |
|  \\    /   O peration     | Version:  v1706                                 |
|   \\  /    A nd           | Web:      www.OpenFOAM.com                      |
|    \\/     M anipulation  |                                                 |
\*---------------------------------------------------------------------------*/
FoamFile
{
    version     2.0;
    format      ascii;
    class       volScalarField;
    location    "4e-06";
    object      mu;
}
// * * * * * * * * * * * * * * * * * * * * * * * * * * * * * * * * * * * * * //

dimensions      [1 -1 -1 0 0 0 0];


internalField   nonuniform List<scalar> 
29871
(
1.0351e-05
1.0351e-05
1.0351e-05
1.0351e-05
1.0351e-05
1.0351e-05
1.0351e-05
1.0351e-05
1.0351e-05
1.0351e-05
1.0351e-05
1.0351e-05
1.0351e-05
1.0351e-05
1.0351e-05
1.0351e-05
1.0351e-05
1.0351e-05
1.0351e-05
1.0351e-05
1.0351e-05
1.0351e-05
1.0351e-05
1.0351e-05
1.0351e-05
1.0351e-05
1.0351e-05
1.0351e-05
1.0351e-05
1.0351e-05
1.0351e-05
1.0351e-05
1.0351e-05
1.0351e-05
1.0351e-05
1.0351e-05
1.0351e-05
1.0351e-05
1.0351e-05
1.0351e-05
1.0351e-05
1.0351e-05
1.0351e-05
1.0351e-05
1.0351e-05
1.0351e-05
1.0351e-05
1.0351e-05
1.0351e-05
1.0351e-05
1.0351e-05
1.0351e-05
1.0351e-05
1.0351e-05
1.0351e-05
1.0351e-05
1.0351e-05
1.0351e-05
1.0351e-05
1.0351e-05
1.0351e-05
1.0351e-05
1.0351e-05
1.0351e-05
1.0351e-05
1.0351e-05
1.0351e-05
1.0351e-05
1.0351e-05
1.0351e-05
1.0351e-05
1.0351e-05
1.0351e-05
1.0351e-05
1.0351e-05
1.0351e-05
1.0351e-05
1.0351e-05
1.0351e-05
1.0351e-05
1.0351e-05
1.0351e-05
1.0351e-05
1.0351e-05
1.0351e-05
1.0351e-05
1.0351e-05
1.0351e-05
1.0351e-05
1.0351e-05
1.0351e-05
1.0351e-05
1.0351e-05
1.0351e-05
1.0351e-05
1.0351e-05
1.0351e-05
1.0351e-05
1.0351e-05
1.0351e-05
1.0351e-05
1.0351e-05
1.0351e-05
1.0351e-05
1.0351e-05
1.0351e-05
1.0351e-05
1.0351e-05
1.0351e-05
1.0351e-05
1.0351e-05
1.0351e-05
1.0351e-05
1.0351e-05
1.0351e-05
1.0351e-05
1.0351e-05
1.0351e-05
1.0351e-05
1.0351e-05
1.0351e-05
1.0351e-05
1.0351e-05
1.0351e-05
1.0351e-05
1.0351e-05
1.0351e-05
1.0351e-05
1.0351e-05
1.0351e-05
1.0351e-05
1.0351e-05
1.0351e-05
1.0351e-05
1.0351e-05
1.0351e-05
1.0351e-05
1.0351e-05
1.0351e-05
1.0351e-05
1.0351e-05
1.0351e-05
1.0351e-05
1.0351e-05
1.0351e-05
1.0351e-05
1.0351e-05
1.0351e-05
1.0351e-05
1.0351e-05
1.0351e-05
1.0351e-05
1.0351e-05
1.0351e-05
1.0351e-05
1.0351e-05
1.0351e-05
1.0351e-05
1.0351e-05
1.0351e-05
1.0351e-05
1.0351e-05
1.0351e-05
1.0351e-05
1.0351e-05
1.0351e-05
1.0351e-05
1.0351e-05
1.0351e-05
1.0351e-05
1.0351e-05
1.0351e-05
1.0351e-05
1.0351e-05
1.0351e-05
1.0351e-05
1.0351e-05
1.0351e-05
1.0351e-05
1.0351e-05
1.0351e-05
1.0351e-05
1.0351e-05
1.0351e-05
1.0351e-05
1.0351e-05
1.0351e-05
1.0351e-05
1.0351e-05
1.0351e-05
1.0351e-05
1.0351e-05
1.0351e-05
1.0351e-05
1.0351e-05
1.0351e-05
1.0351e-05
1.0351e-05
1.0351e-05
1.0351e-05
1.0351e-05
1.0351e-05
1.0351e-05
1.0351e-05
1.0351e-05
1.0351e-05
1.0351e-05
1.0351e-05
1.0351e-05
1.0351e-05
1.0351e-05
1.0351e-05
1.0351e-05
1.0351e-05
1.0351e-05
1.0351e-05
1.0351e-05
1.0351e-05
1.0351e-05
1.0351e-05
1.0351e-05
1.0351e-05
1.0351e-05
1.0351e-05
1.0351e-05
1.0351e-05
1.0351e-05
1.0351e-05
1.0351e-05
1.0351e-05
1.0351e-05
1.0351e-05
1.0351e-05
1.0351e-05
1.0351e-05
1.0351e-05
1.0351e-05
1.0351e-05
1.0351e-05
1.0351e-05
1.0351e-05
1.0351e-05
1.0351e-05
1.0351e-05
1.0351e-05
1.0351e-05
1.0351e-05
1.0351e-05
1.0351e-05
1.0351e-05
1.0351e-05
1.0351e-05
1.0351e-05
1.0351e-05
1.0351e-05
1.0351e-05
1.0351e-05
1.0351e-05
1.0351e-05
1.0351e-05
1.0351e-05
1.0351e-05
1.0351e-05
1.0351e-05
1.0351e-05
1.0351e-05
1.0351e-05
1.0351e-05
1.0351e-05
1.0351e-05
1.0351e-05
1.0351e-05
1.0351e-05
1.0351e-05
1.0351e-05
1.0351e-05
1.0351e-05
1.0351e-05
1.0351e-05
1.0351e-05
1.0351e-05
1.0351e-05
1.0351e-05
1.0351e-05
1.0351e-05
1.0351e-05
1.0351e-05
1.0351e-05
1.0351e-05
1.0351e-05
1.0351e-05
1.0351e-05
1.0351e-05
1.0351e-05
1.0351e-05
1.0351e-05
1.0351e-05
1.0351e-05
1.0351e-05
1.0351e-05
1.0351e-05
1.0351e-05
1.0351e-05
1.0351e-05
1.0351e-05
1.0351e-05
1.0351e-05
1.0351e-05
1.0351e-05
1.0351e-05
1.0351e-05
1.0351e-05
1.0351e-05
1.0351e-05
1.0351e-05
1.0351e-05
1.0351e-05
1.0351e-05
1.0351e-05
1.0351e-05
1.0351e-05
1.0351e-05
1.0351e-05
1.0351e-05
1.0351e-05
1.0351e-05
1.0351e-05
1.0351e-05
1.0351e-05
1.0351e-05
1.0351e-05
1.0351e-05
1.0351e-05
1.0351e-05
1.0351e-05
1.0351e-05
1.0351e-05
1.0351e-05
1.0351e-05
1.0351e-05
1.0351e-05
1.0351e-05
1.0351e-05
1.0351e-05
1.0351e-05
1.0351e-05
1.0351e-05
1.0351e-05
1.0351e-05
1.0351e-05
1.0351e-05
1.0351e-05
1.0351e-05
1.0351e-05
1.0351e-05
1.0351e-05
1.0351e-05
1.0351e-05
1.0351e-05
1.0351e-05
1.0351e-05
1.0351e-05
1.0351e-05
1.0351e-05
1.0351e-05
1.0351e-05
1.0351e-05
1.0351e-05
1.0351e-05
1.0351e-05
1.0351e-05
1.0351e-05
1.0351e-05
1.0351e-05
1.0351e-05
1.0351e-05
1.0351e-05
1.0351e-05
1.0351e-05
1.0351e-05
1.0351e-05
1.0351e-05
1.0351e-05
1.0351e-05
1.0351e-05
1.0351e-05
1.0351e-05
1.0351e-05
1.0351e-05
1.0351e-05
1.0351e-05
1.0351e-05
1.0351e-05
1.0351e-05
1.0351e-05
1.0351e-05
1.0351e-05
1.0351e-05
1.0351e-05
1.0351e-05
1.0351e-05
1.0351e-05
1.0351e-05
1.0351e-05
1.0351e-05
1.0351e-05
1.0351e-05
1.0351e-05
1.0351e-05
1.0351e-05
1.0351e-05
1.0351e-05
1.0351e-05
1.0351e-05
1.0351e-05
1.0351e-05
1.0351e-05
1.0351e-05
1.0351e-05
1.0351e-05
1.0351e-05
1.0351e-05
1.0351e-05
1.0351e-05
1.0351e-05
1.0351e-05
1.0351e-05
1.0351e-05
1.0351e-05
1.0351e-05
1.0351e-05
1.0351e-05
1.0351e-05
1.0351e-05
1.0351e-05
1.0351e-05
1.0351e-05
1.0351e-05
1.0351e-05
1.0351e-05
1.0351e-05
1.0351e-05
1.0351e-05
1.0351e-05
1.0351e-05
1.0351e-05
1.0351e-05
1.0351e-05
1.0351e-05
1.0351e-05
1.0351e-05
1.0351e-05
1.0351e-05
1.0351e-05
1.0351e-05
1.0351e-05
1.0351e-05
1.0351e-05
1.0351e-05
1.0351e-05
1.0351e-05
1.0351e-05
1.0351e-05
1.0351e-05
1.0351e-05
1.0351e-05
1.0351e-05
1.0351e-05
1.0351e-05
1.0351e-05
1.0351e-05
1.0351e-05
1.0351e-05
1.0351e-05
1.0351e-05
1.0351e-05
1.0351e-05
1.0351e-05
1.0351e-05
1.0351e-05
1.0351e-05
1.0351e-05
1.0351e-05
1.0351e-05
1.0351e-05
1.0351e-05
1.0351e-05
1.0351e-05
1.0351e-05
1.0351e-05
1.0351e-05
1.0351e-05
1.0351e-05
1.0351e-05
1.0351e-05
1.0351e-05
1.0351e-05
1.0351e-05
1.0351e-05
1.0351e-05
1.0351e-05
1.0351e-05
1.0351e-05
1.0351e-05
1.0351e-05
1.0351e-05
1.0351e-05
1.0351e-05
1.0351e-05
1.0351e-05
1.0351e-05
1.0351e-05
1.0351e-05
1.0351e-05
1.0351e-05
1.0351e-05
1.0351e-05
1.0351e-05
1.0351e-05
1.0351e-05
1.0351e-05
1.0351e-05
1.0351e-05
1.0351e-05
1.0351e-05
1.0351e-05
1.0351e-05
1.0351e-05
1.0351e-05
1.0351e-05
1.0351e-05
1.0351e-05
1.0351e-05
1.0351e-05
1.0351e-05
1.0351e-05
1.0351e-05
1.0351e-05
1.0351e-05
1.0351e-05
1.0351e-05
1.0351e-05
1.0351e-05
1.0351e-05
1.0351e-05
1.0351e-05
1.0351e-05
1.0351e-05
1.0351e-05
1.0351e-05
1.0351e-05
1.0351e-05
1.0351e-05
1.0351e-05
1.0351e-05
1.0351e-05
1.0351e-05
1.0351e-05
1.0351e-05
1.0351e-05
1.0351e-05
1.0351e-05
1.0351e-05
1.0351e-05
1.0351e-05
1.0351e-05
1.0351e-05
1.0351e-05
1.0351e-05
1.0351e-05
1.0351e-05
1.0351e-05
1.0351e-05
1.0351e-05
1.0351e-05
1.0351e-05
1.0351e-05
1.0351e-05
1.0351e-05
1.0351e-05
1.0351e-05
1.0351e-05
1.0351e-05
1.0351e-05
1.0351e-05
1.0351e-05
1.0351e-05
1.0351e-05
1.0351e-05
1.0351e-05
1.0351e-05
1.0351e-05
1.0351e-05
1.0351e-05
1.0351e-05
1.0351e-05
1.0351e-05
1.0351e-05
1.0351e-05
1.0351e-05
1.0351e-05
1.0351e-05
1.0351e-05
1.0351e-05
1.0351e-05
1.03511e-05
1.03511e-05
1.03511e-05
1.03511e-05
1.03511e-05
1.03511e-05
1.03511e-05
1.03511e-05
1.03511e-05
1.03511e-05
1.03511e-05
1.03511e-05
1.03511e-05
1.03511e-05
1.03511e-05
1.03511e-05
1.03511e-05
1.03511e-05
1.03511e-05
1.03511e-05
1.03511e-05
1.03511e-05
1.03511e-05
1.03511e-05
1.03512e-05
1.03512e-05
1.03512e-05
1.03512e-05
1.03512e-05
1.03512e-05
1.03512e-05
1.03511e-05
1.03511e-05
1.0351e-05
1.0351e-05
1.0351e-05
1.0351e-05
1.0351e-05
1.0351e-05
1.0351e-05
1.0351e-05
1.0351e-05
1.0351e-05
1.0351e-05
1.0351e-05
1.0351e-05
1.0351e-05
1.0351e-05
1.0351e-05
1.0351e-05
1.0351e-05
1.0351e-05
1.0351e-05
1.0351e-05
1.0351e-05
1.0351e-05
1.0351e-05
1.0351e-05
1.0351e-05
1.0351e-05
1.0351e-05
1.0351e-05
1.0351e-05
1.0351e-05
1.0351e-05
1.0351e-05
1.0351e-05
1.0351e-05
1.0351e-05
1.0351e-05
1.0351e-05
1.0351e-05
1.0351e-05
1.0351e-05
1.0351e-05
1.0351e-05
1.0351e-05
1.0351e-05
1.03511e-05
1.03511e-05
1.03511e-05
1.03511e-05
1.03511e-05
1.03511e-05
1.03511e-05
1.03511e-05
1.03511e-05
1.03511e-05
1.03511e-05
1.03511e-05
1.03511e-05
1.03511e-05
1.03511e-05
1.03511e-05
1.03511e-05
1.03511e-05
1.03511e-05
1.03511e-05
1.03512e-05
1.03512e-05
1.03512e-05
1.03512e-05
1.03512e-05
1.03512e-05
1.03512e-05
1.03512e-05
1.03512e-05
1.03512e-05
1.03512e-05
1.03513e-05
1.03513e-05
1.03513e-05
1.03513e-05
1.03513e-05
1.03513e-05
1.03513e-05
1.03514e-05
1.03514e-05
1.03514e-05
1.03514e-05
1.03514e-05
1.03515e-05
1.03515e-05
1.03515e-05
1.03515e-05
1.03516e-05
1.03516e-05
1.03516e-05
1.03516e-05
1.03517e-05
1.03517e-05
1.03518e-05
1.03518e-05
1.03518e-05
1.03519e-05
1.03519e-05
1.0352e-05
1.0352e-05
1.03521e-05
1.03521e-05
1.03522e-05
1.03512e-05
1.03512e-05
1.03512e-05
1.03512e-05
1.03512e-05
1.03512e-05
1.03512e-05
1.03512e-05
1.03512e-05
1.03512e-05
1.03512e-05
1.03512e-05
1.03511e-05
1.03511e-05
1.03511e-05
1.03511e-05
1.03511e-05
1.03511e-05
1.03511e-05
1.03511e-05
1.03511e-05
1.03511e-05
1.03511e-05
1.03511e-05
1.03511e-05
1.03511e-05
1.03511e-05
1.03511e-05
1.03511e-05
1.03511e-05
1.03511e-05
1.03511e-05
1.03511e-05
1.03511e-05
1.03511e-05
1.03511e-05
1.03511e-05
1.03511e-05
1.03511e-05
1.03512e-05
1.03512e-05
1.03512e-05
1.03512e-05
1.03512e-05
1.03512e-05
1.03512e-05
1.03512e-05
1.03513e-05
1.03513e-05
1.03513e-05
1.03513e-05
1.03513e-05
1.03514e-05
1.03514e-05
1.03514e-05
1.03514e-05
1.03514e-05
1.03515e-05
1.03515e-05
1.03515e-05
1.03515e-05
1.03516e-05
1.03516e-05
1.03516e-05
1.03517e-05
1.03517e-05
1.03517e-05
1.03518e-05
1.03518e-05
1.03519e-05
1.03519e-05
1.0352e-05
1.0352e-05
1.03521e-05
1.03521e-05
1.03522e-05
1.03522e-05
1.03523e-05
1.03524e-05
1.03524e-05
1.03525e-05
1.03526e-05
1.03527e-05
1.03528e-05
1.03529e-05
1.0353e-05
1.03531e-05
1.03532e-05
1.03533e-05
1.03534e-05
1.03535e-05
1.03537e-05
1.03538e-05
1.03539e-05
1.03541e-05
1.03543e-05
1.03544e-05
1.03546e-05
1.03548e-05
1.0355e-05
1.03552e-05
1.03554e-05
1.03557e-05
1.03559e-05
1.03562e-05
1.03565e-05
1.03568e-05
1.03571e-05
1.03574e-05
1.03578e-05
1.03521e-05
1.0352e-05
1.0352e-05
1.0352e-05
1.03519e-05
1.03519e-05
1.03519e-05
1.03518e-05
1.03518e-05
1.03518e-05
1.03517e-05
1.03517e-05
1.03517e-05
1.03516e-05
1.03516e-05
1.03516e-05
1.03516e-05
1.03515e-05
1.03515e-05
1.03515e-05
1.03515e-05
1.03515e-05
1.03514e-05
1.03514e-05
1.03514e-05
1.03514e-05
1.03514e-05
1.03514e-05
1.03514e-05
1.03514e-05
1.03515e-05
1.03515e-05
1.03515e-05
1.03515e-05
1.03515e-05
1.03516e-05
1.03516e-05
1.03516e-05
1.03517e-05
1.03517e-05
1.03518e-05
1.03519e-05
1.03519e-05
1.0352e-05
1.03521e-05
1.03521e-05
1.03522e-05
1.03523e-05
1.03524e-05
1.03525e-05
1.03526e-05
1.03527e-05
1.03528e-05
1.03529e-05
1.0353e-05
1.03531e-05
1.03532e-05
1.03534e-05
1.03535e-05
1.03536e-05
1.03538e-05
1.0354e-05
1.03541e-05
1.03543e-05
1.03545e-05
1.03547e-05
1.03549e-05
1.03551e-05
1.03553e-05
1.03556e-05
1.03558e-05
1.03561e-05
1.03563e-05
1.03566e-05
1.03569e-05
1.03572e-05
1.03576e-05
1.03579e-05
1.03583e-05
1.03587e-05
1.03591e-05
1.03595e-05
1.036e-05
1.03605e-05
1.0361e-05
1.03616e-05
1.03621e-05
1.03627e-05
1.03634e-05
1.03641e-05
1.03648e-05
1.03655e-05
1.03663e-05
1.03672e-05
1.03681e-05
1.0369e-05
1.037e-05
1.03711e-05
1.03722e-05
1.03733e-05
1.03746e-05
1.03759e-05
1.03772e-05
1.03787e-05
1.03802e-05
1.03818e-05
1.03835e-05
1.03853e-05
1.03872e-05
1.03892e-05
1.03557e-05
1.03556e-05
1.03555e-05
1.03553e-05
1.03551e-05
1.0355e-05
1.03548e-05
1.03547e-05
1.03545e-05
1.03544e-05
1.03542e-05
1.03541e-05
1.03539e-05
1.03538e-05
1.03537e-05
1.03536e-05
1.03535e-05
1.03534e-05
1.03533e-05
1.03532e-05
1.03531e-05
1.03531e-05
1.0353e-05
1.0353e-05
1.0353e-05
1.0353e-05
1.0353e-05
1.0353e-05
1.0353e-05
1.03531e-05
1.03531e-05
1.03532e-05
1.03533e-05
1.03534e-05
1.03536e-05
1.03537e-05
1.03539e-05
1.03541e-05
1.03543e-05
1.03546e-05
1.03549e-05
1.03552e-05
1.03555e-05
1.03559e-05
1.03562e-05
1.03566e-05
1.0357e-05
1.03575e-05
1.03579e-05
1.03584e-05
1.03588e-05
1.03593e-05
1.03599e-05
1.03604e-05
1.0361e-05
1.03616e-05
1.03622e-05
1.03629e-05
1.03636e-05
1.03644e-05
1.03652e-05
1.0366e-05
1.03669e-05
1.03678e-05
1.03688e-05
1.03698e-05
1.03709e-05
1.03721e-05
1.03733e-05
1.03745e-05
1.03759e-05
1.03773e-05
1.03788e-05
1.03803e-05
1.03819e-05
1.03837e-05
1.03855e-05
1.03874e-05
1.03894e-05
1.03915e-05
1.03938e-05
1.03962e-05
1.03987e-05
1.04013e-05
1.04041e-05
1.04071e-05
1.04103e-05
1.04136e-05
1.04171e-05
1.04209e-05
1.04248e-05
1.0429e-05
1.04334e-05
1.04381e-05
1.04431e-05
1.04483e-05
1.04538e-05
1.04597e-05
1.04658e-05
1.04724e-05
1.04792e-05
1.04865e-05
1.04942e-05
1.05022e-05
1.05108e-05
1.05198e-05
1.05293e-05
1.05394e-05
1.05501e-05
1.05614e-05
1.03719e-05
1.03712e-05
1.03705e-05
1.03698e-05
1.03691e-05
1.03684e-05
1.03677e-05
1.0367e-05
1.03664e-05
1.03657e-05
1.03651e-05
1.03645e-05
1.03639e-05
1.03633e-05
1.03628e-05
1.03623e-05
1.03619e-05
1.03615e-05
1.03611e-05
1.03608e-05
1.03605e-05
1.03603e-05
1.03601e-05
1.036e-05
1.03599e-05
1.036e-05
1.036e-05
1.03601e-05
1.03602e-05
1.03605e-05
1.03608e-05
1.03612e-05
1.03617e-05
1.03623e-05
1.03631e-05
1.03639e-05
1.03648e-05
1.03659e-05
1.03671e-05
1.03684e-05
1.03698e-05
1.03713e-05
1.0373e-05
1.03747e-05
1.03766e-05
1.03785e-05
1.03806e-05
1.03827e-05
1.03849e-05
1.03873e-05
1.03897e-05
1.03922e-05
1.03948e-05
1.03976e-05
1.04005e-05
1.04036e-05
1.04068e-05
1.04102e-05
1.04138e-05
1.04176e-05
1.04217e-05
1.04259e-05
1.04305e-05
1.04353e-05
1.04403e-05
1.04457e-05
1.04513e-05
1.04572e-05
1.04635e-05
1.04701e-05
1.0477e-05
1.04843e-05
1.0492e-05
1.05001e-05
1.05086e-05
1.05176e-05
1.05271e-05
1.05371e-05
1.05477e-05
1.05588e-05
1.05706e-05
1.0583e-05
1.05961e-05
1.061e-05
1.06247e-05
1.06402e-05
1.06566e-05
1.0674e-05
1.06924e-05
1.0712e-05
1.07327e-05
1.07546e-05
1.07779e-05
1.08026e-05
1.08287e-05
1.08563e-05
1.08856e-05
1.09165e-05
1.09492e-05
1.09837e-05
1.102e-05
1.10583e-05
1.10985e-05
1.11408e-05
1.11851e-05
1.12317e-05
1.12804e-05
1.13315e-05
1.13851e-05
1.14412e-05
1.0444e-05
1.04411e-05
1.04382e-05
1.04352e-05
1.04321e-05
1.04291e-05
1.0426e-05
1.0423e-05
1.042e-05
1.04171e-05
1.04143e-05
1.04117e-05
1.04091e-05
1.04066e-05
1.04043e-05
1.04022e-05
1.04002e-05
1.03984e-05
1.03968e-05
1.03953e-05
1.0394e-05
1.03929e-05
1.0392e-05
1.03914e-05
1.03911e-05
1.0391e-05
1.03912e-05
1.03915e-05
1.0392e-05
1.0393e-05
1.03943e-05
1.0396e-05
1.03981e-05
1.04007e-05
1.04038e-05
1.04074e-05
1.04115e-05
1.04161e-05
1.04214e-05
1.04271e-05
1.04335e-05
1.04404e-05
1.04478e-05
1.04558e-05
1.04643e-05
1.04733e-05
1.04827e-05
1.04927e-05
1.0503e-05
1.05139e-05
1.05251e-05
1.05369e-05
1.05491e-05
1.05619e-05
1.05753e-05
1.05894e-05
1.06043e-05
1.06199e-05
1.06365e-05
1.0654e-05
1.06726e-05
1.06922e-05
1.0713e-05
1.0735e-05
1.07583e-05
1.07828e-05
1.08088e-05
1.08362e-05
1.0865e-05
1.08954e-05
1.09275e-05
1.09612e-05
1.09968e-05
1.10342e-05
1.10735e-05
1.11149e-05
1.11585e-05
1.12042e-05
1.12523e-05
1.13028e-05
1.13557e-05
1.14113e-05
1.14695e-05
1.15305e-05
1.15943e-05
1.16612e-05
1.17312e-05
1.18045e-05
1.18813e-05
1.19617e-05
1.20461e-05
1.21345e-05
1.22274e-05
1.2325e-05
1.24274e-05
1.25351e-05
1.26482e-05
1.27669e-05
1.28916e-05
1.30222e-05
1.3159e-05
1.3302e-05
1.34512e-05
1.36065e-05
1.37679e-05
1.39351e-05
1.41081e-05
1.42865e-05
1.44701e-05
1.46588e-05
1.48522e-05
1.07384e-05
1.07264e-05
1.0714e-05
1.07015e-05
1.06888e-05
1.06761e-05
1.06635e-05
1.06511e-05
1.0639e-05
1.06273e-05
1.06159e-05
1.0605e-05
1.05947e-05
1.05849e-05
1.05757e-05
1.05672e-05
1.05594e-05
1.05523e-05
1.05459e-05
1.05402e-05
1.05354e-05
1.05313e-05
1.05282e-05
1.05262e-05
1.05257e-05
1.05261e-05
1.0527e-05
1.0529e-05
1.05324e-05
1.05374e-05
1.05441e-05
1.05526e-05
1.05631e-05
1.05756e-05
1.05904e-05
1.06075e-05
1.0627e-05
1.06489e-05
1.06733e-05
1.07003e-05
1.07297e-05
1.07615e-05
1.07958e-05
1.08322e-05
1.08709e-05
1.09116e-05
1.09542e-05
1.09988e-05
1.10452e-05
1.10935e-05
1.11436e-05
1.11957e-05
1.12499e-05
1.13063e-05
1.13653e-05
1.1427e-05
1.14917e-05
1.15596e-05
1.16309e-05
1.17057e-05
1.17841e-05
1.18664e-05
1.19526e-05
1.20428e-05
1.2137e-05
1.22354e-05
1.2338e-05
1.2445e-05
1.25565e-05
1.26727e-05
1.27937e-05
1.29198e-05
1.30511e-05
1.31879e-05
1.33304e-05
1.34788e-05
1.36331e-05
1.37936e-05
1.39602e-05
1.41329e-05
1.43117e-05
1.44965e-05
1.46871e-05
1.48832e-05
1.50848e-05
1.52915e-05
1.55032e-05
1.57198e-05
1.59412e-05
1.61673e-05
1.63984e-05
1.66344e-05
1.68759e-05
1.71231e-05
1.73766e-05
1.76369e-05
1.79048e-05
1.81807e-05
1.84655e-05
1.87596e-05
1.90637e-05
1.93781e-05
1.9703e-05
2.00383e-05
2.03839e-05
2.07392e-05
2.11033e-05
2.14752e-05
2.18535e-05
2.22364e-05
2.26221e-05
2.30084e-05
2.33933e-05
1.18339e-05
1.17903e-05
1.17457e-05
1.17002e-05
1.16542e-05
1.16082e-05
1.15626e-05
1.15178e-05
1.1474e-05
1.14316e-05
1.13906e-05
1.13513e-05
1.13138e-05
1.12784e-05
1.12453e-05
1.12146e-05
1.11866e-05
1.11613e-05
1.11388e-05
1.11192e-05
1.11024e-05
1.10889e-05
1.10794e-05
1.10755e-05
1.10761e-05
1.10788e-05
1.10852e-05
1.10967e-05
1.1114e-05
1.11377e-05
1.11683e-05
1.12065e-05
1.12527e-05
1.13074e-05
1.1371e-05
1.14437e-05
1.15256e-05
1.16169e-05
1.17172e-05
1.18264e-05
1.19438e-05
1.20689e-05
1.22008e-05
1.23388e-05
1.24823e-05
1.26305e-05
1.2783e-05
1.29394e-05
1.30994e-05
1.3263e-05
1.34302e-05
1.36013e-05
1.37766e-05
1.39569e-05
1.41428e-05
1.43346e-05
1.45329e-05
1.47379e-05
1.49495e-05
1.51678e-05
1.53927e-05
1.56238e-05
1.58607e-05
1.6103e-05
1.63503e-05
1.66021e-05
1.68581e-05
1.71183e-05
1.73825e-05
1.76508e-05
1.79234e-05
1.82007e-05
1.84832e-05
1.87713e-05
1.90658e-05
1.9367e-05
1.96755e-05
1.99916e-05
2.03156e-05
2.06474e-05
2.09869e-05
2.13336e-05
2.16869e-05
2.20457e-05
2.24089e-05
2.27751e-05
2.31426e-05
2.35098e-05
2.38748e-05
2.42359e-05
2.4591e-05
2.49386e-05
2.52769e-05
2.56045e-05
2.59202e-05
2.62231e-05
2.65125e-05
2.67881e-05
2.70497e-05
2.72975e-05
2.75322e-05
2.77543e-05
2.79642e-05
2.81622e-05
2.8349e-05
2.8525e-05
2.86908e-05
2.88468e-05
2.89935e-05
2.91315e-05
2.92611e-05
2.93828e-05
2.94971e-05
1.51744e-05
1.50708e-05
1.49632e-05
1.48523e-05
1.47384e-05
1.46217e-05
1.4503e-05
1.43833e-05
1.42642e-05
1.41466e-05
1.40314e-05
1.3919e-05
1.38098e-05
1.37043e-05
1.36032e-05
1.35073e-05
1.34174e-05
1.33341e-05
1.32579e-05
1.31895e-05
1.31291e-05
1.3077e-05
1.30332e-05
1.29996e-05
1.29808e-05
1.29796e-05
1.29856e-05
1.30016e-05
1.30319e-05
1.30787e-05
1.31436e-05
1.32283e-05
1.33342e-05
1.34628e-05
1.36152e-05
1.37914e-05
1.39914e-05
1.42145e-05
1.44602e-05
1.47272e-05
1.50137e-05
1.5317e-05
1.5634e-05
1.59614e-05
1.62958e-05
1.66342e-05
1.6974e-05
1.73129e-05
1.76497e-05
1.79836e-05
1.83144e-05
1.86425e-05
1.89685e-05
1.92934e-05
1.96189e-05
1.99468e-05
2.02788e-05
2.06162e-05
2.09596e-05
2.13095e-05
2.16657e-05
2.20278e-05
2.23951e-05
2.27661e-05
2.31392e-05
2.35126e-05
2.38841e-05
2.42518e-05
2.46135e-05
2.49673e-05
2.53114e-05
2.56444e-05
2.59649e-05
2.6272e-05
2.65652e-05
2.68441e-05
2.71087e-05
2.73592e-05
2.75958e-05
2.78191e-05
2.80298e-05
2.82287e-05
2.8416e-05
2.85923e-05
2.87581e-05
2.89138e-05
2.90598e-05
2.91968e-05
2.9325e-05
2.94451e-05
2.95575e-05
2.96628e-05
2.97615e-05
2.98544e-05
2.99421e-05
3.00256e-05
3.01058e-05
3.01838e-05
3.02604e-05
3.03366e-05
3.04131e-05
3.04937e-05
3.05781e-05
3.06618e-05
3.07453e-05
3.0829e-05
3.09133e-05
3.09976e-05
3.10819e-05
3.11663e-05
3.12511e-05
3.13365e-05
3.14224e-05
3.1509e-05
3.15961e-05
2.10099e-05
2.08478e-05
2.068e-05
2.05085e-05
2.03324e-05
2.01508e-05
1.99637e-05
1.97736e-05
1.95836e-05
1.93958e-05
1.92113e-05
1.90304e-05
1.88536e-05
1.86814e-05
1.85153e-05
1.83569e-05
1.8208e-05
1.80701e-05
1.79443e-05
1.78325e-05
1.77362e-05
1.76546e-05
1.7587e-05
1.75422e-05
1.7537e-05
1.75475e-05
1.75767e-05
1.76315e-05
1.77159e-05
1.7833e-05
1.79852e-05
1.81743e-05
1.8402e-05
1.86691e-05
1.89747e-05
1.93162e-05
1.96898e-05
2.00924e-05
2.0521e-05
2.09725e-05
2.14422e-05
2.19242e-05
2.24125e-05
2.2901e-05
2.3384e-05
2.38561e-05
2.4313e-05
2.47509e-05
2.51672e-05
2.55606e-05
2.59304e-05
2.62765e-05
2.65995e-05
2.69002e-05
2.718e-05
2.74416e-05
2.76872e-05
2.79169e-05
2.81317e-05
2.83338e-05
2.85244e-05
2.87038e-05
2.88723e-05
2.90302e-05
2.9178e-05
2.9316e-05
2.94448e-05
2.95647e-05
2.96764e-05
2.97805e-05
2.98775e-05
2.99683e-05
3.00537e-05
3.01346e-05
3.02121e-05
3.02871e-05
3.03606e-05
3.04335e-05
3.05063e-05
3.05815e-05
3.06603e-05
3.07384e-05
3.08158e-05
3.08931e-05
3.09709e-05
3.10491e-05
3.11273e-05
3.12056e-05
3.12842e-05
3.13633e-05
3.14429e-05
3.15231e-05
3.16039e-05
3.16854e-05
3.17676e-05
3.18503e-05
3.19336e-05
3.20173e-05
3.2101e-05
3.21846e-05
3.22683e-05
3.2349e-05
3.24248e-05
3.25e-05
3.2575e-05
3.26496e-05
3.27238e-05
3.27998e-05
3.28782e-05
3.29589e-05
3.30417e-05
3.31265e-05
3.32131e-05
3.33013e-05
3.3391e-05
3.34818e-05
2.80349e-05
2.79272e-05
2.78071e-05
2.76817e-05
2.75541e-05
2.7426e-05
2.72947e-05
2.71555e-05
2.70103e-05
2.68643e-05
2.67183e-05
2.65685e-05
2.64115e-05
2.62479e-05
2.60816e-05
2.59163e-05
2.57531e-05
2.55914e-05
2.54309e-05
2.52721e-05
2.5116e-05
2.49641e-05
2.48188e-05
2.46826e-05
2.45569e-05
2.44432e-05
2.43452e-05
2.42657e-05
2.4201e-05
2.41517e-05
2.41427e-05
2.41593e-05
2.41991e-05
2.42654e-05
2.43627e-05
2.44954e-05
2.46659e-05
2.48742e-05
2.51173e-05
2.53941e-05
2.57047e-05
2.60422e-05
2.63946e-05
2.6752e-05
2.71078e-05
2.74579e-05
2.77975e-05
2.81209e-05
2.84235e-05
2.87028e-05
2.89574e-05
2.91858e-05
2.93883e-05
2.95661e-05
2.97209e-05
2.98546e-05
2.99698e-05
3.00693e-05
3.01559e-05
3.02329e-05
3.03031e-05
3.03683e-05
3.04303e-05
3.04916e-05
3.05545e-05
3.06194e-05
3.06898e-05
3.07615e-05
3.08334e-05
3.09062e-05
3.09802e-05
3.10559e-05
3.11327e-05
3.121e-05
3.1288e-05
3.13666e-05
3.14458e-05
3.15255e-05
3.16056e-05
3.16861e-05
3.17668e-05
3.18476e-05
3.19282e-05
3.20083e-05
3.20877e-05
3.21668e-05
3.22439e-05
3.23162e-05
3.23878e-05
3.24594e-05
3.25308e-05
3.26019e-05
3.26733e-05
3.27468e-05
3.28224e-05
3.28999e-05
3.29793e-05
3.30603e-05
3.31428e-05
3.32266e-05
3.33113e-05
3.33968e-05
3.34828e-05
3.35689e-05
3.36549e-05
3.37409e-05
3.38268e-05
3.39124e-05
3.39974e-05
3.40837e-05
3.41722e-05
3.42634e-05
3.43574e-05
3.44547e-05
3.45543e-05
3.46558e-05
3.4759e-05
3.48637e-05
3.49699e-05
3.50774e-05
3.51859e-05
3.52955e-05
3.54059e-05
3.03834e-05
3.02779e-05
3.01723e-05
3.00676e-05
2.9969e-05
2.9872e-05
2.97663e-05
2.96603e-05
2.95585e-05
2.94613e-05
2.93705e-05
2.92819e-05
2.91951e-05
2.911e-05
2.90257e-05
2.89449e-05
2.88696e-05
2.88001e-05
2.87356e-05
2.86763e-05
2.86225e-05
2.8574e-05
2.85315e-05
2.84955e-05
2.84656e-05
2.84438e-05
2.84333e-05
2.8432e-05
2.84379e-05
2.84569e-05
2.84932e-05
2.8535e-05
2.85872e-05
2.86545e-05
2.87378e-05
2.88382e-05
2.89545e-05
2.90812e-05
2.92158e-05
2.93638e-05
2.95243e-05
2.96796e-05
2.98288e-05
2.99769e-05
3.01233e-05
3.02647e-05
3.03992e-05
3.05271e-05
3.06503e-05
3.07664e-05
3.08798e-05
3.09904e-05
3.10956e-05
3.11949e-05
3.12891e-05
3.13786e-05
3.14643e-05
3.15468e-05
3.16266e-05
3.17046e-05
3.1781e-05
3.18554e-05
3.19272e-05
3.19979e-05
3.2069e-05
3.214e-05
3.22066e-05
3.22719e-05
3.23384e-05
3.24063e-05
3.24754e-05
3.2545e-05
3.26163e-05
3.26902e-05
3.27665e-05
3.28448e-05
3.29246e-05
3.30058e-05
3.30879e-05
3.31705e-05
3.32535e-05
3.33363e-05
3.34189e-05
3.35014e-05
3.35836e-05
3.36653e-05
3.37464e-05
3.38282e-05
3.39118e-05
3.39972e-05
3.40849e-05
3.41753e-05
3.42683e-05
3.43631e-05
3.44594e-05
3.45571e-05
3.46562e-05
3.47564e-05
3.48576e-05
3.49597e-05
3.50626e-05
3.51663e-05
3.52707e-05
3.5376e-05
3.54824e-05
3.559e-05
3.56991e-05
3.581e-05
3.59231e-05
3.60388e-05
3.6157e-05
3.62775e-05
3.64001e-05
3.65244e-05
3.66501e-05
3.6777e-05
3.6905e-05
3.70341e-05
3.71643e-05
3.72956e-05
3.74279e-05
3.75614e-05
3.7696e-05
3.16643e-05
3.15687e-05
3.14739e-05
3.13804e-05
3.1294e-05
3.12087e-05
3.11133e-05
3.10178e-05
3.09255e-05
3.08387e-05
3.07585e-05
3.06805e-05
3.06042e-05
3.05299e-05
3.04568e-05
3.03863e-05
3.03202e-05
3.02589e-05
3.02025e-05
3.01517e-05
3.01068e-05
3.00681e-05
3.00355e-05
3.0009e-05
2.99882e-05
2.99768e-05
2.99768e-05
2.99817e-05
2.99948e-05
3.00184e-05
3.00528e-05
3.00959e-05
3.01477e-05
3.02092e-05
3.02816e-05
3.03657e-05
3.04605e-05
3.05632e-05
3.06729e-05
3.07929e-05
3.09219e-05
3.10469e-05
3.11741e-05
3.13056e-05
3.14396e-05
3.15754e-05
3.17105e-05
3.18432e-05
3.19746e-05
3.20998e-05
3.22139e-05
3.23229e-05
3.24284e-05
3.2529e-05
3.26256e-05
3.27203e-05
3.28133e-05
3.29042e-05
3.29924e-05
3.30776e-05
3.31598e-05
3.32388e-05
3.33152e-05
3.33902e-05
3.34643e-05
3.35375e-05
3.36109e-05
3.36861e-05
3.3764e-05
3.38448e-05
3.39289e-05
3.40166e-05
3.41072e-05
3.41998e-05
3.4294e-05
3.43897e-05
3.44864e-05
3.4584e-05
3.46824e-05
3.47814e-05
3.48809e-05
3.49812e-05
3.50822e-05
3.51842e-05
3.52873e-05
3.53917e-05
3.54979e-05
3.56062e-05
3.57166e-05
3.5829e-05
3.59434e-05
3.60594e-05
3.61767e-05
3.62951e-05
3.64147e-05
3.65352e-05
3.66568e-05
3.67794e-05
3.69031e-05
3.70278e-05
3.71538e-05
3.72811e-05
3.74099e-05
3.75401e-05
3.76721e-05
3.78057e-05
3.79412e-05
3.80785e-05
3.82174e-05
3.83579e-05
3.84997e-05
3.86427e-05
3.87866e-05
3.89315e-05
3.90773e-05
3.9224e-05
3.93716e-05
3.95201e-05
3.96696e-05
3.98201e-05
3.99717e-05
4.01243e-05
4.0278e-05
3.27511e-05
3.2672e-05
3.25929e-05
3.2517e-05
3.24459e-05
3.23737e-05
3.22971e-05
3.22185e-05
3.21416e-05
3.20701e-05
3.2004e-05
3.19411e-05
3.18807e-05
3.1822e-05
3.17643e-05
3.17083e-05
3.16552e-05
3.1606e-05
3.15615e-05
3.15217e-05
3.14872e-05
3.14578e-05
3.14333e-05
3.14131e-05
3.13973e-05
3.13907e-05
3.13916e-05
3.13968e-05
3.14091e-05
3.14304e-05
3.14602e-05
3.14979e-05
3.15434e-05
3.15974e-05
3.1661e-05
3.17345e-05
3.18165e-05
3.1906e-05
3.2004e-05
3.21092e-05
3.22151e-05
3.23295e-05
3.24525e-05
3.25828e-05
3.27141e-05
3.28458e-05
3.29785e-05
3.31112e-05
3.32431e-05
3.33723e-05
3.3499e-05
3.36251e-05
3.37511e-05
3.38769e-05
3.40017e-05
3.41237e-05
3.42422e-05
3.43564e-05
3.44663e-05
3.45719e-05
3.46735e-05
3.4772e-05
3.48682e-05
3.49631e-05
3.50577e-05
3.5153e-05
3.52501e-05
3.53497e-05
3.54521e-05
3.55574e-05
3.56656e-05
3.5776e-05
3.58883e-05
3.60021e-05
3.61171e-05
3.62333e-05
3.63506e-05
3.64689e-05
3.65882e-05
3.67088e-05
3.68305e-05
3.69537e-05
3.70783e-05
3.72044e-05
3.7332e-05
3.74612e-05
3.7592e-05
3.77241e-05
3.78574e-05
3.79918e-05
3.81271e-05
3.82633e-05
3.84003e-05
3.85382e-05
3.8677e-05
3.88168e-05
3.89576e-05
3.90994e-05
3.92423e-05
3.93864e-05
3.95317e-05
3.96782e-05
3.98259e-05
3.99748e-05
4.01248e-05
4.02758e-05
4.04278e-05
4.05807e-05
4.07342e-05
4.08884e-05
4.10431e-05
4.11984e-05
4.13542e-05
4.15106e-05
4.16675e-05
4.18249e-05
4.1983e-05
4.21415e-05
4.23007e-05
4.24603e-05
4.26205e-05
4.27812e-05
4.29422e-05
4.31037e-05
4.32654e-05
3.38752e-05
3.38149e-05
3.37547e-05
3.36974e-05
3.36429e-05
3.35879e-05
3.35306e-05
3.34714e-05
3.34132e-05
3.33583e-05
3.33068e-05
3.32579e-05
3.32114e-05
3.31665e-05
3.31227e-05
3.30797e-05
3.30382e-05
3.29991e-05
3.29633e-05
3.29316e-05
3.29045e-05
3.28818e-05
3.28629e-05
3.28473e-05
3.28355e-05
3.28313e-05
3.28321e-05
3.28367e-05
3.28478e-05
3.28667e-05
3.28933e-05
3.29271e-05
3.29687e-05
3.3019e-05
3.30786e-05
3.31473e-05
3.32263e-05
3.33133e-05
3.34027e-05
3.35018e-05
3.36123e-05
3.37341e-05
3.38641e-05
3.39989e-05
3.41371e-05
3.42788e-05
3.44248e-05
3.45746e-05
3.47273e-05
3.48824e-05
3.50394e-05
3.51976e-05
3.53558e-05
3.55125e-05
3.56661e-05
3.58153e-05
3.59596e-05
3.60986e-05
3.62325e-05
3.63618e-05
3.6487e-05
3.66091e-05
3.67291e-05
3.68477e-05
3.6966e-05
3.70849e-05
3.72049e-05
3.73266e-05
3.74502e-05
3.75758e-05
3.77031e-05
3.78321e-05
3.79627e-05
3.80945e-05
3.82276e-05
3.83619e-05
3.84974e-05
3.8634e-05
3.87719e-05
3.89109e-05
3.90512e-05
3.91927e-05
3.93354e-05
3.94791e-05
3.96238e-05
3.97693e-05
3.99156e-05
4.00624e-05
4.02098e-05
4.03577e-05
4.05061e-05
4.06551e-05
4.08046e-05
4.09547e-05
4.11055e-05
4.12569e-05
4.1409e-05
4.15618e-05
4.17152e-05
4.18693e-05
4.2024e-05
4.21792e-05
4.23349e-05
4.24909e-05
4.26473e-05
4.28039e-05
4.29607e-05
4.31177e-05
4.32747e-05
4.34318e-05
4.3589e-05
4.37462e-05
4.39035e-05
4.40608e-05
4.42182e-05
4.43755e-05
4.45327e-05
4.46899e-05
4.48468e-05
4.50036e-05
4.51602e-05
4.53163e-05
4.54721e-05
4.56274e-05
4.57822e-05
3.51715e-05
3.51328e-05
3.50954e-05
3.50588e-05
3.50236e-05
3.49883e-05
3.49513e-05
3.49128e-05
3.48749e-05
3.48393e-05
3.48053e-05
3.47726e-05
3.47415e-05
3.47117e-05
3.46827e-05
3.4654e-05
3.4626e-05
3.45992e-05
3.45744e-05
3.45526e-05
3.45343e-05
3.45194e-05
3.45075e-05
3.44983e-05
3.44929e-05
3.44929e-05
3.44955e-05
3.45028e-05
3.45161e-05
3.45361e-05
3.45629e-05
3.45968e-05
3.46386e-05
3.4689e-05
3.47481e-05
3.48175e-05
3.4898e-05
3.49804e-05
3.5072e-05
3.51767e-05
3.52957e-05
3.54265e-05
3.55649e-05
3.57093e-05
3.58599e-05
3.60178e-05
3.61834e-05
3.63558e-05
3.65338e-05
3.67157e-05
3.68997e-05
3.70839e-05
3.72666e-05
3.74462e-05
3.76215e-05
3.77917e-05
3.79564e-05
3.81155e-05
3.82691e-05
3.84178e-05
3.8562e-05
3.87026e-05
3.88404e-05
3.89763e-05
3.91112e-05
3.92459e-05
3.9381e-05
3.9517e-05
3.96542e-05
3.97929e-05
3.9933e-05
4.00744e-05
4.02172e-05
4.03611e-05
4.0506e-05
4.06519e-05
4.07988e-05
4.09464e-05
4.10949e-05
4.12442e-05
4.13942e-05
4.15448e-05
4.16959e-05
4.18475e-05
4.19994e-05
4.21515e-05
4.23037e-05
4.24561e-05
4.26086e-05
4.27612e-05
4.29139e-05
4.30667e-05
4.32196e-05
4.33727e-05
4.35258e-05
4.36791e-05
4.38324e-05
4.39857e-05
4.4139e-05
4.42923e-05
4.44454e-05
4.45984e-05
4.47511e-05
4.49036e-05
4.50558e-05
4.52075e-05
4.53589e-05
4.55099e-05
4.56605e-05
4.58105e-05
4.59601e-05
4.61092e-05
4.62576e-05
4.64055e-05
4.65527e-05
4.66991e-05
4.68448e-05
4.69897e-05
4.71336e-05
4.72767e-05
4.74187e-05
4.75596e-05
4.76994e-05
4.78381e-05
4.79755e-05