/*--------------------------------*- C++ -*----------------------------------*\
| =========                 |                                                 |
| \\      /  F ield         | OpenFOAM: The Open Source CFD Toolbox           |
|  \\    /   O peration     | Version:  v1706                                 |
|   \\  /    A nd           | Web:      www.OpenFOAM.com                      |
|    \\/     M anipulation  |                                                 |
\*---------------------------------------------------------------------------*/
FoamFile
{
    version     2.0;
    format      ascii;
    class       volScalarField;
    location    "4e-06";
    object      p;
}
// * * * * * * * * * * * * * * * * * * * * * * * * * * * * * * * * * * * * * //

dimensions      [1 -1 -2 0 0 0 0];


internalField   nonuniform List<scalar> 
29871
(
21.9139
21.9139
21.9139
21.9139
21.9139
21.9139
21.9139
21.9139
21.9139
21.9139
21.9139
21.9139
21.9139
21.9139
21.9139
21.9139
21.9139
21.9139
21.9139
21.9139
21.9139
21.9139
21.9139
21.9139
21.9139
21.9139
21.9139
21.9139
21.9139
21.9139
21.9139
21.9139
21.9139
21.9139
21.9139
21.9139
21.9139
21.9139
21.9139
21.9139
21.9139
21.9139
21.9139
21.9139
21.9139
21.9139
21.9139
21.9139
21.9139
21.9139
21.9139
21.9139
21.9139
21.9139
21.9139
21.9139
21.9139
21.9139
21.9139
21.9139
21.9139
21.9139
21.9139
21.9139
21.9139
21.9139
21.9139
21.9139
21.9139
21.9139
21.9139
21.9139
21.9139
21.9139
21.9139
21.9139
21.9139
21.9139
21.9139
21.9139
21.9139
21.9139
21.9139
21.9139
21.9139
21.9139
21.9139
21.9139
21.9139
21.9139
21.9139
21.9139
21.9139
21.9139
21.9139
21.9139
21.9139
21.9139
21.9139
21.9139
21.9139
21.9139
21.9139
21.9139
21.9139
21.9139
21.9139
21.9139
21.9139
21.9139
21.9139
21.9139
21.9139
21.9139
21.9139
21.9139
21.9139
21.9139
21.9139
21.9139
21.9139
21.9139
21.9139
21.9139
21.9139
21.9139
21.9139
21.9139
21.9139
21.9139
21.9139
21.9139
21.9139
21.9139
21.9139
21.9139
21.9139
21.9139
21.9139
21.9139
21.9139
21.9139
21.9139
21.9139
21.9139
21.9139
21.9139
21.9139
21.9139
21.9139
21.9139
21.9139
21.9139
21.9139
21.9139
21.9139
21.9139
21.9139
21.9139
21.9139
21.9139
21.9139
21.9139
21.9139
21.9139
21.9139
21.9139
21.9139
21.9139
21.9139
21.9139
21.9139
21.9139
21.9139
21.9139
21.9139
21.9139
21.9139
21.9139
21.9139
21.9139
21.9139
21.9139
21.9139
21.9139
21.9139
21.9139
21.9139
21.9139
21.9139
21.9139
21.9139
21.9139
21.9139
21.9139
21.9139
21.9139
21.9139
21.9139
21.9139
21.9139
21.9139
21.9139
21.9139
21.9139
21.9139
21.9139
21.9139
21.9139
21.9139
21.9139
21.9139
21.9139
21.9139
21.9139
21.9139
21.9139
21.9139
21.9139
21.9139
21.9139
21.9139
21.9139
21.9139
21.9139
21.9139
21.9139
21.9139
21.9139
21.9139
21.9139
21.9139
21.9139
21.9139
21.9139
21.9139
21.9139
21.9139
21.9139
21.9139
21.9139
21.9139
21.9139
21.9139
21.9139
21.9139
21.9139
21.9139
21.9139
21.9139
21.9139
21.9139
21.9139
21.9139
21.9139
21.9139
21.9139
21.9139
21.9139
21.9139
21.9139
21.9139
21.9139
21.9139
21.9139
21.9139
21.9139
21.9139
21.9139
21.9139
21.9139
21.9139
21.9139
21.9139
21.9139
21.9139
21.9139
21.9139
21.9139
21.9139
21.9139
21.9139
21.9139
21.9139
21.9139
21.9139
21.9139
21.9139
21.9139
21.9139
21.9139
21.9139
21.9139
21.9139
21.9139
21.9139
21.9139
21.9139
21.9139
21.9139
21.9139
21.9139
21.9139
21.9139
21.9139
21.9139
21.9139
21.9139
21.9139
21.9139
21.9139
21.9139
21.9139
21.9139
21.9139
21.9139
21.9139
21.9139
21.9139
21.9139
21.9139
21.9139
21.9139
21.9139
21.9139
21.9139
21.9139
21.9139
21.9139
21.9139
21.9139
21.9139
21.9139
21.9139
21.9139
21.9139
21.9139
21.9139
21.9139
21.9139
21.9139
21.9139
21.9139
21.9139
21.9139
21.9139
21.9139
21.9139
21.9139
21.9139
21.9139
21.9139
21.9139
21.9139
21.9139
21.9139
21.9139
21.9139
21.9139
21.9139
21.9139
21.9139
21.9139
21.9139
21.9139
21.9139
21.9139
21.9139
21.9139
21.9139
21.9139
21.9139
21.9139
21.9139
21.9139
21.9139
21.9139
21.9139
21.9139
21.9139
21.9139
21.9139
21.9139
21.9139
21.9139
21.9139
21.9139
21.9139
21.9139
21.9139
21.9139
21.9139
21.9139
21.9139
21.9139
21.9139
21.9139
21.9139
21.9139
21.9139
21.9139
21.9139
21.9139
21.9139
21.9139
21.9139
21.9139
21.9139
21.9139
21.9139
21.9139
21.9139
21.9139
21.9139
21.9139
21.9139
21.9139
21.9139
21.9139
21.9139
21.9139
21.9139
21.9139
21.9139
21.9139
21.9139
21.9139
21.9139
21.9139
21.9139
21.9139
21.9139
21.9139
21.9139
21.9139
21.9139
21.9139
21.9139
21.9139
21.9139
21.9139
21.9139
21.9139
21.9139
21.9139
21.9139
21.9139
21.9139
21.9139
21.9139
21.9139
21.9139
21.9139
21.9139
21.9139
21.9139
21.9139
21.9139
21.9139
21.9139
21.9139
21.9139
21.9139
21.9139
21.9139
21.9139
21.9139
21.9139
21.9139
21.9139
21.9139
21.9139
21.9139
21.9139
21.9139
21.9139
21.9139
21.9139
21.9139
21.9139
21.9139
21.9139
21.9139
21.9139
21.9139
21.9139
21.9139
21.9139
21.9139
21.9139
21.9139
21.9139
21.9139
21.9139
21.9139
21.9139
21.9139
21.9139
21.9139
21.9139
21.9139
21.9139
21.9139
21.9139
21.9139
21.9139
21.9139
21.9139
21.9139
21.914
21.914
21.914
21.914
21.914
21.914
21.914
21.914
21.914
21.914
21.914
21.914
21.914
21.914
21.914
21.914
21.914
21.914
21.914
21.914
21.9139
21.9139
21.9139
21.9139
21.9139
21.9139
21.9139
21.9139
21.9139
21.9139
21.9139
21.9139
21.9139
21.9139
21.9139
21.9139
21.9139
21.9139
21.9139
21.9139
21.9139
21.9139
21.9139
21.9139
21.9139
21.9139
21.9139
21.9139
21.9139
21.9139
21.9139
21.9139
21.9139
21.9139
21.9139
21.9139
21.9139
21.9139
21.9139
21.9139
21.9139
21.9139
21.9139
21.9139
21.9139
21.9139
21.9139
21.9139
21.9139
21.9139
21.9139
21.914
21.914
21.914
21.914
21.914
21.914
21.914
21.914
21.914
21.914
21.914
21.914
21.914
21.914
21.914
21.914
21.914
21.914
21.914
21.914
21.914
21.914
21.9141
21.9141
21.9141
21.9141
21.9141
21.9141
21.9141
21.9141
21.9141
21.9141
21.9141
21.9141
21.9142
21.9142
21.9142
21.9142
21.9142
21.9142
21.9142
21.9143
21.9143
21.9143
21.9143
21.9143
21.9144
21.9144
21.9144
21.9144
21.9145
21.9145
21.9145
21.9146
21.9146
21.9146
21.9141
21.9141
21.9141
21.9141
21.9141
21.9141
21.914
21.914
21.914
21.914
21.914
21.914
21.914
21.914
21.914
21.914
21.914
21.914
21.914
21.914
21.914
21.914
21.914
21.914
21.914
21.914
21.914
21.914
21.914
21.914
21.914
21.914
21.914
21.914
21.914
21.914
21.914
21.914
21.914
21.914
21.914
21.914
21.914
21.914
21.914
21.9141
21.9141
21.9141
21.9141
21.9141
21.9141
21.9141
21.9141
21.9142
21.9142
21.9142
21.9142
21.9142
21.9142
21.9142
21.9143
21.9143
21.9143
21.9143
21.9143
21.9144
21.9144
21.9144
21.9144
21.9145
21.9145
21.9145
21.9146
21.9146
21.9146
21.9147
21.9147
21.9148
21.9148
21.9148
21.9149
21.9149
21.915
21.915
21.9151
21.9152
21.9152
21.9153
21.9154
21.9155
21.9155
21.9156
21.9157
21.9158
21.9159
21.916
21.9161
21.9162
21.9163
21.9164
21.9166
21.9167
21.9169
21.917
21.9172
21.9173
21.9175
21.9177
21.9179
21.9181
21.9147
21.9147
21.9147
21.9147
21.9146
21.9146
21.9146
21.9146
21.9145
21.9145
21.9145
21.9144
21.9144
21.9144
21.9144
21.9144
21.9143
21.9143
21.9143
21.9143
21.9143
21.9143
21.9142
21.9142
21.9142
21.9142
21.9142
21.9142
21.9142
21.9142
21.9142
21.9142
21.9143
21.9143
21.9143
21.9143
21.9143
21.9144
21.9144
21.9144
21.9145
21.9145
21.9145
21.9146
21.9146
21.9147
21.9147
21.9148
21.9149
21.9149
21.915
21.915
21.9151
21.9152
21.9153
21.9153
21.9154
21.9155
21.9156
21.9157
21.9158
21.9159
21.916
21.9161
21.9163
21.9164
21.9165
21.9167
21.9168
21.917
21.9171
21.9173
21.9175
21.9177
21.9179
21.9181
21.9183
21.9185
21.9187
21.919
21.9192
21.9195
21.9198
21.9201
21.9204
21.9208
21.9211
21.9215
21.9219
21.9223
21.9227
21.9232
21.9237
21.9242
21.9247
21.9253
21.9259
21.9265
21.9271
21.9278
21.9286
21.9294
21.9302
21.9311
21.932
21.933
21.934
21.9351
21.9363
21.9375
21.9176
21.9175
21.9174
21.9173
21.9172
21.917
21.9169
21.9168
21.9167
21.9166
21.9164
21.9163
21.9162
21.9161
21.916
21.9159
21.9159
21.9158
21.9157
21.9156
21.9156
21.9155
21.9155
21.9154
21.9154
21.9154
21.9154
21.9154
21.9154
21.9154
21.9155
21.9155
21.9156
21.9157
21.9158
21.9159
21.916
21.9161
21.9163
21.9165
21.9167
21.9169
21.9171
21.9173
21.9176
21.9179
21.9181
21.9184
21.9188
21.9191
21.9194
21.9197
21.9201
21.9205
21.9209
21.9213
21.9217
21.9222
21.9226
21.9231
21.9236
21.9242
21.9248
21.9254
21.926
21.9267
21.9274
21.9281
21.9289
21.9297
21.9305
21.9314
21.9324
21.9334
21.9344
21.9355
21.9367
21.9379
21.9392
21.9405
21.942
21.9435
21.9451
21.9469
21.9487
21.9506
21.9526
21.9548
21.9571
21.9595
21.962
21.9647
21.9675
21.9705
21.9737
21.977
21.9805
21.9843
21.9882
21.9923
21.9966
22.0011
22.0059
22.011
22.0163
22.0219
22.0278
22.0341
22.0406
22.0476
21.9305
21.93
21.9295
21.929
21.9285
21.9279
21.9274
21.9268
21.9263
21.9258
21.9253
21.9248
21.9243
21.9239
21.9235
21.9231
21.9227
21.9223
21.922
21.9217
21.9215
21.9213
21.9211
21.921
21.9209
21.9209
21.9209
21.9209
21.921
21.9211
21.9213
21.9216
21.9219
21.9223
21.9228
21.9233
21.924
21.9247
21.9255
21.9264
21.9274
21.9284
21.9295
21.9307
21.932
21.9333
21.9347
21.9362
21.9377
21.9393
21.941
21.9427
21.9445
21.9464
21.9483
21.9504
21.9526
21.9549
21.9574
21.96
21.9628
21.9657
21.9688
21.972
21.9755
21.9791
21.9829
21.987
21.9912
21.9956
22.0003
22.0052
22.0104
22.0158
22.0215
22.0276
22.0339
22.0405
22.0476
22.055
22.0628
22.071
22.0797
22.0888
22.0985
22.1088
22.1196
22.131
22.1431
22.1558
22.1694
22.1837
22.1988
22.2148
22.2317
22.2496
22.2685
22.2885
22.3096
22.3319
22.3556
22.3805
22.4069
22.4348
22.4643
22.4956
22.5288
22.5639
22.6012
22.6409
21.986
21.9838
21.9815
21.9792
21.9768
21.9744
21.972
21.9697
21.9674
21.9652
21.963
21.9609
21.9589
21.957
21.9552
21.9536
21.952
21.9506
21.9493
21.9482
21.9472
21.9464
21.9458
21.9453
21.9451
21.9451
21.9452
21.9455
21.946
21.9468
21.9478
21.9492
21.9509
21.953
21.9554
21.9583
21.9615
21.9651
21.9691
21.9735
21.9784
21.9836
21.9893
21.9953
22.0018
22.0085
22.0156
22.0231
22.0308
22.0389
22.0473
22.0561
22.0653
22.0749
22.085
22.0956
22.1067
22.1185
22.131
22.1441
22.158
22.1727
22.1883
22.2047
22.222
22.2403
22.2596
22.2798
22.3012
22.3237
22.3474
22.3724
22.3987
22.4265
22.4558
22.4866
22.5192
22.5537
22.5901
22.6286
22.6693
22.7125
22.7582
22.8066
22.858
22.9125
22.9704
23.0319
23.0973
23.1668
23.2407
23.3193
23.4029
23.4917
23.5861
23.6863
23.7927
23.9054
24.0249
24.1513
24.2848
24.4258
24.5745
24.7312
24.896
25.0694
25.2517
25.4432
25.6444
25.8559
22.2364
22.2268
22.2169
22.2068
22.1964
22.186
22.1756
22.1653
22.1551
22.1451
22.1355
22.1261
22.1172
22.1087
22.1007
22.0932
22.0862
22.0798
22.074
22.0688
22.0642
22.0603
22.0571
22.0547
22.0534
22.0532
22.0535
22.0545
22.0563
22.0594
22.0637
22.0695
22.0767
22.0855
22.0959
22.1081
22.1221
22.138
22.1557
22.1754
22.197
22.2206
22.246
22.2733
22.3023
22.3331
22.3655
22.3994
22.435
22.472
22.5107
22.551
22.593
22.6371
22.6833
22.7319
22.7833
22.8376
22.8951
22.9561
23.0208
23.0896
23.1626
23.24
23.3222
23.4093
23.5016
23.5994
23.7028
23.8122
23.9279
24.0501
24.1793
24.3158
24.46
24.6122
24.7728
24.9423
25.1211
25.3095
25.5079
25.7168
25.9366
26.1678
26.4109
26.6666
26.9354
27.2182
27.5158
27.8292
28.1595
28.508
28.8758
29.2645
29.6755
30.1103
30.5705
31.0575
31.5731
32.1185
32.6953
33.3049
33.9485
34.6274
35.3428
36.0961
36.8885
37.7215
38.5968
39.5166
40.4834
23.2591
23.2182
23.1762
23.1332
23.0897
23.046
23.0027
22.9601
22.9183
22.8778
22.8385
22.8008
22.7648
22.7307
22.6988
22.669
22.6416
22.6166
22.5941
22.5742
22.5568
22.5424
22.5311
22.5235
22.5209
22.5216
22.5245
22.5308
22.5419
22.5583
22.5804
22.6088
22.644
22.6864
22.7364
22.7944
22.8608
22.9359
23.0198
23.1128
23.2148
23.3257
23.4454
23.5736
23.7102
23.8549
24.0074
24.1676
24.3355
24.511
24.6942
24.8857
25.0859
25.2956
25.5159
25.7476
25.9917
26.2492
26.5207
26.8073
27.1097
27.4285
27.7644
28.118
28.4899
28.8807
29.2913
29.7224
30.1751
30.6506
31.15
31.6749
32.2268
32.8075
33.4186
34.0621
34.7396
35.4531
36.2042
36.9947
37.8263
38.7008
39.6201
40.5863
41.6016
42.6688
43.7911
44.9725
46.2178
47.5326
48.9238
50.3995
51.9692
53.6438
55.436
57.3601
59.4319
61.6693
64.0917
66.7202
69.5775
72.6876
76.0756
79.7676
83.7898
88.1681
92.9276
98.0915
103.68
109.711
116.196
123.141
130.545
27.3263
27.1634
26.9962
26.8257
26.6532
26.4804
26.3091
26.1407
25.9764
25.8171
25.6633
25.5157
25.3752
25.2426
25.1187
25.0041
24.8991
24.8044
24.7201
24.6462
24.583
24.5315
24.4941
24.4772
24.4772
24.486
24.5072
24.5465
24.6066
24.6899
24.7985
24.9348
25.1012
25.2996
25.5316
25.7987
26.102
26.4425
26.8205
27.2355
27.6865
28.1719
28.6899
29.2383
29.8152
30.4188
31.0477
31.701
32.3782
33.0795
33.8058
34.559
35.3418
36.158
37.0119
37.9075
38.8486
39.839
40.8821
41.9811
43.1391
44.359
45.6436
46.9962
48.4201
49.9199
51.5007
53.169
54.9325
56.8003
58.7836
60.8949
63.149
65.5624
68.1533
70.9417
73.9491
77.1985
80.7138
84.52
88.6421
93.1052
97.9332
103.149
108.772
114.82
121.306
128.237
135.615
143.436
151.686
160.343
169.376
178.747
188.408
198.305
208.378
218.562
228.79
238.997
249.131
259.127
268.914
278.424
287.595
296.373
304.708
312.56
319.898
326.701
332.956
338.661
343.823
42.2991
41.8051
41.2919
40.7628
40.2194
39.6638
39.1005
38.5359
37.9765
37.4273
36.8914
36.3711
35.8681
35.3845
34.9232
34.4875
34.0805
33.7045
33.3614
33.0529
32.7804
32.5446
32.3459
32.189
32.0915
32.069
32.0873
32.1464
32.262
32.4463
32.7079
33.055
33.496
34.0396
34.6931
35.4618
36.3495
37.3599
38.4964
39.7612
41.1538
42.671
44.3072
46.055
47.9071
49.8566
51.8984
54.0294
56.2505
58.566
60.9834
63.5137
66.1711
68.9741
71.946
75.1158
78.517
82.1814
86.1389
90.419
95.0526
100.07
105.498
111.359
117.67
124.44
131.672
139.362
147.497
156.054
165.003
174.304
183.914
193.781
203.849
214.059
224.351
234.663
244.931
255.092
265.096
274.885
284.392
293.551
302.304
310.603
318.405
325.678
332.398
338.554
344.143
349.174
353.668
357.654
361.169
364.266
367.001
369.438
371.633
373.642
375.519
377.44
379.43
381.245
382.912
384.48
385.992
387.462
388.908
390.358
391.833
393.343
394.895
396.488
398.118
86.7897
85.3016
83.7447
82.1483
80.5168
78.8432
77.1319
75.4077
73.704
72.0453
70.4418
68.8951
67.4059
65.9782
64.6204
63.3443
62.1615
61.0793
60.1017
59.2363
58.4947
57.8661
57.3263
56.941
56.8247
56.8553
57.0129
57.3257
57.8364
58.5761
59.5728
60.8576
62.4637
64.4237
66.7675
69.522
72.7128
76.369
80.5286
85.2322
90.513
96.3918
102.88
109.983
117.698
126.011
134.895
144.307
154.193
164.496
175.145
186.057
197.147
208.328
219.526
230.723
241.866
252.838
263.585
274.101
284.342
294.219
303.648
312.565
320.914
328.648
335.737
342.17
347.952
353.102
357.652
361.644
365.133
368.183
370.859
373.23
375.363
377.311
379.123
380.92
382.793
384.502
386.069
387.543
388.97
390.376
391.771
393.175
394.604
396.068
397.571
399.109
400.674
402.257
403.845
405.422
406.966
408.46
409.885
411.208
412.448
413.465
414.117
414.731
415.34
415.935
416.517
417.133
417.813
418.552
419.339
420.165
421.014
421.873
422.723
423.546
246.381
245.129
243.291
241.027
238.569
236.043
233.319
230.143
226.609
222.995
219.336
215.449
211.194
206.622
201.943
197.317
192.757
188.215
183.679
179.174
174.742
170.438
166.341
162.521
159.006
155.803
152.98
150.607
148.586
146.852
145.801
145.514
145.882
146.697
148.148
150.394
153.549
157.698
162.869
169.13
176.674
185.569
195.679
206.833
218.908
231.827
245.448
259.511
273.713
287.774
301.35
314.072
325.673
335.988
344.917
352.438
358.62
363.596
367.565
370.765
373.394
375.533
377.287
378.9
380.535
382.148
383.864
385.515
387.044
388.499
389.924
391.357
392.809
394.288
395.809
397.373
398.978
400.616
402.276
403.936
405.577
407.172
408.694
410.115
411.438
412.655
413.706
414.406
415.059
415.71
416.358
416.996
417.633
418.316
419.051
419.827
420.632
421.452
422.271
423.072
423.838
424.551
425.192
425.745
426.198
426.556
426.821
426.984
427.042
427.091
427.185
427.326
427.52
427.778
428.077
428.39
428.702
429.003
429.279
429.521
429.721
429.871
429.969
353.566
351.583
349.681
347.973
346.71
345.38
343.421
341.258
339.364
337.769
336.527
335.452
334.137
332.721
331.211
329.744
328.497
327.485
326.567
325.643
324.7
323.751
322.853
322.052
321.343
320.761
320.414
320.294
320.342
320.773
321.82
322.985
324.549
326.719
329.558
333.177
337.558
342.348
347.431
353.339
360.102
366.342
371.864
377.034
381.826
386.044
389.611
392.563
394.954
396.837
398.319
399.524
400.497
401.275
401.985
402.726
403.549
404.461
405.459
406.553
407.718
408.847
409.851
410.826
411.856
412.857
413.574
414.146
414.754
415.414
416.109
416.812
417.538
418.322
419.156
420.021
420.901
421.775
422.625
423.428
424.165
424.817
425.374
425.849
426.232
426.514
426.69
426.836
427.006
427.2
427.42
427.676
427.974
428.283
428.586
428.873
429.135
429.361
429.545
429.682
429.771
429.812
429.811
429.775
429.718
429.652
429.589
429.544
429.535
429.568
429.636
429.728
429.832
429.931
430.01
430.064
430.089
430.087
430.057
430.004
429.93
429.842
429.745
379.621
377.769
376.121
374.637
373.687
372.652
370.875
369.093
367.561
366.282
365.499
364.935
364.265
363.436
362.526
361.728
361.204
360.976
360.941
361.012
361.16
361.403
361.773
362.295
362.981
363.884
365.037
366.327
367.83
369.616
371.671
373.896
376.274
378.839
381.653
384.777
388.118
391.465
394.865
398.759
402.856
405.913
408.738
411.562
414.265
416.817
419.181
421.205
422.909
424.078
424.474
424.603
424.697
424.727
424.719
424.776
424.914
425.095
425.289
425.484
425.658
425.765
425.803
425.846
425.908
425.955
425.982
426.049
426.171
426.34
426.552
426.813
427.112
427.418
427.714
427.994
428.248
428.471
428.66
428.812
428.931
429.021
429.088
429.14
429.181
429.224
429.282
429.363
429.462
429.573
429.688
429.797
429.887
429.948
429.981
429.987
429.966
429.924
429.864
429.792
429.714
429.636
429.565
429.505
429.46
429.432
429.42
429.422
429.432
429.442
429.445
429.435
429.409
429.366
429.308
429.239
429.16
429.077
428.991
428.906
428.826
428.751
428.684
390.897
389.46
388.149
387.065
386.471
385.644
384.391
383.082
381.889
381.041
380.688
380.619
380.516
380.254
379.911
379.659
379.659
379.959
380.48
381.114
381.82
382.598
383.457
384.413
385.484
386.746
388.165
389.675
391.368
393.305
395.431
397.66
399.973
402.415
405.066
407.929
410.863
413.787
416.901
420.113
422.679
425.093
427.454
429.799
431.879
433.481
434.674
435.472
435.893
435.916
435.644
435.272
434.871
434.456
434.044
433.611
433.138
432.623
432.081
431.528
430.979
430.455
429.984
429.581
429.247
428.995
428.831
428.742
428.708
428.715
428.75
428.797
428.836
428.862
428.874
428.877
428.874
428.872
428.873
428.884
428.906
428.942
428.989
429.047
429.114
429.186
429.257
429.32
429.368
429.398
429.407
429.394
429.362
429.315
429.257
429.192
429.125
429.059
428.996
428.939
428.889
428.845
428.809
428.776
428.746
428.716
428.683
428.644
428.597
428.542
428.478
428.408
428.333
428.257
428.18
428.106
428.035
427.968
427.905
427.847
427.794
427.744
427.697
427.651
427.606
392.769
391.685
390.722
389.956
389.508
389.009
388.284
387.45
386.703
386.266
386.22
386.419
386.645
386.79
386.895
387.076
387.441
388.03
388.819
389.756
390.803
391.933
393.129
394.391
395.74
397.232
398.812
400.458
402.258
404.246
406.36
408.525
410.734
413.055
415.497
418.022
420.792
423.534
425.76
427.865
429.931
432.069
434.199
436.054
437.448
438.362
438.877
439.079
439.045
438.854
438.559
438.167
437.679
437.096
436.416
435.648
434.82
433.97
433.137
432.345
431.614
430.963
430.406
429.941
429.563
429.265
429.037
428.865
428.733
428.627
428.535
428.452
428.376
428.309
428.254
428.214
428.191
428.188
428.204
428.239
428.289
428.349
428.414
428.477
428.534
428.579
428.607
428.618
428.612
428.588
428.552
428.505
428.452
428.396
428.339
428.283
428.229
428.178
428.129
428.082
428.036
427.99
427.943
427.893
427.841
427.785
427.726
427.665
427.602
427.538
427.476
427.415
427.357
427.303
427.252
427.204
427.158
427.115
427.074
427.033
426.991
426.949
426.905
426.859
426.809
391.667
390.757
390.1
389.567
389.168
388.834
388.401
387.898
387.493
387.353
387.476
387.736
388.04
388.351
388.688
389.1
389.64
390.335
391.186
392.179
393.29
394.491
395.756
397.079
398.486
400.002
401.577
403.244
405.046
406.991
409.036
411.139
413.307
415.537
417.807
420.381
423.199
425.258
427.069
428.89
430.866
432.968
434.956
436.599
437.805
438.617
439.121
439.393
439.479
439.405
439.169
438.763
438.195
437.486
436.668
435.781
434.864
433.955
433.081
432.263
431.513
430.841
430.253
429.746
429.313
428.948
428.642
428.387
428.177
428.002
427.857
427.738
427.644
427.573
427.523
427.494
427.484
427.493
427.518
427.554
427.598
427.645
427.689
427.727
427.756
427.772
427.776
427.767
427.746
427.717
427.68
427.639
427.594
427.548
427.501
427.454
427.408
427.363
427.317
427.272
427.226
427.179
427.132
427.084
427.035
426.987
426.938
426.89
426.843
426.796
426.75
426.704
426.658
426.611
426.563
426.512
426.459
426.402
426.34
426.274
426.203
426.127
426.045
425.958
425.865
391.506
390.577
389.854
389.382
388.944
388.634
388.376
388.091
387.827
387.611
387.595
387.799
388.07
388.337
388.654
389.051
389.548
390.171
390.922
391.787
392.76
393.837
395.003
396.242
397.549
398.921
400.381
401.924
403.562
405.314
407.182
409.142
411.179
413.278
415.398
417.689
420.517
422.848
424.639
426.397
428.227
430.215
432.327
434.314
435.931
437.125
437.99
438.615
439.03
439.235
439.222
438.996
438.574
437.985
437.264
436.448
435.572
434.67
433.77
432.894
432.061
431.283
430.571
429.932
429.367
428.873
428.448
428.087
427.784
427.535
427.331
427.168
427.039
426.94
426.867
426.817
426.788
426.777
426.783
426.803
426.832
426.869
426.907
426.945
426.978
427.005
427.023
427.031
427.03
427.02
427.003
426.98
426.951
426.919
426.885
426.848
426.81
426.771
426.731
426.689
426.646
426.601
426.554
426.505
426.454
426.4
426.344
426.286
426.224
426.16
426.092
426.02
425.944
425.865
425.782
425.695
425.605
425.512
425.417
425.32
425.223
425.125
425.029
424.935
424.845
424.759
390.755
390.048
389.514
389.106
388.752
388.475
388.269
388.116
387.955
387.823
387.9
388.205
388.468
388.583
388.785
389.181
389.706
390.365
391.15
392.015
392.947
393.965
395.072
396.257
397.512
398.841
400.253
401.753
403.348
405.046
406.843
408.73
410.689
412.692
414.788
417.284
420.029
421.958
423.703
425.494
427.363
429.359
431.48
433.46
435.037
436.208
437.105
437.8
438.295
438.567
438.605
438.422
438.042
437.499
436.825
436.053
435.212
434.333
433.441
432.561
431.712
430.91
430.169
429.495
428.894
428.366
427.91
427.521
427.196
426.928
426.711
426.539
426.405
426.304
426.232
426.186
426.163
426.161
426.176
426.206
426.246
426.293
426.342
426.39
426.433
426.468
426.494
426.509
426.512
426.506
426.489
426.464
426.432
426.393
426.349
426.3
426.247
426.19
426.13
426.066
425.999
425.928
425.855
425.78
425.702
425.622
425.542
425.461
425.38
425.3
425.222
425.147
425.075
425.008
424.947
424.893
424.847
424.81
424.782
424.766
424.762
424.77
424.791
424.826
424.873
424.932
425.002
425.083
390.55
389.997
389.555
389.179
388.862
388.615
388.439
388.315
388.219
388.199
388.32
388.576
388.789
388.838
389.054
389.475
389.852
390.41
391.241
392.18
393.102
394.046
395.072
396.191
397.396
398.684
400.057
401.518
403.071
404.718
406.457
408.277
410.146
412.085
414.271
416.97
419.283
421.053
422.793
424.606
426.485
428.465
430.549
432.47
433.974
435.115
436.031
436.773
437.323
437.653
437.754
437.637
437.324
436.846
436.23
435.507
434.708
433.86
432.991
432.126
431.284
430.485
429.742
429.063
428.454
427.918
427.453
427.057
426.726
426.453
426.234
426.062
425.931
425.836
425.773
425.737
425.726
425.734
425.759
425.796
425.841
425.888
425.934
425.974
426.005
426.025
426.032
426.027
426.008
425.978
425.937
425.888
425.832
425.771
425.707
425.641
425.574
425.508
425.444
425.382
425.324
425.271
425.223
425.182
425.148
425.122
425.106
425.099
425.102
425.117
425.144
425.183
425.233
425.294
425.366
425.446
425.534
425.628
425.725
425.825
425.923
426.019
426.111
426.2
426.284
426.362
426.43
426.485
390.702
390.224
389.816
389.46
389.161
388.925
388.752
388.628
388.561
388.585
388.704
388.862
388.994
389.141
389.466
389.872
390.037
390.396
391.325
392.413
393.215
394.051
395.041
396.139
397.311
398.558
399.89
401.313
402.829
404.442
406.138
407.873
409.655
411.607
413.969
416.565
418.482
420.188
421.952
423.779
425.649
427.585
429.595
431.429
432.863
433.985
434.926
435.71
436.307
436.69
436.85
436.799
436.556
436.145
435.593
434.929
434.182
433.381
432.551
431.718
430.903
430.123
429.392
428.721
428.115
427.578
427.11
426.709
426.372
426.094
425.869
425.691
425.556
425.458
425.392
425.354
425.339
425.343
425.361
425.388
425.421
425.454
425.485
425.51
425.527
425.535
425.535
425.527
425.513
425.495
425.474
425.453
425.435
425.421
425.413
425.412
425.421
425.439
425.467
425.506
425.556
425.616
425.686
425.764
425.849
425.939
426.034
426.129
426.225
426.317
426.406
426.491
426.573
426.649
426.715
426.77
426.812
426.838
426.845
426.83
426.788
426.712
426.613
426.495
426.356
426.191
426.01
425.821
391.06
390.61
390.213
389.864
389.57
389.332
389.149
389.02
388.959
388.972
389.037
389.125
389.266
389.542
389.951
390.286
390.18
390.456
391.558
392.592
393.271
394.096
395.121
396.199
397.322
398.517
399.807
401.207
402.727
404.327
405.929
407.551
409.319
411.391
413.855
416.026
417.775
419.503
421.297
423.125
424.971
426.848
428.763
430.508
431.889
433.009
433.976
434.793
435.425
435.846
436.053
436.055
435.869
435.514
435.017
434.403
433.701
432.938
432.14
431.331
430.533
429.763
429.037
428.365
427.756
427.212
426.736
426.327
425.982
425.698
425.47
425.294
425.163
425.073
425.02
424.999
425.004
425.032
425.077
425.136
425.204
425.277
425.352
425.428
425.503
425.576
425.649
425.721
425.794
425.87
425.949
426.031
426.117
426.207
426.299
426.393
426.487
426.578
426.665
426.749
426.829
426.905
426.973
427.031
427.077
427.109
427.125
427.121
427.094
427.037
426.954
426.853
426.733
426.588
426.429
426.263
426.094
425.921
425.749
425.588
425.447
425.341
425.25
425.164
425.094
425.05
425.021
425.001
424.989
391.108
390.711
390.362
390.064
389.819
389.625
389.488
389.414
389.396
389.421
389.504
389.704
390.042
390.426
390.545
390.282
390.886
391.996
392.788
393.426
394.347
395.378
396.406
397.465
398.62
399.91
401.346
402.868
404.362
405.84
407.447
409.312
411.511
413.747
415.61
417.345
419.116
420.92
422.733
424.545
426.355
428.159
429.817
431.159
432.278
433.255
434.08
434.717
435.148
435.372
435.396
435.235
434.908
434.438
433.85
433.171
432.429
431.649
430.857
430.074
429.32
428.61
427.957
427.369
426.852
426.407
426.036
425.736
425.503
425.334
425.222
425.164
425.152
425.181
425.247
425.342
425.462
425.601
425.752
425.912
426.074
426.235
426.391
426.538
426.676
426.801
426.913
427.015
427.107
427.188
427.257
427.314
427.357
427.385
427.397
427.389
427.357
427.296
427.215
427.116
426.995
426.859
426.715
426.566
426.414
426.262
426.116
425.985
425.885
425.807
425.736
425.679
425.647
425.628
425.615
425.611
425.617
425.634
425.66
425.69
425.717
425.747
425.783
425.823
425.861
425.9
425.943
425.99
391.712
391.312
390.959
390.655
390.401
390.198
390.05
389.959
389.921
389.942
390.053
390.278
390.58
390.817
390.764
390.795
391.618
392.477
393.097
393.84
394.801
395.781
396.749
397.776
398.95
400.284
401.717
403.136
404.515
405.985
407.679
409.641
411.743
413.68
415.452
417.21
418.99
420.776
422.558
424.322
426.053
427.738
429.302
430.612
431.719
432.683
433.488
434.106
434.526
434.747
434.778
434.633
434.329
433.889
433.337
432.701
432.008
431.284
430.554
429.84
429.161
428.532
427.966
427.471
427.052
426.711
426.447
426.255
426.131
426.069
426.061
426.1
426.177
426.284
426.411
426.553
426.703
426.857
427.006
427.144
427.268
427.374
427.458
427.518
427.55
427.55
427.516
427.458
427.375
427.27
427.154
427.028
426.898
426.765
426.633
426.51
426.407
426.335
426.275
426.226
426.198
426.184
426.176
426.177
426.186
426.205
426.234
426.269
426.303
426.337
426.376
426.42
426.461
426.505
426.552
426.603
426.656
426.71
426.763
426.814
426.865
426.919
426.974
427.03
427.086
427.145
427.205
427.267
392.013
391.652
391.34
391.075
390.863
390.703
390.6
390.557
390.587
390.706
390.899
391.102
391.2
391.212
391.616
392.356
392.985
393.602
394.421
395.336
396.253
397.194
398.247
399.456
400.778
402.122
403.444
404.816
406.361
408.121
410.033
411.933
413.731
415.485
417.245
419.008
420.767
422.512
424.228
425.9
427.485
428.956
430.268
431.382
432.341
433.141
433.763
434.197
434.447
434.519
434.425
434.183
433.814
433.342
432.794
432.195
431.569
430.941
430.329
429.751
429.219
428.743
428.328
427.977
427.692
427.472
427.31
427.2
427.134
427.105
427.105
427.125
427.155
427.184
427.201
427.208
427.199
427.179
427.147
427.103
427.045
426.979
426.906
426.833
426.776
426.74
426.709
426.689
426.685
426.684
426.689
426.7
426.72
426.75
426.787
426.829
426.867
426.909
426.955
427.001
427.046
427.096
427.149
427.205
427.261
427.318
427.372
427.426
427.481
427.538
427.595
427.653
427.713
427.775
427.838
427.901
427.965
428.029
428.094
428.16
428.227
428.295
428.365
428.435
428.507
428.58
428.654
392.397
392.072
391.796
391.572
391.403
391.293
391.248
391.275
391.368
391.498
391.616
391.697
391.915
392.444
393.018
393.569
394.243
395.052
395.908
396.794
397.755
398.841
400.043
401.304
402.579
403.894
405.328
406.93
408.676
410.485
412.275
414.038
415.798
417.564
419.328
421.085
422.824
424.528
426.176
427.736
429.192
430.497
431.656
432.66
433.483
434.129
434.595
434.882
434.994
434.941
434.735
434.397
433.949
433.419
432.833
432.215
431.584
430.962
430.363
429.8
429.28
428.805
428.376
427.999
427.67
427.391
427.163
426.981
426.839
426.733
426.658
426.617
426.61
426.64
426.687
426.752
426.822
426.891
426.959
427.026
427.095
427.164
427.233
427.299
427.357
427.414
427.47
427.523
427.577
427.634
427.692
427.752
427.812
427.872
427.929
427.985
428.043
428.102
428.161
428.222
428.284
428.348
428.412
428.477
428.541
428.606
428.671
428.738
428.806
428.874
428.944
429.015
429.088
429.161
429.235
429.31
429.386
429.463
429.541
429.62
429.7
429.781
429.863
429.946
430.029
430.113
430.198
430.283
393.174
392.844
392.566
392.341
392.173
392.065
392.02
392.035
392.1
392.193
392.305
392.484
392.838
393.319
393.827
394.406
395.108
395.895
396.734
397.637
398.636
399.74
400.924
402.158
403.439
404.81
406.309
407.939
409.662
411.426
413.2
414.979
416.768
418.561
420.352
422.131
423.883
425.593
427.234
428.783
430.217
431.508
432.642