/*--------------------------------*- C++ -*----------------------------------*\
| =========                 |                                                 |
| \\      /  F ield         | OpenFOAM: The Open Source CFD Toolbox           |
|  \\    /   O peration     | Version:  v1706                                 |
|   \\  /    A nd           | Web:      www.OpenFOAM.com                      |
|    \\/     M anipulation  |                                                 |
\*---------------------------------------------------------------------------*/
FoamFile
{
    version     2.0;
    format      ascii;
    class       volScalarField;
    location    "4e-06";
    object      rho;
}
// * * * * * * * * * * * * * * * * * * * * * * * * * * * * * * * * * * * * * //

dimensions      [1 -3 0 0 0 0 0];


internalField   nonuniform List<scalar> 
29871
(
0.000511309
0.000511309
0.000511309
0.000511309
0.000511309
0.000511309
0.000511309
0.000511309
0.000511309
0.000511309
0.000511309
0.000511309
0.000511309
0.000511309
0.000511309
0.000511309
0.000511309
0.000511309
0.000511309
0.000511309
0.000511309
0.000511309
0.000511309
0.000511309
0.000511309
0.000511309
0.000511309
0.000511309
0.000511309
0.000511309
0.000511309
0.000511309
0.000511309
0.000511309
0.000511309
0.000511309
0.000511309
0.000511309
0.000511309
0.000511309
0.000511309
0.000511309
0.000511309
0.000511309
0.000511309
0.000511309
0.000511309
0.000511309
0.000511309
0.000511309
0.000511309
0.000511309
0.000511309
0.000511309
0.000511309
0.000511309
0.000511309
0.000511309
0.000511309
0.000511309
0.000511309
0.000511309
0.000511309
0.000511309
0.000511309
0.000511309
0.000511309
0.000511309
0.000511309
0.000511309
0.000511309
0.000511309
0.000511309
0.000511309
0.000511309
0.000511309
0.000511309
0.000511309
0.000511309
0.000511309
0.000511309
0.000511309
0.000511309
0.000511309
0.000511309
0.000511309
0.000511309
0.000511309
0.000511309
0.000511309
0.000511309
0.000511309
0.000511309
0.000511309
0.000511309
0.000511309
0.000511309
0.000511309
0.000511309
0.000511309
0.000511309
0.000511309
0.000511309
0.000511309
0.000511309
0.000511309
0.000511309
0.000511309
0.000511309
0.000511309
0.000511309
0.000511309
0.000511309
0.000511309
0.000511309
0.000511309
0.000511309
0.000511309
0.000511309
0.000511309
0.000511309
0.000511309
0.000511309
0.000511309
0.000511309
0.000511309
0.000511309
0.000511309
0.000511309
0.000511309
0.000511309
0.000511309
0.000511309
0.000511309
0.000511309
0.000511309
0.000511309
0.000511309
0.000511309
0.000511309
0.000511309
0.000511309
0.000511309
0.000511309
0.000511309
0.000511309
0.000511309
0.000511309
0.000511309
0.000511309
0.000511309
0.000511309
0.000511309
0.000511309
0.000511309
0.000511309
0.000511309
0.000511309
0.000511309
0.000511309
0.000511309
0.000511309
0.000511309
0.000511309
0.000511309
0.000511309
0.000511309
0.000511309
0.000511309
0.000511309
0.000511309
0.000511309
0.000511309
0.000511309
0.000511309
0.000511309
0.000511309
0.000511309
0.000511309
0.000511309
0.000511309
0.000511309
0.000511309
0.000511309
0.000511309
0.000511309
0.000511309
0.000511309
0.000511309
0.000511309
0.000511309
0.000511309
0.000511309
0.000511309
0.000511309
0.000511309
0.000511309
0.000511309
0.000511309
0.000511309
0.000511309
0.000511309
0.000511309
0.000511309
0.000511309
0.000511309
0.000511309
0.000511309
0.000511309
0.000511309
0.000511309
0.000511309
0.000511309
0.000511309
0.000511309
0.000511309
0.000511309
0.000511309
0.000511309
0.000511309
0.000511309
0.000511309
0.000511309
0.000511309
0.000511309
0.000511309
0.000511309
0.000511309
0.000511309
0.000511309
0.000511309
0.000511309
0.000511309
0.000511309
0.000511309
0.000511309
0.000511309
0.000511309
0.000511309
0.000511309
0.000511309
0.000511309
0.000511309
0.000511309
0.000511309
0.000511309
0.000511309
0.000511309
0.000511309
0.000511309
0.000511309
0.000511309
0.000511309
0.000511309
0.000511309
0.000511309
0.000511309
0.000511309
0.000511309
0.000511309
0.000511309
0.000511309
0.000511309
0.000511309
0.000511309
0.000511309
0.000511309
0.000511309
0.000511309
0.000511309
0.000511309
0.000511309
0.000511309
0.000511309
0.000511309
0.000511309
0.000511309
0.000511309
0.000511309
0.000511309
0.000511309
0.000511309
0.000511309
0.000511309
0.000511309
0.000511309
0.000511309
0.000511309
0.000511309
0.000511309
0.000511309
0.000511309
0.000511309
0.000511309
0.000511309
0.000511309
0.000511309
0.000511309
0.000511309
0.000511309
0.000511309
0.000511309
0.000511309
0.000511309
0.000511309
0.000511309
0.000511309
0.000511309
0.000511309
0.000511309
0.000511309
0.000511309
0.000511309
0.000511309
0.000511309
0.000511309
0.000511309
0.000511309
0.000511309
0.000511309
0.000511309
0.000511309
0.000511309
0.000511309
0.000511309
0.000511309
0.000511309
0.000511309
0.000511309
0.000511309
0.000511309
0.000511309
0.000511309
0.000511309
0.000511309
0.000511309
0.000511309
0.000511309
0.000511309
0.000511309
0.000511309
0.000511309
0.000511309
0.000511309
0.000511309
0.000511309
0.000511309
0.000511309
0.000511309
0.000511309
0.000511309
0.000511309
0.000511309
0.000511309
0.000511309
0.000511309
0.000511309
0.000511309
0.000511309
0.000511309
0.000511309
0.000511309
0.000511309
0.000511309
0.000511309
0.000511309
0.000511309
0.000511309
0.000511309
0.000511309
0.000511309
0.000511309
0.000511309
0.000511309
0.000511309
0.000511309
0.000511309
0.000511309
0.000511309
0.000511309
0.000511309
0.000511309
0.000511309
0.000511309
0.000511309
0.000511309
0.000511309
0.000511309
0.000511309
0.000511309
0.000511309
0.000511309
0.000511309
0.000511309
0.000511309
0.000511309
0.000511309
0.000511309
0.000511309
0.000511309
0.000511309
0.000511309
0.000511309
0.000511309
0.000511309
0.000511309
0.000511309
0.000511309
0.000511309
0.000511309
0.000511309
0.000511309
0.000511309
0.000511309
0.000511309
0.000511309
0.000511309
0.000511309
0.000511309
0.000511309
0.000511309
0.000511309
0.000511309
0.000511309
0.000511309
0.000511309
0.000511309
0.000511309
0.000511309
0.000511309
0.000511309
0.000511309
0.000511309
0.000511309
0.000511309
0.000511309
0.000511309
0.000511309
0.000511309
0.000511309
0.000511309
0.000511309
0.000511309
0.000511309
0.000511309
0.000511309
0.000511309
0.000511309
0.000511309
0.000511309
0.000511309
0.000511309
0.000511309
0.000511309
0.000511309
0.000511309
0.000511309
0.000511309
0.000511309
0.000511309
0.000511309
0.000511309
0.000511309
0.000511309
0.000511309
0.000511309
0.000511309
0.000511309
0.000511309
0.000511309
0.000511309
0.000511309
0.000511309
0.000511309
0.000511309
0.000511309
0.000511309
0.000511309
0.000511309
0.000511309
0.000511309
0.000511309
0.000511309
0.000511309
0.000511309
0.000511309
0.000511309
0.000511309
0.000511309
0.000511309
0.000511309
0.000511309
0.000511309
0.000511309
0.000511309
0.000511309
0.000511309
0.000511309
0.000511309
0.00051131
0.00051131
0.00051131
0.00051131
0.00051131
0.00051131
0.00051131
0.00051131
0.00051131
0.00051131
0.00051131
0.00051131
0.00051131
0.00051131
0.00051131
0.00051131
0.00051131
0.00051131
0.00051131
0.00051131
0.00051131
0.00051131
0.00051131
0.00051131
0.00051131
0.00051131
0.00051131
0.00051131
0.00051131
0.00051131
0.00051131
0.000511309
0.000511309
0.000511309
0.000511309
0.000511309
0.000511309
0.000511309
0.000511309
0.000511309
0.000511309
0.000511309
0.000511309
0.000511309
0.000511309
0.000511309
0.000511309
0.000511309
0.000511309
0.000511309
0.000511309
0.000511309
0.000511309
0.000511309
0.000511309
0.000511309
0.000511309
0.000511309
0.000511309
0.000511309
0.000511309
0.000511309
0.000511309
0.000511309
0.000511309
0.000511309
0.000511309
0.000511309
0.000511309
0.000511309
0.000511309
0.000511309
0.000511309
0.000511309
0.000511309
0.00051131
0.00051131
0.00051131
0.00051131
0.00051131
0.00051131
0.00051131
0.00051131
0.00051131
0.00051131
0.00051131
0.00051131
0.00051131
0.00051131
0.00051131
0.00051131
0.00051131
0.00051131
0.00051131
0.00051131
0.00051131
0.00051131
0.00051131
0.00051131
0.00051131
0.00051131
0.00051131
0.00051131
0.00051131
0.00051131
0.00051131
0.00051131
0.00051131
0.00051131
0.00051131
0.00051131
0.00051131
0.00051131
0.00051131
0.00051131
0.000511311
0.000511311
0.000511311
0.000511311
0.000511311
0.000511311
0.000511311
0.000511311
0.000511311
0.000511311
0.000511311
0.000511311
0.000511311
0.000511312
0.000511312
0.000511312
0.000511312
0.000511312
0.000511312
0.000511312
0.000511313
0.000511313
0.00051131
0.00051131
0.00051131
0.00051131
0.00051131
0.00051131
0.00051131
0.00051131
0.00051131
0.00051131
0.00051131
0.00051131
0.00051131
0.00051131
0.00051131
0.00051131
0.00051131
0.00051131
0.00051131
0.00051131
0.00051131
0.00051131
0.00051131
0.00051131
0.00051131
0.00051131
0.00051131
0.00051131
0.00051131
0.00051131
0.00051131
0.00051131
0.00051131
0.00051131
0.00051131
0.00051131
0.00051131
0.00051131
0.00051131
0.00051131
0.00051131
0.00051131
0.00051131
0.00051131
0.00051131
0.00051131
0.00051131
0.00051131
0.00051131
0.00051131
0.00051131
0.00051131
0.00051131
0.00051131
0.000511311
0.000511311
0.000511311
0.000511311
0.000511311
0.000511311
0.000511311
0.000511311
0.000511311
0.000511311
0.000511311
0.000511311
0.000511312
0.000511312
0.000511312
0.000511312
0.000511312
0.000511312
0.000511312
0.000511312
0.000511313
0.000511313
0.000511313
0.000511313
0.000511313
0.000511314
0.000511314
0.000511314
0.000511314
0.000511315
0.000511315
0.000511315
0.000511316
0.000511316
0.000511316
0.000511317
0.000511317
0.000511317
0.000511318
0.000511318
0.000511319
0.000511319
0.00051132
0.00051132
0.000511321
0.000511321
0.000511322
0.000511322
0.000511323
0.000511324
0.000511324
0.000511325
0.000511326
0.000511327
0.000511327
0.000511328
0.000511313
0.000511313
0.000511313
0.000511313
0.000511313
0.000511313
0.000511312
0.000511312
0.000511312
0.000511312
0.000511312
0.000511312
0.000511312
0.000511312
0.000511312
0.000511312
0.000511311
0.000511311
0.000511311
0.000511311
0.000511311
0.000511311
0.000511311
0.000511311
0.000511311
0.000511311
0.000511311
0.000511311
0.000511311
0.000511311
0.000511311
0.000511311
0.000511311
0.000511311
0.000511311
0.000511311
0.000511311
0.000511311
0.000511311
0.000511312
0.000511312
0.000511312
0.000511312
0.000511312
0.000511313
0.000511313
0.000511313
0.000511313
0.000511313
0.000511314
0.000511314
0.000511314
0.000511315
0.000511315
0.000511315
0.000511316
0.000511316
0.000511316
0.000511317
0.000511317
0.000511318
0.000511318
0.000511319
0.000511319
0.00051132
0.000511321
0.000511321
0.000511322
0.000511323
0.000511323
0.000511324
0.000511325
0.000511326
0.000511326
0.000511327
0.000511328
0.000511329
0.00051133
0.000511331
0.000511332
0.000511333
0.000511334
0.000511336
0.000511337
0.000511338
0.00051134
0.000511341
0.000511343
0.000511344
0.000511346
0.000511348
0.000511349
0.000511351
0.000511353
0.000511356
0.000511358
0.00051136
0.000511363
0.000511366
0.000511369
0.000511372
0.000511375
0.000511379
0.000511383
0.000511387
0.000511391
0.000511396
0.000511401
0.000511406
0.000511412
0.000511325
0.000511325
0.000511325
0.000511324
0.000511324
0.000511323
0.000511323
0.000511322
0.000511322
0.000511321
0.000511321
0.00051132
0.00051132
0.000511319
0.000511319
0.000511319
0.000511318
0.000511318
0.000511317
0.000511317
0.000511317
0.000511317
0.000511316
0.000511316
0.000511316
0.000511316
0.000511316
0.000511316
0.000511316
0.000511316
0.000511316
0.000511316
0.000511317
0.000511317
0.000511317
0.000511318
0.000511318
0.000511319
0.00051132
0.00051132
0.000511321
0.000511322
0.000511323
0.000511324
0.000511325
0.000511327
0.000511328
0.000511329
0.00051133
0.000511332
0.000511333
0.000511335
0.000511336
0.000511338
0.00051134
0.000511342
0.000511343
0.000511345
0.000511347
0.000511349
0.000511351
0.000511354
0.000511356
0.000511358
0.000511361
0.000511364
0.000511366
0.000511369
0.000511373
0.000511376
0.000511379
0.000511383
0.000511387
0.000511391
0.000511395
0.0005114
0.000511404
0.00051141
0.000511415
0.000511421
0.000511427
0.000511434
0.000511441
0.000511448
0.000511456
0.000511465
0.000511474
0.000511484
0.000511494
0.000511505
0.000511517
0.000511529
0.000511542
0.000511556
0.00051157
0.000511586
0.000511602
0.000511618
0.000511636
0.000511654
0.000511673
0.000511693
0.000511714
0.000511736
0.000511758
0.000511782
0.000511806
0.000511832
0.000511859
0.000511887
0.000511381
0.000511379
0.000511378
0.000511376
0.000511374
0.000511372
0.00051137
0.000511367
0.000511365
0.000511363
0.000511361
0.000511359
0.000511357
0.000511355
0.000511353
0.000511351
0.00051135
0.000511348
0.000511347
0.000511345
0.000511344
0.000511343
0.000511342
0.000511341
0.000511341
0.000511341
0.000511341
0.000511341
0.000511341
0.000511341
0.000511342
0.000511343
0.000511344
0.000511346
0.000511348
0.00051135
0.000511352
0.000511355
0.000511358
0.000511362
0.000511366
0.00051137
0.000511374
0.000511379
0.000511384
0.000511389
0.000511395
0.000511401
0.000511407
0.000511413
0.00051142
0.000511427
0.000511434
0.000511442
0.00051145
0.000511459
0.000511468
0.000511478
0.000511488
0.000511499
0.000511511
0.000511523
0.000511536
0.00051155
0.000511565
0.000511581
0.000511598
0.000511615
0.000511634
0.000511653
0.000511674
0.000511695
0.000511717
0.000511741
0.000511766
0.000511791
0.000511818
0.000511846
0.000511876
0.000511907
0.000511939
0.000511972
0.000512008
0.000512044
0.000512083
0.000512123
0.000512165
0.00051221
0.000512256
0.000512305
0.000512357
0.000512411
0.000512468
0.000512528
0.000512592
0.000512659
0.00051273
0.000512805
0.000512884
0.000512968
0.000513057
0.000513152
0.000513253
0.00051336
0.000513475
0.000513598
0.000513729
0.000513869
0.000514019
0.000514181
0.000511605
0.000511598
0.00051159
0.000511581
0.000511572
0.000511563
0.000511554
0.000511545
0.000511536
0.000511528
0.000511519
0.000511511
0.000511503
0.000511495
0.000511488
0.000511481
0.000511474
0.000511468
0.000511463
0.000511458
0.000511453
0.00051145
0.000511447
0.000511444
0.000511443
0.000511442
0.000511442
0.000511443
0.000511445
0.000511447
0.000511451
0.000511456
0.000511462
0.000511469
0.000511479
0.000511489
0.000511502
0.000511516
0.000511531
0.000511549
0.000511568
0.000511589
0.000511612
0.000511637
0.000511663
0.000511691
0.000511721
0.000511752
0.000511784
0.000511818
0.000511854
0.000511891
0.000511929
0.000511969
0.000512011
0.000512054
0.0005121
0.000512148
0.000512198
0.00051225
0.000512305
0.000512362
0.000512422
0.000512485
0.000512551
0.000512621
0.000512693
0.000512769
0.000512849
0.000512933
0.000513021
0.000513114
0.000513211
0.000513314
0.000513423
0.000513538
0.00051366
0.000513789
0.000513927
0.000514073
0.000514229
0.000514395
0.000514572
0.000514762
0.000514965
0.000515181
0.000515414
0.000515662
0.000515929
0.000516214
0.000516518
0.000516844
0.000517192
0.000517563
0.000517959
0.000518379
0.000518826
0.0005193
0.000519801
0.000520331
0.00052089
0.000521478
0.000522096
0.000522744
0.000523423
0.000524133
0.000524874
0.000525647
0.000526453
0.000527294
0.000512629
0.000512597
0.000512564
0.000512528
0.000512491
0.000512453
0.000512414
0.000512375
0.000512335
0.000512296
0.000512257
0.000512219
0.000512182
0.000512147
0.000512113
0.000512081
0.000512051
0.000512023
0.000511997
0.000511974
0.000511953
0.000511935
0.00051192
0.000511907
0.000511899
0.000511896
0.000511897
0.000511899
0.000511905
0.000511915
0.00051193
0.00051195
0.000511976
0.000512009
0.000512048
0.000512094
0.000512147
0.000512207
0.000512274
0.000512349
0.00051243
0.000512519
0.000512615
0.000512718
0.000512826
0.000512942
0.000513063
0.000513189
0.000513322
0.000513459
0.000513603
0.000513752
0.000513908
0.000514072
0.000514244
0.000514425
0.000514617
0.000514821
0.000515037
0.000515268
0.000515515
0.000515778
0.00051606
0.000516361
0.000516682
0.000517025
0.00051739
0.000517779
0.000518193
0.000518632
0.000519099
0.000519593
0.000520117
0.00052067
0.000521256
0.000521874
0.000522526
0.000523213
0.000523936
0.000524696
0.000525494
0.000526331
0.000527207
0.000528124
0.000529084
0.000530086
0.000531134
0.000532229
0.000533374
0.000534571
0.000535824
0.000537137
0.000538512
0.000539955
0.000541469
0.00054306
0.000544732
0.000546491
0.000548342
0.000550291
0.000552344
0.000554509
0.000556792
0.000559204
0.000561756
0.00056446
0.000567331
0.000570388
0.000573649
0.00057714
0.000580889
0.00051652
0.00051639
0.000516253
0.000516109
0.000515961
0.000515811
0.000515659
0.000515508
0.000515358
0.000515211
0.000515066
0.000514925
0.000514789
0.000514659
0.000514536
0.000514419
0.000514311
0.00051421
0.000514118
0.000514035
0.000513961
0.000513899
0.000513846
0.000513805
0.00051378
0.000513775
0.000513782
0.000513797
0.000513827
0.000513875
0.000513944
0.000514036
0.000514152
0.000514295
0.000514465
0.000514666
0.000514897
0.000515162
0.00051546
0.000515793
0.000516162
0.000516568
0.000517009
0.000517487
0.000518002
0.000518551
0.000519136
0.000519756
0.00052041
0.000521099
0.000521823
0.000522582
0.000523378
0.000524213
0.000525091
0.000526013
0.000526982
0.000528001
0.000529071
0.000530195
0.000531375
0.000532613
0.000533909
0.000535266
0.000536683
0.000538164
0.00053971
0.000541323
0.000543006
0.000544763
0.000546598
0.000548516
0.000550523
0.000552625
0.000554828
0.00055714
0.00055957
0.000562127
0.00056482
0.00056766
0.000570661
0.000573838
0.000577208
0.000580789
0.000584606
0.000588684
0.000593052
0.000597746
0.000602803
0.000608268
0.000614187
0.000620614
0.000627608
0.000635234
0.000643559
0.000652659
0.000662614
0.000673509
0.000685435
0.000698486
0.000712762
0.000728363
0.000745395
0.000763963
0.000784167
0.000806107
0.000829874
0.000855546
0.000883192
0.000912859
0.000944575
0.000978338
0.00101412
0.000532439
0.000531898
0.00053133
0.000530737
0.000530126
0.000529502
0.000528872
0.000528243
0.000527621
0.000527008
0.000526409
0.000525828
0.000525268
0.000524734
0.000524231
0.000523761
0.000523326
0.000522929
0.000522573
0.000522255
0.000521979
0.000521742
0.000521556
0.000521451
0.00052142
0.000521439
0.000521494
0.000521609
0.0005218
0.000522079
0.000522453
0.000522932
0.000523525
0.000524239
0.000525082
0.000526057
0.000527168
0.00052842
0.000529811
0.000531342
0.000533008
0.000534805
0.000536725
0.000538761
0.000540905
0.00054315
0.000545489
0.000547915
0.000550426
0.00055302
0.000555699
0.000558469
0.00056134
0.000564326
0.000567443
0.000570707
0.000574139
0.00057776
0.00058159
0.000585652
0.00058997
0.00059457
0.000599481
0.000604734
0.000610364
0.00061641
0.000622914
0.000629922
0.000637486
0.000645662
0.000654512
0.000664102
0.000674506
0.000685803
0.000698076
0.000711415
0.000725915
0.000741673
0.000758791
0.000777371
0.000797516
0.000819325
0.000842891
0.000868298
0.000895617
0.000924906
0.0009562
0.000989513
0.00102483
0.0010621
0.00110125
0.00114214
0.00118463
0.0012285
0.00127352
0.00131942
0.00136591
0.00141267
0.00145938
0.0015057
0.00155137
0.00159609
0.0016395
0.00168127
0.00172111
0.00175877
0.00179405
0.00182676
0.00185679
0.00188407
0.00190859
0.00193037
0.00194947
0.000589376
0.000587895
0.000586315
0.000584636
0.00058286
0.000580999
0.00057908
0.000577131
0.000575173
0.00057322
0.000571283
0.000569371
0.000567495
0.000565667
0.000563899
0.000562208
0.000560608
0.000559107
0.000557715
0.00055644
0.000555285
0.000554267
0.000553392
0.000552643
0.000552073
0.000551769
0.000551751
0.000551866
0.000552137
0.000552639
0.000553414
0.000554495
0.000555913
0.000557699
0.000559879
0.000562472
0.000565494
0.000568964
0.0005729
0.000577314
0.000582216
0.000587612
0.000593504
0.000599893
0.00060678
0.000614175
0.000622091
0.000630552
0.000639591
0.000649254
0.000659592
0.000670664
0.00068254
0.0006953
0.000709042
0.000723885
0.000739968
0.000757426
0.000776372
0.000796919
0.000819192
0.000843317
0.000869401
0.000897526
0.000927748
0.000960088
0.000994539
0.00103106
0.00106955
0.00110991
0.00115196
0.0011955
0.00124031
0.00128614
0.00133271
0.00137974
0.00142692
0.00147396
0.00152054
0.00156636
0.00161117
0.00165468
0.00169657
0.00173653
0.00177431
0.00180968
0.00184247
0.00187254
0.00189981
0.00192426
0.00194592
0.00196484
0.00198116
0.00199502
0.00200661
0.00201618
0.00202398
0.0020303
0.00203536
0.00203942
0.0020427
0.00204589
0.002049
0.00205119
0.00205261
0.00205346
0.00205394
0.00205418
0.0020543
0.00205441
0.00205461
0.00205494
0.00205543
0.00205607
0.00205683
0.00077907
0.000773761
0.000767974
0.000761861
0.000755473
0.000748788
0.00074182
0.000734673
0.00072751
0.000720462
0.000713589
0.000706903
0.000700409
0.00069413
0.00068811
0.000682408
0.000677088
0.000672188
0.000667717
0.000663703
0.000660229
0.000657234
0.000654507
0.000652395
0.000651359
0.000651201
0.000651571
0.00065243
0.000654047
0.000656582
0.000660173
0.000664987
0.000671196
0.000678949
0.000688415
0.000699778
0.000713214
0.000728888
0.000746986
0.000767711
0.000791235
0.000817671
0.000847085
0.000879522
0.000914988
0.000953433
0.000994732
0.00103867
0.00108499
0.00113337
0.00118342
0.0012347
0.00128675
0.0013391
0.00139136
0.0014434
0.00149488
0.00154522
0.00159418
0.00164172
0.0016876
0.00173138
0.0017727
0.00181126
0.00184683
0.00187922
0.00190834
0.00193417
0.00195679
0.00197632
0.00199294
0.00200689
0.00201844
0.00202788
0.00203552
0.00204167
0.00204661
0.00205058
0.00205378
0.00205671
0.00205964
0.00206173
0.00206311
0.00206398
0.00206455
0.00206497
0.00206531
0.00206569
0.00206616
0.00206677
0.00206752
0.00206838
0.00206932
0.00207028
0.0020712
0.00207199
0.00207256
0.00207282
0.00207272
0.00207212
0.00207109
0.00206914
0.00206584
0.00206244
0.00205903
0.00205562
0.00205219
0.0020488
0.00204555
0.0020424
0.00203933
0.00203629
0.00203324
0.0020301
0.00202682
0.00202333
0.00149665
0.00149678
0.00149423
0.0014894
0.00148345
0.00147704
0.0014695
0.00145955
0.0014476
0.00143501
0.00142193
0.0014074
0.00139071
0.00137211
0.00135264
0.0013331
0.00131349
0.00129355
0.00127319
0.00125256
0.00123188
0.00121147
0.00119175
0.00117312
0.00115574
0.00113963
0.00112512
0.00111262
0.00110169
0.0010919
0.00108469
0.00108158
0.00108194
0.00108401
0.00108886
0.00109733
0.00110993
0.00112707
0.00114883
0.00117546
0.00120787
0.00124647
0.00129065
0.00133956
0.00139256
0.00144927
0.00150901
0.00157057
0.00163259
0.00169377
0.00175249
0.00180703
0.00185621
0.00189931
0.00193595
0.00196609
0.00199009
0.00200861
0.00202259
0.00203313
0.0020411
0.00204681
0.0020507
0.00205388
0.00205701
0.00205982
0.00206271
0.00206504
0.0020667
0.00206787
0.00206876
0.00206953
0.00207029
0.00207114
0.00207212
0.00207327
0.00207457
0.00207598
0.00207744
0.00207886
0.00208014
0.00208116
0.00208181
0.00208199
0.00208172
0.00208094
0.00207946
0.00207667
0.00207372
0.00207079
0.00206787
0.00206493
0.00206199
0.00205912
0.00205633
0.00205359
0.00205085
0.00204806
0.00204515
0.00204206
0.00203873
0.0020351
0.0020311
0.00202669
0.00202184
0.00201657
0.0020109
0.00200481
0.0019983
0.00199171
0.00198519
0.00197873
0.00197233
0.001966
0.00195973
0.00195341
0.00194701
0.00194048
0.00193377
0.00192686
0.00191972
0.00191234
0.00190472
0.00192545
0.00192368
0.00192232
0.00192196
0.00192353
0.00192454
0.0019228
0.00191994
0.00191818
0.00191771
0.00191866
0.00192037
0.00192053
0.00191996
0.00191877
0.0019175
0.00191701
0.00191736
0.00191781
0.00191776
0.00191709
0.00191591
0.00191447
0.00191302
0.00191154
0.0019101
0.00190903
0.00190846
0.00190825
0.00190914
0.0019121
0.00191524
0.0019198
0.00192654
0.0019357
0.00194777
0.00196269
0.00197881
0.00199569
0.00201582
0.00203929
0.00205991
0.00207678
0.00209157
0.00210421
0.00211399
0.00212074
0.0021247
0.00212603
0.00212525
0.00212264
0.0021188
0.00211423
0.00210922
0.00210436
0.0021001
0.00209666
0.00209397
0.00209198
0.00209066
0.00208984
0.00208901
0.00208778
0.00208649
0.00208545
0.00208429
0.00208203
0.0020792
0.00207648
0.0020739
0.0020714
0.00206891
0.00206641
0.00206398
0.0020616
0.00205922
0.00205678
0.00205421
0.00205146
0.00204844
0.00204509
0.00204136
0.00203721
0.0020327
0.00202779
0.00202248
0.00201674
0.00201085
0.00200497
0.00199908
0.00199318
0.00198727
0.00198137
0.00197543
0.00196937
0.00196317
0.00195679
0.0019502
0.00194339
0.00193635
0.00192907
0.00192158
0.00191389
0.00190604
0.00189807
0.00189003
0.00188196
0.00187391
0.00186591
0.00185797
0.00185008
0.00184218
0.00183425
0.00182624
0.00181813
0.00180988
0.00180151
0.00179302
0.00178442
0.00177571
0.00176693
0.0017581
0.00174923
0.00195513
0.00195356
0.00195297
0.00195311
0.00195546
0.00195724
0.00195596
0.00195467
0.00195443
0.00195507
0.00195779
0.0019615
0.0019645
0.00196649
0.00196794
0.00196978
0.00197274
0.00197691
0.00198173
0.00198665
0.00199149
0.00199631
0.00200129
0.00200659
0.00201229
0.00201836
0.00202476
0.00203148
0.00203863
0.00204638
0.00205459
0.0020629
0.00207122
0.00207962
0.00208832
0.00209755
0.00210689
0.00211542
0.00212349
0.00213317
0.00214294
0.00214745
0.00215049
0.00215307
0.00215474
0.00215543
0.00215518
0.0021534
0.0021501
0.00214466
0.00213633
0.00212724
0.00211836
0.00210963
0.00210117
0.00209325
0.00208592
0.00207903
0.00207247
0.0020662
0.00206012
0.00205401
0.00204784
0.00204183
0.00203601
0.00203023
0.00202437
0.00201859
0.0020129
0.00200721
0.00200151
0.00199578
0.00199003
0.00198418
0.00197819
0.00197205
0.00196575
0.00195928
0.00195263
0.00194582
0.00193886
0.00193176
0.00192455
0.00191725
0.00190988
0.00190246
0.00189504
0.00188763
0.00188019
0.00187272
0.00186518
0.00185755
0.00184981
0.00184192
0.0018339
0.00182575
0.00181749
0.00180913
0.0018007
0.0017922
0.00178367
0.00177513
0.00176659
0.00175807
0.00174958
0.00174112
0.00173268
0.00172426
0.00171584
0.00170739
0.00169891
0.00169039
0.00168181
0.00167319
0.00166454
0.00165586
0.00164718
0.0016385
0.00162983
0.0016212
0.00161259
0.00160403
0.00159551
0.00192347
0.00192268
0.00192251
0.00192322
0.00192596
0.00192763
0.00192752
0.0019273
0.00192752
0.00192907
0.00193268
0.00193747
0.00194192
0.00194544
0.00194845
0.00195182
0.00195626
0.00196193
0.00196839
0.00197505
0.00198166
0.00198821
0.00199479
0.00200151
0.00200846
0.00201564
0.00202296
0.00203039
0.00203814
0.00204637
0.00205481
0.00206306
0.00207103
0.00207888
0.00208692
0.00209511
0.00210284
0.0021098
0.0021169
0.00212377
0.00212727
0.00212921
0.0021301
0.00213023
0.00212894
0.00212526
0.00211953
0.00211192
0.00210262
0.00209173
0.00207975
0.00206746
0.00205515
0.00204291
0.00203087
0.00201905
0.00200742
0.00199602
0.00198493
0.00197421
0.00196389
0.00195399
0.00194458
0.00193563
0.00192709
0.00191891
0.00191105
0.0019034
0.00189584
0.00188829
0.00188073
0.00187309
0.00186535
0.00185751
0.00184957
0.00184158
0.00183355
0.0018255
0.00181747
0.00180946
0.00180148
0.00179352
0.00178559
0.00177766
0.00176973
0.00176179
0.00175381
0.00174577
0.00173767
0.00172949
0.00172124
0.00171291
0.00170453
0.00169611
0.00168766
0.0016792
0.00167074
0.0016623
0.00165389
0.0016455
0.00163714
0.00162882
0.00162052
0.00161225
0.001604
0.00159576
0.00158754
0.00157932
0.0015711
0.0015629
0.00155471
0.00154654
0.0015384
0.0015303
0.00152224
0.00151424
0.00150629
0.0014984
0.00149056
0.00148279
0.00147508
0.00146742
0.00145983
0.00145229
0.0014448
0.00184662
0.00184597
0.00184588
0.00184652
0.00184844
0.00185017
0.00185098
0.00185142
0.00185222
0.00185426
0.00185793
0.00186259
0.00186722
0.00187134
0.0018752
0.00187938
0.00188435
0.00189025
0.00189689
0.00190395
0.0019112
0.00191854
0.00192589
0.00193333
0.00194089
0.00194856
0.00195626
0.00196397
0.00197191
0.00198013
0.00198833
0.00199615
0.00200354
0.00201074
0.00201772
0.00202432
0.0020312
0.00203723
0.00204055
0.00204246
0.00204323
0.0020434
0.00204284
0.00204058
0.00203592
0.00202878
0.00201954
0.00200866
0.00199658
0.00198375
0.00197043
0.00195673
0.00194275
0.0019286
0.0019144
0.00190027
0.00188638
0.00187289
0.00185996
0.00184764
0.00183596
0.00182493
0.00181454
0.0018047
0.00179532
0.00178631
0.00177759
0.00176906
0.00176064
0.00175226
0.0017439
0.00173553
0.00172717
0.00171883
0.00171052
0.00170228
0.0016941
0.001686
0.00167797
0.00167001
0.0016621
0.00165423
0.00164638
0.00163853
0.00163066
0.00162277
0.00161485
0.0016069
0.00159892
0.00159092
0.00158291
0.0015749
0.00156691
0.00155895
0.00155102
0.00154313
0.00153528
0.00152747
0.00151971
0.00151199
0.00150431
0.00149667
0.00148907
0.00148151
0.00147399
0.00146651
0.00145908
0.0014517
0.00144436
0.00143709
0.00142988
0.00142273
0.00141566
0.00140865
0.0014017
0.00139483
0.00138803
0.00138129
0.00137463
0.00136802
0.00136148
0.00135501
0.00134859
0.00134224
0.00133595
0.00175043
0.00174897
0.00174855
0.00174865
0.00174924
0.00175012
0.00175068
0.00175102
0.00175177
0.00175357
0.00175645
0.00175988
0.0017634
0.00176687
0.0017704
0.00177427
0.00177868
0.00178373
0.00178936
0.00179544
0.00180183
0.00180839
0.00181504
0.00182178
0.00182863
0.0018356
0.00184264
0.00184977
0.00185708
0.00186456
0.00187198
0.00187912
0.00188597
0.00189244
0.00189842
0.00190499
0.00191179
0.00191498
0.00191638
0.00191683
0.00191692
0.00191668
0.00191537
0.00191211
0.00190653
0.00189877
0.00188922
0.0018783
0.00186632
0.00185353
0.00184007
0.00182603
0.00181159
0.00179694
0.00178229
0.00176784
0.00175378
0.00174023
0.00172731
0.00171503
0.0017034
0.0016924
0.00168199
0.00167209
0.00166263
0.00165351
0.00164468
0.00163606
0.00162762
0.00161929
0.00161108
0.00160295
0.00159492
0.00158697
0.00157912
0.00157136
0.00156368
0.0015561
0.00154859
0.00154115
0.00153377
0.00152642
0.00151911
0.00151181
0.00150452
0.00149724
0.00148997
0.00148272
0.00147548
0.00146826
0.00146108
0.00145393
0.00144683
0.00143978
0.00143277
0.00142583
0.00141893
0.0014121
0.00140532
0.0013986
0.00139194
0.00138533
0.00137879
0.00137231
0.00136589
0.00135954
0.00135325
0.00134703
0.00134088
0.00133479
0.00132878
0.00132283
0.00131695
0.00131113
0.00130538
0.00129969
0.00129406
0.0012885
0.00128299
0.00127754
0.00127216
0.00126683
0.00126157
0.00125637
0.00125122
0.00165407
0.00165116
0.00164903
0.00164786
0.00164687
0.00164638
0.00164613
0.00164585
0.00164575
0.00164588
0.00164675
0.00164848
0.00165051
0.00165252
0.00165469
0.00165718
0.0016601
0.00166355
0.00166751
0.0016719
0.00167665
0.00168171
0.00168699
0.00169244
0.00169802
0.00170376
0.00170966
0.00171569
0.00172186
0.00172819
0.00173463
0.00174106
0.00174735