/*--------------------------------*- C++ -*----------------------------------*\
| =========                 |                                                 |
| \\      /  F ield         | OpenFOAM: The Open Source CFD Toolbox           |
|  \\    /   O peration     | Version:  v1706                                 |
|   \\  /    A nd           | Web:      www.OpenFOAM.com                      |
|    \\/     M anipulation  |                                                 |
\*---------------------------------------------------------------------------*/
FoamFile
{
    version     2.0;
    format      ascii;
    class       volScalarField;
    location    "4e-06";
    object      Tov;
}
// * * * * * * * * * * * * * * * * * * * * * * * * * * * * * * * * * * * * * //

dimensions      [0 0 0 1 0 0 0];


internalField   nonuniform List<scalar> 
29871
(
144.4
144.4
144.4
144.4
144.4
144.4
144.4
144.4
144.4
144.4
144.4
144.4
144.4
144.4
144.4
144.4
144.4
144.4
144.4
144.4
144.4
144.4
144.4
144.4
144.4
144.4
144.4
144.4
144.4
144.4
144.4
144.4
144.4
144.4
144.4
144.4
144.4
144.4
144.4
144.4
144.4
144.4
144.4
144.4
144.4
144.4
144.4
144.4
144.4
144.4
144.4
144.4
144.4
144.4
144.4
144.4
144.4
144.4
144.4
144.4
144.4
144.4
144.4
144.4
144.4
144.4
144.4
144.4
144.4
144.4
144.4
144.4
144.4
144.4
144.4
144.4
144.4
144.4
144.4
144.4
144.4
144.4
144.4
144.4
144.4
144.4
144.4
144.4
144.4
144.4
144.4
144.4
144.4
144.4
144.4
144.4
144.4
144.4
144.4
144.4
144.4
144.4
144.4
144.4
144.4
144.4
144.4
144.4
144.4
144.4
144.4
144.4
144.4
144.4
144.4
144.4
144.4
144.4
144.4
144.4
144.4
144.4
144.4
144.4
144.4
144.4
144.4
144.4
144.4
144.4
144.4
144.4
144.4
144.4
144.4
144.4
144.4
144.4
144.4
144.4
144.4
144.4
144.4
144.4
144.4
144.4
144.4
144.4
144.4
144.4
144.4
144.4
144.4
144.4
144.4
144.4
144.4
144.4
144.4
144.4
144.4
144.4
144.4
144.4
144.4
144.4
144.4
144.4
144.4
144.4
144.4
144.4
144.4
144.4
144.4
144.4
144.4
144.4
144.4
144.4
144.4
144.4
144.4
144.4
144.4
144.4
144.4
144.4
144.4
144.4
144.4
144.4
144.4
144.4
144.4
144.4
144.4
144.4
144.4
144.4
144.4
144.4
144.4
144.4
144.4
144.4
144.4
144.4
144.4
144.4
144.4
144.4
144.4
144.4
144.4
144.4
144.4
144.4
144.4
144.4
144.4
144.4
144.4
144.4
144.4
144.4
144.4
144.4
144.4
144.4
144.4
144.4
144.4
144.4
144.4
144.4
144.4
144.4
144.4
144.4
144.4
144.4
144.4
144.4
144.4
144.4
144.4
144.4
144.4
144.4
144.4
144.4
144.4
144.4
144.4
144.4
144.4
144.4
144.4
144.4
144.4
144.4
144.4
144.4
144.4
144.4
144.4
144.4
144.4
144.4
144.4
144.4
144.4
144.4
144.4
144.4
144.4
144.4
144.4
144.4
144.4
144.4
144.4
144.4
144.4
144.4
144.4
144.4
144.4
144.4
144.4
144.4
144.4
144.4
144.4
144.4
144.4
144.4
144.4
144.4
144.4
144.4
144.4
144.4
144.4
144.4
144.4
144.4
144.4
144.4
144.4
144.4
144.4
144.4
144.4
144.4
144.4
144.4
144.4
144.4
144.4
144.4
144.4
144.4
144.4
144.4
144.4
144.4
144.4
144.4
144.4
144.4
144.4
144.4
144.4
144.4
144.4
144.4
144.4
144.4
144.4
144.4
144.4
144.4
144.4
144.4
144.4
144.4
144.4
144.4
144.4
144.4
144.4
144.4
144.4
144.4
144.4
144.4
144.4
144.4
144.4
144.4
144.4
144.4
144.4
144.4
144.4
144.4
144.4
144.4
144.4
144.4
144.4
144.4
144.4
144.4
144.4
144.4
144.4
144.4
144.4
144.4
144.4
144.4
144.4
144.4
144.4
144.4
144.4
144.4
144.4
144.4
144.4
144.4
144.4
144.4
144.4
144.4
144.4
144.4
144.4
144.4
144.4
144.4
144.4
144.4
144.4
144.4
144.4
144.4
144.4
144.4
144.4
144.4
144.4
144.4
144.4
144.4
144.4
144.4
144.4
144.4
144.4
144.4
144.4
144.4
144.4
144.4
144.4
144.4
144.4
144.4
144.4
144.4
144.4
144.4
144.4
144.4
144.4
144.4
144.4
144.4
144.4
144.4
144.4
144.4
144.4
144.4
144.4
144.4
144.4
144.4
144.4
144.4
144.4
144.4
144.4
144.4
144.4
144.4
144.4
144.4
144.4
144.4
144.4
144.4
144.4
144.4
144.4
144.4
144.4
144.4
144.4
144.4
144.4
144.4
144.4
144.4
144.4
144.4
144.4
144.4
144.4
144.4
144.4
144.4
144.4
144.4
144.4
144.4
144.4
144.4
144.4
144.4
144.4
144.4
144.4
144.4
144.4
144.4
144.4
144.4
144.4
144.4
144.4
144.4
144.4
144.4
144.4
144.4
144.4
144.4
144.4
144.4
144.4
144.4
144.4
144.4
144.4
144.4
144.4
144.4
144.4
144.401
144.401
144.401
144.401
144.401
144.401
144.4
144.4
144.4
144.4
144.4
144.4
144.4
144.4
144.4
144.4
144.4
144.4
144.4
144.4
144.4
144.4
144.4
144.4
144.4
144.4
144.4
144.4
144.4
144.4
144.4
144.4
144.4
144.4
144.4
144.4
144.4
144.4
144.4
144.4
144.4
144.4
144.4
144.4
144.4
144.4
144.4
144.4
144.4
144.4
144.4
144.4
144.4
144.4
144.4
144.4
144.4
144.4
144.4
144.4
144.4
144.4
144.4
144.4
144.4
144.4
144.4
144.4
144.4
144.4
144.401
144.401
144.401
144.401
144.401
144.401
144.401
144.401
144.401
144.401
144.401
144.401
144.401
144.401
144.401
144.401
144.401
144.401
144.401
144.401
144.401
144.401
144.401
144.402
144.402
144.402
144.402
144.402
144.402
144.402
144.402
144.402
144.402
144.402
144.403
144.403
144.403
144.403
144.403
144.403
144.403
144.404
144.404
144.401
144.401
144.401
144.401
144.401
144.401
144.401
144.401
144.401
144.401
144.401
144.401
144.401
144.401
144.401
144.401
144.401
144.4
144.4
144.4
144.4
144.4
144.4
144.4
144.4
144.4
144.4
144.4
144.4
144.4
144.4
144.4
144.4
144.4
144.4
144.4
144.4
144.4
144.401
144.401
144.401
144.401
144.401
144.401
144.401
144.401
144.401
144.401
144.401
144.401
144.401
144.401
144.401
144.401
144.401
144.402
144.402
144.402
144.402
144.402
144.402
144.402
144.402
144.402
144.402
144.403
144.403
144.403
144.403
144.403
144.403
144.403
144.404
144.404
144.404
144.404
144.404
144.405
144.405
144.405
144.405
144.406
144.406
144.406
144.406
144.407
144.407
144.407
144.408
144.408
144.409
144.409
144.409
144.41
144.41
144.411
144.412
144.412
144.413
144.413
144.414
144.415
144.416
144.416
144.417
144.418
144.419
144.42
144.421
144.422
144.404
144.404
144.404
144.404
144.404
144.404
144.404
144.403
144.403
144.403
144.403
144.403
144.403
144.403
144.403
144.402
144.402
144.402
144.402
144.402
144.402
144.402
144.402
144.402
144.402
144.402
144.402
144.402
144.402
144.402
144.402
144.402
144.402
144.402
144.402
144.402
144.402
144.402
144.403
144.403
144.403
144.403
144.403
144.404
144.404
144.404
144.405
144.405
144.405
144.405
144.406
144.406
144.407
144.407
144.407
144.408
144.408
144.409
144.409
144.41
144.41
144.411
144.411
144.412
144.413
144.413
144.414
144.415
144.416
144.416
144.417
144.418
144.419
144.42
144.421
144.422
144.423
144.424
144.426
144.427
144.428
144.43
144.431
144.433
144.435
144.437
144.439
144.441
144.443
144.445
144.447
144.45
144.452
144.455
144.458
144.461
144.464
144.468
144.471
144.475
144.479
144.483
144.488
144.492
144.497
144.503
144.508
144.514
144.52
144.527
144.42
144.419
144.419
144.418
144.417
144.417
144.416
144.415
144.415
144.414
144.414
144.413
144.412
144.412
144.411
144.411
144.41
144.41
144.41
144.409
144.409
144.409
144.408
144.408
144.408
144.408
144.408
144.408
144.408
144.408
144.408
144.409
144.409
144.409
144.41
144.411
144.411
144.412
144.413
144.414
144.415
144.416
144.417
144.418
144.42
144.421
144.423
144.424
144.426
144.428
144.429
144.431
144.433
144.435
144.437
144.44
144.442
144.444
144.447
144.449
144.452
144.455
144.458
144.462
144.465
144.469
144.473
144.477
144.481
144.485
144.49
144.495
144.5
144.505
144.511
144.517
144.523
144.53
144.537
144.544
144.552
144.56
144.569
144.578
144.588
144.598
144.609
144.62
144.632
144.645
144.658
144.673
144.688
144.703
144.72
144.738
144.756
144.776
144.797
144.819
144.842
144.866
144.892
144.919
144.948
144.978
145.01
145.044
145.079
145.117
144.489
144.486
144.484
144.481
144.478
144.475
144.472
144.469
144.466
144.463
144.46
144.458
144.455
144.453
144.451
144.448
144.447
144.445
144.443
144.442
144.44
144.439
144.438
144.438
144.437
144.437
144.437
144.437
144.438
144.438
144.44
144.441
144.443
144.445
144.448
144.451
144.454
144.458
144.463
144.467
144.473
144.478
144.485
144.491
144.498
144.505
144.513
144.521
144.529
144.538
144.547
144.556
144.566
144.576
144.587
144.598
144.61
144.623
144.636
144.65
144.665
144.681
144.697
144.715
144.733
144.753
144.773
144.795
144.817
144.841
144.866
144.893
144.92
144.949
144.98
145.012
145.046
145.082
145.12
145.16
145.202
145.247
145.294
145.344
145.397
145.452
145.512
145.574
145.64
145.71
145.785
145.863
145.946
146.034
146.128
146.226
146.33
146.44
146.556
146.679
146.808
146.945
147.089
147.242
147.403
147.573
147.753
147.943
148.144
148.357
144.791
144.779
144.766
144.753
144.74
144.727
144.714
144.701
144.688
144.676
144.664
144.653
144.642
144.631
144.622
144.613
144.605
144.597
144.59
144.584
144.579
144.575
144.571
144.569
144.568
144.568
144.569
144.57
144.573
144.578
144.584
144.591
144.601
144.612
144.626
144.641
144.659
144.679
144.701
144.725
144.752
144.78
144.811
144.844
144.879
144.915
144.954
144.994
145.036
145.079
145.125
145.172
145.222
145.273
145.328
145.385
145.446
145.51
145.577
145.649
145.725
145.805
145.89
145.98
146.075
146.176
146.282
146.393
146.511
146.635
146.765
146.903
147.048
147.2
147.361
147.531
147.71
147.898
148.098
148.308
148.53
148.764
149.012
149.275
149.552
149.846
150.156
150.486
150.835
151.206
151.598
152.015
152.457
152.926
153.424
153.951
154.509
155.099
155.724
156.384
157.08
157.813
158.586
159.399
160.254
161.152
162.094
163.083
164.121
165.21
146.148
146.094
146.039
145.982
145.925
145.867
145.809
145.753
145.697
145.643
145.59
145.54
145.491
145.445
145.402
145.362
145.325
145.29
145.259
145.232
145.208
145.187
145.17
145.158
145.152
145.151
145.153
145.159
145.17
145.187
145.211
145.243
145.283
145.332
145.389
145.457
145.534
145.621
145.718
145.827
145.946
146.075
146.215
146.365
146.525
146.694
146.872
147.059
147.254
147.458
147.67
147.891
148.122
148.364
148.617
148.883
149.164
149.46
149.773
150.105
150.457
150.829
151.223
151.64
152.082
152.549
153.042
153.563
154.113
154.693
155.305
155.95
156.63
157.347
158.102
158.897
159.735
160.616
161.544
162.52
163.545
164.622
165.754
166.941
168.186
169.493
170.864
172.303
173.813
175.399
177.066
178.819
180.664
182.606
184.653
186.809
189.082
191.476
193.997
196.65
199.438
202.363
205.428
208.632
211.975
215.456
219.071
222.818
226.692
230.69
234.809
151.718
151.489
151.255
151.017
150.776
150.535
150.296
150.061
149.832
149.61
149.395
149.189
148.993
148.808
148.634
148.473
148.325
148.19
148.069
147.962
147.87
147.793
147.734
147.696
147.686
147.692
147.709
147.747
147.811
147.904
148.029
148.189
148.386
148.622
148.901
149.223
149.59
150.004
150.466
150.976
151.534
152.138
152.788
153.482
154.218
154.995
155.81
156.663
157.552
158.479
159.442
160.445
161.49
162.58
163.722
164.919
166.177
167.499
168.89
170.353
171.891
173.509
175.207
176.989
178.856
180.811
182.856
184.995
187.23
189.567
192.009
194.561
197.23
200.02
202.937
205.986
209.171
212.496
215.963
219.575
223.33
227.228
231.268
235.446
239.761
244.208
248.785
253.491
258.324
263.286
268.38
273.612
278.99
284.523
290.225
296.111
302.197
308.501
315.041
321.833
328.894
336.235
343.867
351.792
360.009
368.51
377.28
386.295
395.524
404.928
414.463
424.077
433.715
172.919
172.063
171.187
170.295
169.396
168.496
167.605
166.73
165.878
165.052
164.255
163.492
162.765
162.079
161.438
160.845
160.304
159.815
159.38
159
158.677
158.416
158.231
158.154
158.163
158.214
158.335
158.553
158.883
159.336
159.922
160.654
161.543
162.598
163.826
165.233
166.823
168.599
170.56
172.7
175.011
177.481
180.098
182.847
185.715
188.692
191.768
194.935
198.192
201.535
204.967
208.494
212.126
215.877
219.761
223.791
227.976
232.323
236.836
241.516
246.361
251.368
256.529
261.836
267.281
272.857
278.559
284.383
290.328
296.399
302.601
308.942
315.437
322.097
328.939
335.977
343.225
350.693
358.391
366.321
374.483
382.868
391.462
400.245
409.191
418.264
427.428
436.639
445.85
455.013
464.079
473
481.729
490.226
498.455
506.385
513.996
521.271
528.204
534.794
541.056
546.999
552.63
557.958
562.995
567.753
572.245
576.48
580.471
584.23
587.767
591.094
594.223
241.807
239.586
237.282
234.914
232.489
230.012
227.497
224.969
222.458
219.988
217.573
215.225
212.95
210.758
208.662
206.679
204.823
203.107
201.541
200.135
198.898
197.83
196.932
196.243
195.85
195.821
195.939
196.259
196.869
197.813
199.129
200.849
203.01
205.644
208.776
212.418
216.572
221.234
226.398
232.049
238.154
244.666
251.525
258.663
266.011
273.503
281.081
288.696
296.316
303.922
311.507
319.076
326.642
334.23
341.874
349.618
357.505
365.565
373.819
382.276
390.939
399.801
408.842
418.032
427.333
436.696
446.07
455.401
464.634
473.716
482.598
491.236
499.592
507.638
515.351
522.72
529.737
536.403
542.721
548.702
554.362
559.718
564.777
569.549
574.045
578.276
582.254
585.99
589.495
592.781
595.862
598.75
601.462
604.014
606.427
608.723
610.93
613.075
615.183
617.277
619.381
621.581
623.908
626.222
628.527
630.84
633.174
635.51
637.845
640.188
642.544
644.916
647.307
649.716
652.145
375.338
371.434
367.403
363.291
359.087
354.761
350.322
345.822
341.337
336.92
332.594
328.367
324.248
320.251
316.405
312.748
309.319
306.15
303.267
300.708
298.506
296.644
295.101
294.067
293.933
294.163
294.81
296.037
297.937
300.582
304.034
308.342
313.552
319.698
326.773
334.729
343.496
353.011
363.219
374.057
385.422
397.185
409.2
421.32
433.397
445.298
456.901
468.1
478.818
489.009
498.644
507.709
516.212
524.164
531.592
538.563
545.13
551.294
557.075
562.526
567.68
572.544
577.122
581.422
585.454
589.229
592.754
596.043
599.11
601.97
604.64
607.14
609.492
611.721
613.854
615.918
617.943
619.948
621.953
624.012
626.187
628.344
630.484
632.623
634.776
636.945
639.113
641.286
643.47
645.668
647.884
650.118
652.37
654.643
656.937
659.251
661.581
663.925
666.273
668.618
670.969
673.256
675.394
677.513
679.627
681.733
683.829
685.97
688.182
690.461
692.802
695.201
697.654
700.157
702.702
705.284
554.649
551.782
548.58
545.237
541.841
538.431
534.95
531.265
527.424
523.565
519.713
515.771
511.651
507.364
503.012
498.694
494.439
490.233
486.069
481.958
477.923
474.006
470.267
466.765
463.537
460.621
458.108
456.067
454.412
453.138
452.883
453.293
454.285
455.955
458.41
461.769
466.104
471.419
477.654
484.78
492.816
501.597
510.819
520.224
529.638
538.947
548.024
556.71
564.871
572.438
579.36
585.593
591.135
596.017
600.276
603.964
607.146
609.895
612.291
614.421
616.361
618.162
619.871
621.558
623.29
625.078
627.006
628.989
630.979
632.991
635.04
637.136
639.264
641.412
643.578
645.764
647.966
650.185
652.418
654.664
656.919
659.178
661.435
663.678
665.905
668.125
670.304
672.342
674.357
676.372
678.385
680.389
682.401
684.47
686.602
688.791
691.034
693.326
695.662
698.036
700.442
702.871
705.317
707.771
710.224
712.678
715.133
717.579
720.012
722.479
725.012
727.62
730.312
733.103
735.965
738.883
741.854
744.874
747.94
751.045
754.187
757.362
760.565
618.686
615.782
612.882
610.004
607.295
604.645
601.762
598.862
596.084
593.429
590.952
588.542
586.183
583.874
581.587
579.394
577.349
575.465
573.716
572.109
570.65
569.333
568.182
567.203
566.391
565.792
565.496
565.454
565.602
566.098
567.066
568.186
569.58
571.384
573.623
576.326
579.468
582.899
586.552
590.57
594.945
599.198
603.289
607.351
611.375
615.27
618.977
622.504
625.905
629.119
632.245
635.309
638.23
640.989
643.609
646.101
648.486
650.784
653.011
655.187
657.322
659.403
661.413
663.395
665.389
667.379
669.264
671.101
672.967
674.876
676.82
678.781
680.787
682.868
685.019
687.227
689.483
691.778
694.102
696.446
698.8
701.154
703.503
705.852
708.196
710.527
712.842
715.174
717.557
719.998
722.503
725.087
727.75
730.467
733.232
736.041
738.891
741.777
744.696
747.645
750.619
753.619
756.645
759.699
762.785
765.911
769.083
772.309
775.604
778.975
782.424
785.947
789.535
793.179
796.867
800.596
804.364
808.169
812.011
815.888
819.802
823.753
827.745
654.195
651.525
648.88
646.272
643.859
641.493
638.85
636.199
633.637
631.226
629
626.843
624.735
622.683
620.667
618.723
616.899
615.208
613.654
612.253
611.017
609.951
609.056
608.324
607.751
607.43
607.427
607.558
607.911
608.55
609.488
610.666
612.081
613.764
615.747
618.054
620.659
623.487
626.511
629.819
633.39
636.855
640.383
644.032
647.759
651.542
655.315
659.023
662.704
666.222
669.443
672.509
675.478
678.318
681.039
683.707
686.333
688.9
691.395
693.811
696.144
698.389
700.56
702.692
704.801
706.889
708.977
711.117
713.335
715.639
718.035
720.536
723.126
725.777
728.48
731.224
734.004
736.812
739.644
742.497
745.371
748.265
751.186
754.137
757.122
760.149
763.228
766.371
769.58
772.851
776.182
779.566
782.994
786.459
789.959
793.494
797.064
800.668
804.307
807.983
811.699
815.458
819.263
823.118
827.028
830.993
835.017
839.099
843.238
847.427
851.663
855.939
860.251
864.596
868.974
873.385
877.829
882.308
886.821
891.37
895.957
900.583
905.249
684.712
682.475
680.239
678.091
676.086
674.054
671.901
669.69
667.526
665.512
663.653
661.889
660.194
658.548
656.935
655.367
653.88
652.505
651.256
650.143
649.175
648.352
647.665
647.1
646.657
646.465
646.489
646.629
646.969
647.555
648.382
649.428
650.691
652.192
653.961
656.007
658.297
660.796
663.533
666.483
669.453
672.66
676.115
679.783
683.487
687.209
690.965
694.728
698.473
702.148
705.753
709.343
712.933
716.519
720.084
723.579
726.975
730.257
733.418
736.457
739.387
742.226
745.002
747.744
750.477
753.231
756.04
758.923
761.89
764.946
768.086
771.3
774.572
777.89
781.25
784.647
788.079
791.545
795.047
798.587
802.167
805.792
809.463
813.183
816.952
820.773
824.644
828.56
832.518
836.514
840.542
844.602
848.692
852.813
856.967
861.154
865.376
869.636
873.934
878.272
882.652
887.074
891.539
896.045
900.591
905.176
909.796
914.448
919.128
923.834
928.563
933.315
938.089
942.887
947.708
952.552
957.42
962.311
967.227
972.165
977.126
982.108
987.11
992.13
997.165
716.623
714.897
713.174
711.53
709.973
708.403
706.771
705.084
703.421
701.854
700.384
698.992
697.666
696.391
695.146
693.925
692.746
691.634
690.616
689.714
688.941
688.293
687.755
687.311
686.974
686.848
686.869
686.995
687.305
687.835
688.581
689.534
690.706
692.125
693.807
695.749
697.985
700.453
702.992
705.805
708.947
712.412
716.121
719.977
723.931
727.994
732.185
736.491
740.888
745.359
749.892
754.467
759.05
763.599
768.067
772.416
776.626
780.689
784.609
788.396
792.07
795.655
799.179
802.668
806.151
809.652
813.194
816.788
820.443
824.16
827.937
831.766
835.645
839.569
843.535
847.542
851.588
855.674
859.801
863.971
868.182
872.435
876.728
881.059
885.426
889.823
894.248
898.698
903.169
907.663
912.177
916.713
921.273
925.857
930.467
935.103
939.766
944.456
949.172
953.914
958.68
963.47
968.28
973.108
977.953
982.812
987.684
992.565
997.456
1002.36
1007.26
1012.18
1017.1
1022.03
1026.97
1031.92
1036.86
1041.81
1046.77
1051.72
1056.67
1061.61
1066.55
1071.48
1076.4
753.884
752.758
751.671
750.605
749.584
748.56
747.489
746.374
745.277
744.243
743.259
742.311
741.408
740.546
739.707
738.879
738.069
737.292
736.575
735.943
735.412
734.98
734.635
734.365
734.206
734.202
734.275
734.481
734.858
735.428
736.195
737.166
738.363
739.809
741.507
743.502
745.823
748.201
750.842
753.865
757.304
761.092
765.112
769.308
773.692
778.294
783.127
788.17
793.384
798.723
804.136
809.566
814.962
820.277
825.476
830.532
835.432
840.171
844.755
849.195
853.508
857.718
861.849
865.928
869.982
874.032
878.1
882.201
886.344
890.535
894.774
899.06
903.39
907.761
912.17
916.614
921.091
925.6
930.14
934.709
939.306
943.929
948.574
953.238
957.918
962.611
967.316
972.03
976.754
981.486
986.227
990.978
995.738
1000.51
1005.29
1010.08
1014.87
1019.68
1024.49
1029.3
1034.11
1038.93
1043.75
1048.56
1053.37
1058.17
1062.96
1067.75
1072.53
1077.3
1082.06
1086.81
1091.55
1096.27
1100.98
1105.66
1110.33
1114.98
1119.6
1124.2
1128.77
1133.32
1137.83
1142.3
1146.75
797.473
796.982
796.535
796.133
795.718
795.32
794.912
794.464
793.974
793.468
793.016
792.598
792.179
791.761
791.367
790.984
790.601
790.224
789.864
789.534
789.253
789.038
788.894
788.823
788.821
788.878
789.034
789.291
789.668
790.191
790.883
791.758
792.835
794.141
795.692
797.496
799.659
801.981
804.488
807.374
810.687
814.433
818.545
822.913
827.494
832.329
837.46
842.883
848.549
854.394
860.349
866.351
872.339
878.264
884.084
889.768
895.292
900.642
905.813
910.808
915.638
920.323
924.885
929.351
933.751
938.111
942.456
946.808
951.181
955.587
960.03
964.512
969.029
973.579
978.158
982.76
987.384
992.027
996.687
1001.36
1006.05
1010.75
1015.45
1020.17
1024.88
1029.6
1034.31
1039.02
1043.73
1048.42
1053.11
1057.79
1062.47
1067.13
1071.78
1076.43
1081.06
1085.68
1090.29
1094.88
1099.45
1104.01
1108.54
1113.06
1117.55
1122.02
1126.47
1130.89
1135.28
1139.64
1143.97
1148.27
1152.54
1156.77
1160.97
1165.12
1169.23
1173.3
1177.33
1181.31
1185.24
1189.13
1192.96
1196.74
1200.46
1204.13
844.762
844.998
845.259
845.529
845.785
846.031
846.257
846.45
846.593
846.691
846.803
846.976
847.106
847.16
847.227
847.316
847.376
847.445
847.531
847.618
847.711
847.835
848.007
848.23
848.499
848.821
849.213
849.691
850.276
850.991
851.857
852.896
854.137
855.607
857.318
859.304
861.626
864.042
866.794
869.965
873.565
877.595
882.008
886.681
891.585
896.782
902.306
908.125
914.169
920.363
926.636
932.924
939.172
945.33
951.358
957.224
962.904
968.387
973.669
978.755
983.663
988.413
993.033
997.552
1002
1006.41
1010.79
1015.18
1019.58
1024.01
1028.45
1032.92
1037.42
1041.93
1046.45
1050.98
1055.52
1060.06
1064.61
1069.15
1073.7
1078.24
1082.77
1087.29
1091.8
1096.29
1100.77
1105.22
1109.65
1114.05
1118.43
1122.78
1127.1
1131.4
1135.66
1139.89
1144.1
1148.27
1152.41
1156.51
1160.58
1164.61
1168.6
1172.55
1176.46
1180.33
1184.15
1187.93
1191.66
1195.34
1198.97
1202.55
1206.08
1209.54
1212.96
1216.31
1219.6
1222.83
1225.99
1229.09
1232.13
1235.1
1238
1240.84
1243.6
1246.3
1248.92
1251.46
895.574
896.484
897.39
898.28
899.147
899.989
900.795
901.556
902.266
902.929
903.573
904.221
904.827
905.326
905.806
906.32
906.724
907.171
907.681
908.153
908.567
908.985
909.439
909.928
910.45
911.013
911.634
912.332
913.127
914.039
915.094
916.318
917.746
919.402
921.298
923.514
925.939
928.575
931.596
935.033
938.878
943.133
947.772
952.659
957.777
963.196
968.929
974.921
981.093
987.369
993.681
999.97
1006.18
1012.27
1018.2
1023.93
1029.45
1034.75
1039.84
1044.72
1049.43
1053.97
1058.39
1062.71
1066.97
1071.18
1075.37
1079.56
1083.75
1087.95
1092.16
1096.38
1100.61
1104.84
1109.08
1113.3
1117.53
1121.74
1125.94
1130.13
1134.31
1138.46
1142.59
1146.7
1150.77
1154.81
1158.82
1162.78
1166.7
1170.58
1174.41
1178.19
1181.93
1185.63
1189.27
1192.87
1196.42
1199.92
1203.37
1206.77
1210.12
1213.41
1216.65
1219.82
1222.94
1226
1229
1231.94
1234.81
1237.61
1240.35
1243.03
1245.64
1248.17
1250.64
1253.03
1255.34
1257.58
1259.73
1261.81
1263.79
1265.7
1267.52
1269.26
1270.92
1272.5
1274
1275.42
948.224
949.692
951.131
952.536
953.901
955.221
956.491
957.701
958.851
959.948
961.003
962.016
962.964
963.823
964.634
965.434
966.077
966.769
967.632
968.408
969.015
969.638
970.312
971.005
971.716
972.463
973.267
974.147
975.119
976.205
977.432
978.829
980.431
982.265
984.353
986.766
989.32
992.193
995.459
999.105
1003.12
1007.52
1012.28
1017.26
1022.47
1027.95
1033.7
1039.65
1045.71
1051.82
1057.92
1063.95
1069.86
1075.6
1081.15
1086.47
1091.57
1096.44
1101.09
1105.54
1109.81
1113.93
1117.94
1121.85
1125.71
1129.52
1133.31
1137.08
1140.86
1144.63
1148.4
1152.18
1155.94
1159.7
1163.45
1167.19
1170.9
1174.6
1178.27
1181.91
1185.53
1189.11
1192.64
1196.14
1199.58
1202.98
1206.32
1209.6
1212.82
1215.99
1219.09
1222.13
1225.12
1228.03
1230.89
1233.69
1236.42
1239.09
1241.69
1244.24
1246.71
1249.12
1251.47
1253.74
1255.94
1258.06
1260.11
1262.07
1263.96
1265.76
1267.48
1269.12
1270.69
1272.18
1273.6
1274.93
1276.18
1277.34
1278.41
1279.37
1280.21
1280.9
1281.49
1281.97
1282.34
1282.59
1282.73
1282.77
1000.91
1002.78
1004.6
1006.37
1008.08
1009.72
1011.3
1012.81
1014.24
1015.61
1016.91
1018.14
1019.3
1020.36
1021.38
1022.34
1023.09
1023.9
1025
1025.89
1026.6
1027.36
1028.17
1028.98
1029.79
1030.65
1031.58
1032.58
1033.69
1034.91
1036.26
1037.79
1039.55
1041.53
1043.81
1046.32
1049.05
1052.12
1055.55
1059.32
1063.41
1067.84
1072.62
1077.58
1082.72
1088.1
1093.67
1099.37
1105.11
1110.85
1116.51
1122.05
1127.43
1132.61
1137.56
1142.28
1146.76
1151
1155.03
1158.87
1162.54
1166.07
1169.5
1172.84
1176.12
1179.36
1182.58
1185.78
1188.97
1192.15
1195.33
1198.49
1201.64
1204.77
1207.89
1210.97
1214.03
1217.06
1220.05
1223
1225.91
1228.76
1231.56
1234.29
1236.97
1239.58
1242.11
1244.58
1246.98
1249.31
1251.57
1253.76
1255.87
1257.91
1259.88
1261.76
1263.57
1265.3
1266.95
1268.53
1270.03
1271.46
1272.81
1274.09
1275.29
1276.41
1277.44
1278.38
1279.2
1279.9
1280.47
1280.95
1281.32
1281.58
1281.73
1281.79
1281.76
1281.65
1281.45
1281.2
1280.91
1280.62
1280.27
1279.82
1279.3
1278.74
1278.11
1277.37
1276.55
1053.98
1056.01
1057.97
1059.85
1061.65
1063.37
1065
1066.55
1068.01
1069.39
1070.69
1071.9
1073.03
1074.12
1075.06
1075.79
1076.76
1077.84
1078.69
1079.43
1080.27
1081.11
1081.94
1082.78
1083.69
1084.68
1085.76
1086.94
1088.23
1089.66
1091.3
1093.16
1095.27
1097.66
1100.24
1103.11
1106.3
1109.8
1113.58
1117.65
1122
1126.65
1131.45
1136.39
1141.48
1146.7
1151.96
1157.21
1162.38
1167.43
1172.31
1176.99
1181.44
1185.65
1189.6
1193.32
1196.81
1200.08
1203.18
1206.12
1208.93
1211.65
1214.28
1216.87
1219.42
1221.94
1224.44
1226.93
1229.41
1231.87
1234.31
1236.73
1239.13
1241.5
1243.83
1246.13
1248.39
1250.6
1252.75
1254.85
1256.89
1258.86
1260.75
1262.56
1264.29
1265.94
1267.5
1268.98
1270.38
1271.71
1272.96
1274.14
1275.24
1276.26
1277.19
1278.03
1278.76
1279.35
1279.85
1280.25
1280.54
1280.73
1280.83
1280.84
1280.78
1280.63
1280.41
1280.15
1279.88
1279.58
1279.18
1278.72
1278.22
1277.64
1276.96
1276.2
1275.34
1274.41
1273.38
1272.25
1271
1269.64
1268.2
1266.66
1265
1263.24
1261.38
1259.43
1101.75
1103.82
1105.79
1107.68
1109.46
1111.15
1112.75
1114.24
1115.65
1116.96
1118.17
1119.3
1120.37
1121.36
1122.2
1122.87
1123.87
1124.76
1125.49
1126.23
1127.02
1127.8
1128.58
1129.4
1130.3
1131.3
1132.4
1133.59
1134.9
1136.38
1138.08
1140
1142.18
1144.59
1147.23
1150.15
1153.34
1156.79
1160.48
1164.4
1168.56
1172.94
1177.45
1182.02
1186.68
1191.38
1196.05
1200.65
1205.11
1209.4
1213.49
1217.35
1220.95
1224.3
1227.4
1230.26
1232.9
1235.34
1237.61
1239.73
1241.74
1243.66
1245.52
1247.33
1249.1
1250.85
1252.58
1254.3
1256
1257.69
1259.35
1260.98
1262.58
1264.13
1265.64
1267.1
1268.51
1269.86
1271.15
1272.38
1273.54
1274.62
1275.62
1276.53
1277.35
1278.04
1278.61
1279.08
1279.44
1279.7
1279.86
1279.94
1279.93
1279.84
1279.68
1279.46
1279.21
1278.96
1278.64
1278.24
1277.81
1277.3
1276.7
1276.02
1275.25
1274.4
1273.46
1272.43
1271.29
1270.05
1268.71
1267.29
1265.75
1264.12
1262.39
1260.57
1258.65
1256.64
1254.51
1252.28
1249.95
1247.51
1244.98
1242.34
1239.6
1236.76
1233.82
1230.78
1146.8
1148.63
1150.36
1151.98
1153.5
1154.91
1156.21
1157.42
1158.53
1159.56
1160.5
1161.38
1162.16
1162.79
1163.45
1164.21
1164.87
1165.46
1166.11
1166.77
1167.43
1168.12
1168.88
1169.73
1170.68
1171.73
1172.89
1174.19
1175.67
1177.37
1179.3
1181.46
1183.84
1186.46
1189.31
1192.39
1195.68
1199.16
1202.82
1206.66
1210.64
1214.72
1218.8
1222.87
1226.92
1230.88
1234.71
1238.36
1241.8
1245
1247.95
1250.64
1253.07
1255.25
1257.2
1258.94
1260.5
1261.91
1263.18
1264.36
1265.45
1266.48
1267.46
1268.41
1269.33
1270.25
1271.14
1272.03
1272.9
1273.75
1274.56
1275.34
1276.06
1276.71
1277.26
1277.73
1278.11
1278.41
1278.63
1278.76
1278.81
1278.78
1278.67
1278.5
1278.3
1278.08
1277.78
1277.43
1277.02
1276.52
1275.93
1275.27
1274.52
1273.69
1272.77
1271.77
1270.65
1269.44
1268.15
1266.75
1265.26
1263.67
1262.01
1260.24
1258.39
1256.43
1254.37
1252.21
1249.95
1247.59
1245.14
1242.58
1239.94
1237.2
1234.36
1231.42
1228.39
1225.26
1222.03
1218.7
1215.28
1211.76
1208.14
1204.44
1200.63
1196.74
1192.74
1185.61
1187.05
1188.38
1189.6
1190.71
1191.72
1192.63
1193.45
1194.19
1194.85
1195.45
1195.95
1196.37
1196.85
1197.31
1197.73
1198.15
1198.61
1199.1
1199.61
1200.18
1200.83
1201.58
1202.44
1203.4
1204.49
1205.73
1207.16
1208.8
1210.66
1212.74
1215.02
1217.51
1220.19
1223.04
1226.06
1229.23
1232.52
1235.92
1239.39
1242.89
1246.36
1249.77
1253.06
1256.22
1259.2
1261.97
1264.51
1266.79
1268.8
1270.54
1272.01
1273.24
1274.25
1275.07
1275.72
1276.24
1276.66
1276.98
1277.24
1277.45
1277.59
1277.68
1277.74
1277.76
1277.74
1277.71
1277.65
1277.56
1277.44
1277.28
1277.11
1276.93
1276.77
1276.55
1276.3
1275.97
1275.56
1275.06
1274.48
1273.81
1273.06
1272.22
1271.28
1270.23
1269.09
1267.86
1266.52
1265.1
1263.59
1262
1260.32
1258.54
1256.66
1254.69
1252.62
1250.46
1248.2
1245.85
1243.41
1240.87
1238.25
1235.53
1232.72
1229.81
1226.8
1223.71
1220.52
1217.23
1213.86
1210.39
1206.83
1203.18
1199.44
1195.61
1191.68
1187.67
1183.57
1179.37
1175.09
1170.73
1166.27
1161.73
1157.11
1152.4
1147.61
1142.73
1137.77
1216.18
1217.23
1218.17
1219
1219.73
1220.36
1220.89
1221.35
1221.74
1222.06
1222.32
1222.51
1222.68
1222.86
1223.02
1223.2
1223.4
1223.65
1223.93
1224.27
1224.68
1225.18
1225.8
1226.52
1227.36
1228.34
1229.48
1230.8
1232.32
1234.04
1235.95
1238.05
1240.31
1242.72
1245.26
1247.91
1250.66
1253.49
1256.36
1259.24
1262.08
1264.84
1267.48
1269.95
1272.26
1274.33
1276.17
1277.76
1279.1
1280.16
1280.95
1281.46
1281.7
1281.74
1281.6
1281.28
1280.83
1280.29
1279.68
1279.03
1278.37
1277.74
1277.15
1276.55
1275.98
1275.41
1274.82
1274.2
1273.54
1272.85
1272.12
1271.34
1270.49
1269.55
1268.53
1267.43
1266.23
1264.96
1263.59
1262.13
1260.58
1258.94
1257.19
1255.34
1253.39
1251.34
1249.21
1246.98
1244.67
1242.27
1239.77
1237.19
1234.52
1231.75
1228.89
1225.94
1222.9
1219.78
1216.56
1213.26
1209.87
1206.38
1202.81
1199.15
1195.4
1191.57
1187.65
1183.64
1179.54
1175.36
1171.1
1166.75
1162.32
1157.81
1153.21
1148.54
1143.78
1138.95
1134.04
1129.05
1123.98
1118.85
1113.63
1108.35
1103
1097.58
1092.09
1086.53
1240.07
1240.66
1241.14
1241.52
1241.81
1242
1242.12
1242.17
1242.17
1242.12
1242.01
1241.87
1241.72
1241.59
1241.47
1241.38
1241.34
1241.35
1241.42
1241.56
1241.79
1242.12
1242.56
1243.12
1243.8
1244.63
1245.61
1246.77
1248.11
1249.63
1251.3
1253.12
1255.06
1257.11
1259.24
1261.45
1263.7
1265.97
1268.23
1270.45
1272.59
1274.59
1276.4
1277.98
1279.33
1280.42
1281.23
1281.78
1282.06
1282.08
1281.89
1281.52
1281
1280.3
1279.45
1278.52
1277.49
1276.38
1275.22
1274.02
1272.8
1271.56
1270.27
1268.98
1267.66
1266.32