/*--------------------------------*- C++ -*----------------------------------*\
| =========                 |                                                 |
| \\      /  F ield         | OpenFOAM: The Open Source CFD Toolbox           |
|  \\    /   O peration     | Version:  v1706                                 |
|   \\  /    A nd           | Web:      www.OpenFOAM.com                      |
|    \\/     M anipulation  |                                                 |
\*---------------------------------------------------------------------------*/
FoamFile
{
    version     2.0;
    format      ascii;
    class       volScalarField;
    location    "4e-06";
    object      Tv;
}
// * * * * * * * * * * * * * * * * * * * * * * * * * * * * * * * * * * * * * //

dimensions      [0 0 0 1 0 0 0];


internalField   nonuniform List<scalar> 
29871
(
144.4
144.4
144.4
144.4
144.4
144.4
144.4
144.4
144.4
144.4
144.4
144.4
144.4
144.4
144.4
144.4
144.4
144.4
144.4
144.4
144.4
144.4
144.4
144.4
144.4
144.4
144.4
144.4
144.4
144.4
144.4
144.4
144.4
144.4
144.4
144.4
144.4
144.4
144.4
144.4
144.4
144.4
144.4
144.4
144.4
144.4
144.4
144.4
144.4
144.4
144.4
144.4
144.4
144.4
144.4
144.4
144.4
144.4
144.4
144.4
144.4
144.4
144.4
144.4
144.4
144.4
144.4
144.4
144.4
144.4
144.4
144.4
144.4
144.4
144.4
144.4
144.4
144.4
144.4
144.4
144.4
144.4
144.4
144.4
144.4
144.4
144.4
144.4
144.4
144.4
144.4
144.4
144.4
144.4
144.4
144.4
144.4
144.4
144.4
144.4
144.4
144.4
144.4
144.4
144.4
144.4
144.4
144.4
144.4
144.4
144.4
144.4
144.4
144.4
144.4
144.4
144.4
144.4
144.4
144.4
144.4
144.4
144.4
144.4
144.4
144.4
144.4
144.4
144.4
144.4
144.4
144.4
144.4
144.4
144.4
144.4
144.4
144.4
144.4
144.4
144.4
144.4
144.4
144.4
144.4
144.4
144.4
144.4
144.4
144.4
144.4
144.4
144.4
144.4
144.4
144.4
144.4
144.4
144.4
144.4
144.4
144.4
144.4
144.4
144.4
144.4
144.4
144.4
144.4
144.4
144.4
144.4
144.4
144.4
144.4
144.4
144.4
144.4
144.4
144.4
144.4
144.4
144.4
144.4
144.4
144.4
144.4
144.4
144.4
144.4
144.4
144.4
144.4
144.4
144.4
144.4
144.4
144.4
144.4
144.4
144.4
144.4
144.4
144.4
144.4
144.4
144.4
144.4
144.4
144.4
144.4
144.4
144.4
144.4
144.4
144.4
144.4
144.4
144.4
144.4
144.4
144.4
144.4
144.4
144.4
144.4
144.4
144.4
144.4
144.4
144.4
144.4
144.4
144.4
144.4
144.4
144.4
144.4
144.4
144.4
144.4
144.4
144.4
144.4
144.4
144.4
144.4
144.4
144.4
144.4
144.4
144.4
144.4
144.4
144.4
144.4
144.4
144.4
144.4
144.4
144.4
144.4
144.4
144.4
144.4
144.4
144.4
144.4
144.4
144.4
144.4
144.4
144.4
144.4
144.4
144.4
144.4
144.4
144.4
144.4
144.4
144.4
144.4
144.4
144.4
144.4
144.4
144.4
144.4
144.4
144.4
144.4
144.4
144.4
144.4
144.4
144.4
144.4
144.4
144.4
144.4
144.4
144.4
144.4
144.4
144.4
144.4
144.4
144.4
144.4
144.4
144.4
144.4
144.4
144.4
144.4
144.4
144.4
144.4
144.4
144.4
144.4
144.4
144.4
144.4
144.4
144.4
144.4
144.4
144.4
144.4
144.4
144.4
144.4
144.4
144.4
144.4
144.4
144.4
144.4
144.4
144.4
144.4
144.4
144.4
144.4
144.4
144.4
144.4
144.4
144.4
144.4
144.4
144.4
144.4
144.4
144.4
144.4
144.4
144.4
144.4
144.4
144.4
144.4
144.4
144.4
144.4
144.4
144.4
144.4
144.4
144.4
144.4
144.4
144.4
144.4
144.4
144.4
144.4
144.4
144.4
144.4
144.4
144.4
144.4
144.4
144.4
144.4
144.4
144.4
144.4
144.4
144.4
144.4
144.4
144.4
144.4
144.4
144.4
144.4
144.4
144.4
144.4
144.4
144.4
144.4
144.4
144.4
144.4
144.4
144.4
144.4
144.4
144.4
144.4
144.4
144.4
144.4
144.4
144.4
144.4
144.4
144.4
144.4
144.4
144.4
144.4
144.4
144.4
144.4
144.4
144.4
144.4
144.4
144.4
144.4
144.4
144.4
144.4
144.4
144.4
144.4
144.4
144.4
144.4
144.4
144.4
144.4
144.4
144.4
144.4
144.4
144.4
144.4
144.4
144.4
144.4
144.4
144.4
144.4
144.4
144.4
144.4
144.4
144.4
144.4
144.4
144.4
144.4
144.4
144.4
144.4
144.4
144.4
144.4
144.4
144.4
144.4
144.4
144.4
144.4
144.4
144.4
144.4
144.4
144.4
144.4
144.4
144.4
144.4
144.4
144.4
144.4
144.4
144.4
144.4
144.4
144.4
144.4
144.4
144.4
144.4
144.4
144.4
144.4
144.4
144.4
144.4
144.4
144.4
144.4
144.4
144.4
144.4
144.4
144.4
144.4
144.4
144.4
144.4
144.4
144.4
144.4
144.4
144.4
144.4
144.4
144.4
144.4
144.4
144.4
144.4
144.4
144.4
144.4
144.4
144.4
144.4
144.4
144.4
144.4
144.4
144.4
144.4
144.4
144.4
144.4
144.4
144.4
144.4
144.4
144.4
144.4
144.4
144.4
144.4
144.4
144.4
144.4
144.4
144.4
144.4
144.4
144.4
144.4
144.4
144.4
144.4
144.4
144.4
144.4
144.4
144.4
144.4
144.4
144.4
144.4
144.4
144.4
144.4
144.4
144.4
144.4
144.4
144.4
144.4
144.4
144.4
144.4
144.4
144.4
144.4
144.4
144.4
144.4
144.4
144.4
144.4
144.4
144.4
144.4
144.4
144.4
144.4
144.4
144.4
144.4
144.4
144.4
144.4
144.4
144.4
144.4
144.4
144.4
144.4
144.4
144.4
144.4
144.4
144.4
144.4
144.4
144.4
144.4
144.4
144.4
144.4
144.4
144.4
144.4
144.4
144.4
144.4
144.4
144.4
144.4
144.4
144.4
144.4
144.4
144.4
144.4
144.4
144.4
144.4
144.4
144.4
144.4
144.4
144.4
144.4
144.4
144.4
144.4
144.4
144.4
144.4
144.4
144.4
144.4
144.4
144.4
144.4
144.4
144.4
144.4
144.4
144.4
144.4
144.4
144.4
144.4
144.4
144.4
144.4
144.4
144.4
144.4
144.4
144.4
144.4
144.4
144.4
144.4
144.4
144.4
144.4
144.4
144.4
144.4
144.4
144.4
144.4
144.4
144.4
144.4
144.4
144.4
144.4
144.4
144.4
144.4
144.4
144.4
144.4
144.4
144.4
144.4
144.4
144.4
144.4
144.4
144.4
144.4
144.4
144.4
144.4
144.4
144.4
144.4
144.4
144.4
144.4
144.4
144.4
144.4
144.4
144.4
144.4
144.4
144.4
144.4
144.4
144.4
144.4
144.4
144.4
144.4
144.4
144.4
144.4
144.4
144.4
144.4
144.4
144.4
144.4
144.4
144.4
144.4
144.4
144.4
144.4
144.4
144.4
144.4
144.4
144.4
144.4
144.4
144.4
144.4
144.4
144.4
144.4
144.4
144.4
144.4
144.4
144.4
144.4
144.4
144.4
144.4
144.4
144.4
144.4
144.4
144.4
144.4
144.4
144.4
144.4
144.4
144.4
144.4
144.4
144.4
144.4
144.4
144.4
144.4
144.4
144.4
144.4
144.4
144.4
144.4
144.4
144.4
144.4
144.4
144.4
144.4
144.4
144.4
144.4
144.4
144.4
144.4
144.4
144.4
144.4
144.4
144.4
144.4
144.4
144.4
144.4
144.4
144.4
144.4
144.4
144.4
144.4
144.4
144.4
144.4
144.4
144.4
144.4
144.4
144.4
144.4
144.4
144.4
144.4
144.4
144.4
144.4
144.4
144.4
144.4
144.4
144.4
144.4
144.4
144.4
144.4
144.4
144.4
144.401
144.401
144.401
144.401
144.4
144.4
144.4
144.4
144.4
144.4
144.4
144.4
144.4
144.4
144.4
144.4
144.4
144.4
144.4
144.4
144.4
144.4
144.4
144.4
144.4
144.4
144.4
144.4
144.4
144.4
144.4
144.4
144.4
144.4
144.4
144.4
144.4
144.4
144.4
144.4
144.4
144.4
144.4
144.4
144.4
144.4
144.4
144.4
144.4
144.4
144.4
144.4
144.4
144.4
144.4
144.4
144.4
144.4
144.4
144.4
144.4
144.4
144.4
144.4
144.4
144.4
144.4
144.4
144.4
144.4
144.4
144.4
144.4
144.4
144.4
144.4
144.4
144.4
144.4
144.4
144.4
144.4
144.401
144.401
144.401
144.401
144.401
144.401
144.401
144.401
144.401
144.401
144.401
144.401
144.401
144.401
144.402
144.402
144.402
144.402
144.402
144.402
144.402
144.403
144.403
144.403
144.403
144.403
144.404
144.404
144.404
144.405
144.405
144.405
144.4
144.4
144.4
144.4
144.4
144.4
144.4
144.4
144.4
144.4
144.4
144.4
144.4
144.4
144.4
144.4
144.4
144.4
144.4
144.4
144.4
144.4
144.4
144.4
144.4
144.4
144.4
144.4
144.4
144.4
144.4
144.4
144.4
144.4
144.4
144.4
144.4
144.4
144.4
144.4
144.4
144.4
144.4
144.4
144.4
144.4
144.4
144.4
144.4
144.4
144.4
144.401
144.401
144.401
144.401
144.401
144.401
144.401
144.401
144.401
144.401
144.401
144.401
144.401
144.401
144.402
144.402
144.402
144.402
144.402
144.402
144.402
144.403
144.403
144.403
144.403
144.404
144.404
144.404
144.405
144.405
144.405
144.406
144.406
144.407
144.407
144.408
144.408
144.409
144.41
144.41
144.411
144.412
144.413
144.414
144.415
144.417
144.418
144.419
144.421
144.423
144.424
144.426
144.429
144.431
144.433
144.436
144.439
144.442
144.445
144.401
144.401
144.401
144.401
144.401
144.401
144.401
144.401
144.401
144.401
144.401
144.401
144.401
144.401
144.401
144.401
144.401
144.401
144.401
144.4
144.4
144.4
144.4
144.4
144.4
144.4
144.4
144.4
144.4
144.4
144.4
144.4
144.401
144.401
144.401
144.401
144.401
144.401
144.401
144.401
144.401
144.401
144.401
144.402
144.402
144.402
144.402
144.403
144.403
144.403
144.403
144.404
144.404
144.404
144.405
144.405
144.406
144.406
144.407
144.407
144.408
144.409
144.409
144.41
144.411
144.412
144.413
144.414
144.415
144.416
144.417
144.419
144.42
144.422
144.424
144.426
144.428
144.43
144.432
144.435
144.438
144.441
144.444
144.448
144.451
144.456
144.46
144.465
144.47
144.475
144.481
144.488
144.495
144.502
144.511
144.519
144.529
144.539
144.55
144.562
144.575
144.589
144.604
144.621
144.638
144.657
144.677
144.699
144.722
144.747
144.41
144.409
144.409
144.408
144.408
144.408
144.407
144.407
144.406
144.406
144.406
144.405
144.405
144.405
144.404
144.404
144.404
144.404
144.403
144.403
144.403
144.403
144.403
144.403
144.403
144.403
144.403
144.403
144.403
144.403
144.403
144.403
144.403
144.404
144.404
144.404
144.405
144.405
144.406
144.407
144.408
144.408
144.41
144.411
144.412
144.413
144.415
144.417
144.419
144.421
144.423
144.425
144.427
144.43
144.432
144.435
144.438
144.442
144.445
144.449
144.453
144.458
144.462
144.468
144.473
144.479
144.486
144.493
144.501
144.509
144.518
144.527
144.537
144.548
144.56
144.573
144.586
144.601
144.617
144.634
144.652
144.672
144.693
144.716
144.74
144.766
144.794
144.824
144.856
144.89
144.927
144.965
145.007
145.051
145.098
145.149
145.203
145.26
145.321
145.387
145.456
145.53
145.609
145.692
145.781
145.875
145.974
146.079
146.19
146.306
146.428
144.461
144.458
144.455
144.452
144.45
144.447
144.444
144.442
144.439
144.437
144.435
144.433
144.431
144.429
144.427
144.426
144.425
144.423
144.422
144.421
144.42
144.42
144.419
144.419
144.419
144.419
144.419
144.419
144.419
144.42
144.421
144.422
144.423
144.425
144.427
144.43
144.433
144.437
144.441
144.446
144.452
144.458
144.466
144.474
144.483
144.493
144.504
144.515
144.528
144.541
144.555
144.57
144.585
144.602
144.62
144.638
144.658
144.68
144.703
144.727
144.754
144.782
144.812
144.845
144.88
144.917
144.956
144.999
145.043
145.091
145.141
145.195
145.252
145.312
145.376
145.444
145.516
145.592
145.673
145.759
145.849
145.945
146.045
146.151
146.263
146.38
146.503
146.631
146.764
146.903
147.048
147.198
147.353
147.513
147.679
147.85
148.026
148.208
148.396
148.589
148.788
148.993
149.205
149.423
149.649
149.881
150.121
150.368
150.623
150.885
151.155
151.431
151.715
144.747
144.732
144.716
144.7
144.685
144.67
144.656
144.642
144.628
144.615
144.603
144.592
144.581
144.572
144.563
144.554
144.547
144.54
144.534
144.529
144.525
144.521
144.518
144.516
144.516
144.516
144.517
144.518
144.521
144.525
144.531
144.538
144.548
144.56
144.574
144.591
144.611
144.634
144.661
144.693
144.728
144.767
144.811
144.859
144.911
144.967
145.027
145.09
145.156
145.225
145.297
145.372
145.449
145.53
145.613
145.7
145.792
145.888
145.988
146.094
146.205
146.323
146.445
146.574
146.708
146.848
146.993
147.143
147.298
147.458
147.623
147.792
147.966
148.145
148.328
148.517
148.71
148.909
149.114
149.325
149.541
149.764
149.993
150.229
150.471
150.72
150.976
151.238
151.506
151.781
152.06
152.345
152.634
152.927
153.222
153.521
153.82
154.121
154.423
154.725
155.026
155.327
155.628
155.927
156.226
156.524
156.821
157.118
157.414
157.711
158.008
158.305
158.604
146.088
146.029
145.97
145.91
145.849
145.789
145.729
145.67
145.612
145.556
145.502
145.449
145.4
145.352
145.308
145.266
145.228
145.192
145.16
145.131
145.105
145.083
145.063
145.047
145.035
145.029
145.029
145.031
145.036
145.046
145.063
145.085
145.116
145.154
145.202
145.26
145.328
145.408
145.501
145.606
145.725
145.857
146.002
146.159
146.328
146.507
146.695
146.89
147.091
147.296
147.503
147.711
147.919
148.128
148.336
148.544
148.753
148.964
149.177
149.395
149.617
149.845
150.079
150.319
150.565
150.819
151.078
151.343
151.613
151.888
152.167
152.45
152.735
153.022
153.311
153.602
153.893
154.185
154.476
154.768
155.059
155.35
155.64
155.929
156.218
156.507
156.795
157.083
157.371
157.659
157.948
158.237
158.528
158.82
159.114
159.409
159.706
160.005
160.305
160.607
160.91
161.215
161.522
161.829
162.135
162.441
162.747
163.052
163.356
163.661
163.964
164.268
164.571
164.874
165.177
149.395
149.272
149.146
149.017
148.887
148.755
148.622
148.489
148.356
148.225
148.097
147.972
147.85
147.733
147.621
147.515
147.415
147.322
147.237
147.159
147.09
147.03
146.978
146.934
146.903
146.894
146.897
146.905
146.926
146.962
147.016
147.089
147.183
147.298
147.438
147.601
147.789
148.001
148.236
148.495
148.775
149.076
149.393
149.725
150.068
150.419
150.777
151.137
151.498
151.856
152.211
152.559
152.9
153.232
153.556
153.872
154.18
154.483
154.78
155.074
155.367
155.657
155.947
156.236
156.525
156.814
157.103
157.392
157.68
157.969
158.258
158.547
158.836
159.127
159.418
159.71
160.003
160.297
160.593
160.889
161.187
161.485
161.782
162.079
162.376
162.672
162.968
163.264
163.559
163.855
164.15
164.445
164.74
165.036
165.332
165.629
165.927
166.225
166.524
166.824
167.125
167.427
167.73
168.033
168.335
168.637
168.938
169.238
169.538
169.837
170.136
170.435
170.733
171.032
171.331
171.63
155.387
155.277
155.157
155.027
154.889
154.746
154.597
154.441
154.278
154.109
153.936
153.759
153.578
153.394
153.207
153.02
152.833
152.647
152.463
152.283
152.107
151.938
151.775
151.621
151.477
151.342
151.22
151.111
151.016
150.932
150.862
150.818
150.812
150.819
150.838
150.879
150.948
151.046
151.176
151.338
151.534
151.767
152.034
152.334
152.665
153.025
153.411
153.817
154.24
154.674
155.113
155.552
155.987
156.414
156.831
157.235
157.626
158.002
158.365
158.715
159.051
159.377
159.693
160.002
160.305
160.604
160.902
161.198
161.494
161.789
162.085
162.38
162.675
162.97
163.265
163.559
163.852
164.145
164.437
164.729
165.021
165.312
165.605
165.897
166.19
166.483
166.777
167.073
167.367
167.661
167.955
168.248
168.541
168.833
169.125
169.416
169.708
169.999
170.291
170.583
170.875
171.167
171.459
171.752
172.045
172.338
172.631
172.924
173.218
173.511
173.803
174.094
174.385
174.676
174.966
175.257
175.547
175.836
176.126
176.416
176.705
176.995
177.284
160.653
160.529
160.397
160.257
160.108
159.955
159.799
159.637
159.467
159.292
159.113
158.932
158.748
158.562
158.375
158.187
157.999
157.812
157.628
157.448
157.274
157.106
156.945
156.792
156.649
156.515
156.394
156.287
156.194
156.112
156.042
156.011
156.013
156.024
156.053
156.107
156.192
156.307
156.455
156.635
156.853
157.105
157.392
157.712
158.063
158.443
158.847
159.272
159.713
160.165
160.625
161.085
161.539
161.984
162.418
162.836
163.239
163.625
163.994
164.347
164.686
165.012
165.327
165.632
165.931
166.226
166.519
166.811
167.102
167.392
167.683
167.973
168.264
168.554
168.844
169.134
169.423
169.711
169.999
170.287
170.574
170.861
171.148
171.434
171.721
172.007
172.294
172.579
172.865
173.15
173.434
173.718
174.002
174.286
174.569
174.853
175.136
175.419
175.703
175.986
176.269
176.552
176.835
177.118
177.4
177.682
177.964
178.245
178.526
178.806
179.086
179.365
179.644
179.923
180.201
180.479
180.757
181.035
181.312
181.589
181.865
182.141
182.417
165.603
165.476
165.341
165.198
165.048
164.894
164.739
164.58
164.415
164.245
164.07
163.894
163.717
163.54
163.363
163.185
163.007
162.829
162.655
162.485
162.322
162.165
162.015
161.874
161.741
161.619
161.509
161.414
161.331
161.258
161.204
161.192
161.198
161.216
161.256
161.322
161.42
161.549
161.709
161.901
162.128
162.39
162.687
163.018
163.381
163.771
164.184
164.616
165.062
165.519
165.981
166.442
166.896
167.34
167.771
168.187
168.585
168.967
169.331
169.679
170.012
170.331
170.638
170.936
171.227
171.513
171.796
172.077
172.358
172.638
172.919
173.2
173.481
173.763
174.044
174.325
174.605
174.885
175.164
175.442
175.72
175.997
176.274
176.55
176.826
177.101
177.376
177.65
177.924
178.198
178.471
178.744
179.017
179.29
179.562
179.834
180.106
180.378
180.649
180.92
181.19
181.46
181.729
181.998
182.267
182.535
182.802
183.069
183.335
183.601
183.866
184.131
184.395
184.659
184.922
185.185
185.447
185.708
185.969
186.229
186.489
186.748
187.006
170.165
170.037
169.904
169.764
169.618
169.47
169.321
169.17
169.014
168.855
168.693
168.529
168.366
168.204
168.044
167.883
167.722
167.563
167.407
167.257
167.113
166.976
166.847
166.726
166.614
166.511
166.421
166.344
166.28
166.227
166.201
166.203
166.215
166.245
166.299
166.38
166.49
166.631
166.801
167.001
167.234
167.499
167.799
168.132
168.495
168.885
169.296
169.725
170.166
170.614
171.065
171.514
171.954
172.385
172.802
173.204
173.589
173.957
174.308
174.642
174.961
175.267
175.562
175.848
176.126
176.4
176.671
176.941
177.21
177.479
177.748
178.018
178.288
178.558
178.827
179.096
179.364
179.632
179.898
180.164
180.429
180.693
180.957
181.22
181.482
181.744
182.006
182.267
182.528
182.788
183.048
183.307
183.566
183.825
184.083
184.34
184.597
184.853
185.109
185.364
185.619
185.873
186.126
186.378
186.63
186.881
187.132
187.382
187.631
187.879
188.127
188.374
188.621
188.866
189.111
189.355
189.598
189.84
190.081
190.322
190.561
190.8
191.037
191.274
191.51
174.313
174.188
174.058
173.924
173.787
173.647
173.507
173.366
173.223
173.078
172.931
172.785
172.64
172.497
172.356
172.217
172.079
171.943
171.812
171.686
171.567
171.455
171.352
171.256
171.17
171.093
171.028
170.975
170.934
170.912
170.912
170.923
170.951
171.001
171.073
171.17
171.295
171.448
171.628
171.837
172.076
172.345
172.645
172.975
173.333
173.714
174.115
174.531
174.957
175.388
175.819
176.246
176.666
177.075
177.47
177.85
178.213
178.56
178.891
179.205
179.506
179.795
180.073
180.343
180.608
180.868
181.126
181.383
181.639
181.895
182.151
182.407
182.663
182.919
183.174
183.428
183.681
183.934
184.185
184.436
184.686
184.935
185.183
185.431
185.678
185.925
186.171
186.417
186.661
186.906
187.149
187.392
187.635
187.876
188.117
188.357
188.596
188.835
189.073
189.31
189.546
189.781
190.016
190.25
190.482
190.714
190.946
191.176
191.405
191.633
191.861
192.087
192.312
192.536
192.76
192.982
193.203
193.423
193.641
193.859
194.075
194.29
194.504
194.716
194.928
178.058
177.936
177.812
177.686
177.558
177.429
177.3
177.172
177.043
176.914
176.786
176.658
176.534
176.412
176.293
176.177
176.064
175.955
175.85
175.752
175.66
175.577
175.501
175.434
175.376
175.328
175.29
175.265
175.258
175.262
175.278
175.311
175.363
175.435
175.528
175.644
175.784
175.951
176.143
176.361
176.607
176.879
177.178
177.502
177.85
178.218
178.602
178.998
179.401
179.808
180.212
180.612
181.003
181.383
181.749
182.1
182.436
182.756
183.061
183.352
183.631
183.9
184.16
184.413
184.661
184.906
185.15
185.391
185.633
185.874
186.115
186.355
186.595
186.834
187.073
187.31
187.547
187.783
188.018
188.252
188.485
188.717
188.948
189.179
189.409
189.638
189.866
190.094
190.32
190.546
190.771
190.995
191.218
191.441
191.662
191.883
192.102
192.32
192.538
192.754
192.97
193.184
193.397
193.61
193.821
194.031
194.239
194.447
194.653
194.858
195.062
195.264
195.465
195.665
195.863
196.06
196.255
196.449
196.642
196.833
197.022
197.209
197.395
197.58
197.762
181.531
181.417
181.302
181.185
181.068
180.951
180.835
180.72
180.606
180.493
180.383
180.273
180.167
180.064
179.964
179.869
179.777
179.69
179.607
179.53
179.46
179.397
179.342
179.296
179.258
179.228
179.21
179.205
179.208
179.223
179.253
179.296
179.355
179.432
179.526
179.64
179.775
179.931
180.112
180.316
180.543
180.793
181.066
181.362
181.678
182.012
182.362
182.725
183.096
183.472
183.848
184.22
184.587
184.944
185.289
185.622
185.94
186.244
186.535
186.812
187.078
187.333
187.58
187.82
188.055
188.286
188.514
188.74
188.965
189.19
189.414
189.638
189.861
190.083
190.304
190.525
190.744
190.963
191.18
191.397
191.612
191.827
192.04
192.252
192.464
192.674
192.883
193.092
193.299
193.505
193.71
193.914
194.117
194.319
194.52
194.719
194.917
195.114
195.31
195.504
195.697
195.889
196.079
196.268
196.456
196.642
196.826
197.009
197.191
197.371
197.549
197.725
197.9
198.073
198.245
198.414
198.582
198.748
198.912
199.074
199.234
199.392
199.548
199.702
199.853
200.003
184.526
184.419
184.311
184.205
184.099
183.995
183.893
183.793
183.695
183.6
183.508
183.42
183.335
183.254
183.177
183.105
183.037
182.976
182.92
182.871
182.828
182.793
182.766
182.747
182.739
182.739
182.747
182.766
182.797
182.84
182.895
182.964
183.048
183.148
183.264
183.398
183.549
183.722
183.915
184.128
184.361
184.613
184.883
185.172
185.476
185.794
186.123
186.461
186.803
187.148
187.49
187.827
188.157
188.477
188.786
189.083
189.367
189.639
189.898
190.147
190.386
190.617
190.841
191.06
191.274
191.486
191.695
191.903
192.11
192.316
192.521
192.726
192.93
193.133
193.335
193.536
193.735
193.934
194.131
194.327
194.522
194.716
194.908
195.099
195.289
195.477
195.665
195.851
196.035
196.218
196.4
196.581
196.76
196.937
197.113
197.288
197.461
197.632
197.802
197.97
198.136
198.301
198.464
198.625
198.785
198.942
199.098
199.252
199.403
199.553
199.701
199.847
199.99
200.132
200.271
200.408
200.543
200.675
200.805
200.933
201.058
201.181
201.301
201.419
201.534
201.646
201.756
201.862
187.195
187.096
186.999
186.904
186.811
186.722
186.635
186.551
186.471
186.394
186.322
186.253
186.19
186.13
186.076
186.027
185.983
185.945
185.915
185.891
185.874
185.865
185.865
185.871
185.887
185.912
185.946
185.991
186.047
186.114
186.193
186.284
186.39
186.51
186.645
186.795
186.962
187.146
187.349
187.568
187.802
188.052
188.317
188.594
188.884
189.182
189.488
189.798
190.11
190.42
190.727
191.027
191.32
191.602
191.874
192.135
192.385
192.624
192.852
193.072
193.284
193.49
193.69
193.886
194.079
194.269
194.458
194.645
194.832
195.017
195.202
195.386
195.568
195.75
195.931
196.11
196.287
196.464
196.639
196.812
196.984
197.154
197.323
197.491
197.656
197.82
197.983
198.144
198.303
198.46
198.616
198.769
198.921
199.072
199.22
199.367
199.511
199.654
199.794
199.933
200.07
200.204
200.337
200.467
200.595
200.72
200.844
200.965
201.084
201.2
201.314
201.425
201.534
201.64
201.744
201.845
201.943
202.038
202.131
202.22
202.306
202.389
202.47
202.546
202.62
202.691
202.759
202.823
189.572
189.484
189.398
189.317
189.238
189.163
189.093
189.026
188.963
188.905
188.851
188.802
188.758
188.719
188.685
188.657
188.635
188.619
188.612
188.611
188.616
188.629
188.651
188.68
188.718
188.765
188.822
188.889
188.965
189.053
189.152
189.262
189.386
189.522
189.672
189.835
190.012
190.204
190.411
190.631
190.864
191.107
191.362
191.625
191.896
192.173
192.452
192.733
193.013
193.289
193.559
193.823
194.078
194.323
194.558
194.784
194.999
195.205
195.403
195.594
195.778
195.957
196.133
196.304
196.474
196.641
196.807
196.972
197.136
197.299
197.461
197.621
197.781
197.939
198.095
198.25
198.404
198.556
198.706
198.854
199
199.145
199.288
199.428
199.567
199.704
199.839
199.972
200.102
200.231
200.358
200.482
200.604
200.724
200.842
200.958
201.071
201.182
201.291
201.397
201.501
201.602
201.701
201.797
201.89
201.981
202.069
202.154
202.236
202.316
202.392
202.465
202.535
202.603
202.667
202.728
202.787
202.842
202.893
202.941
202.985
203.025
203.06
203.091
203.116
203.138
203.157
203.172
191.69
191.613
191.54
191.472
191.408
191.348
191.292
191.241
191.195
191.153
191.116
191.085
191.059
191.038
191.022
191.013
191.01
191.013
191.023
191.041
191.066
191.098
191.138
191.186
191.243
191.309
191.383
191.468
191.561
191.665
191.779
191.905
192.041
192.189
192.349
192.52
192.703
192.898
193.104
193.321
193.546
193.779
194.019
194.265
194.515
194.767
195.019
195.269
195.515
195.756
195.991
196.217
196.435
196.644
196.843
197.033
197.215
197.389
197.556
197.717
197.873
198.025
198.173
198.319
198.464
198.606
198.747
198.888
199.027
199.165
199.301
199.436
199.57
199.702
199.833
199.962
200.088
200.213
200.336
200.457
200.575
200.691
200.805
200.917
201.026
201.133
201.238
201.34
201.44
201.537
201.632
201.725
201.815
201.902
201.987
202.068
202.148
202.224
202.297
202.368
202.435
202.5
202.562
202.621
202.677
202.731
202.781
202.827
202.871
202.91
202.945
202.975
203.001
203.023
203.042
203.058
203.07
203.08
203.086
203.09
203.092
203.092
203.091
203.089
203.086
203.08
203.07
203.056
203.039
193.507
193.446
193.39
193.339
193.293
193.251
193.214
193.182
193.154
193.132
193.116
193.104
193.098
193.099
193.104
193.115
193.134
193.16
193.193
193.233
193.28
193.335
193.398
193.469
193.549
193.637
193.734
193.841
193.956
194.081
194.216
194.361
194.516
194.68
194.854
195.038
195.231
195.432
195.64
195.853
196.072
196.294
196.519
196.745
196.969
197.191
197.409
197.622
197.828
198.026
198.216
198.398
198.57
198.734
198.889
199.037
199.179
199.314
199.445
199.572
199.695
199.816
199.935
200.053
200.169
200.283
200.397
200.509
200.62
200.729
200.837
200.943
201.048
201.15
201.25
201.348
201.443
201.537
201.627
201.716
201.801
201.884
201.965
202.042
202.117
202.189
202.258
202.324
202.387
202.447
202.505
202.56
202.612
202.662
202.708
202.751
202.79
202.826
202.858
202.885
202.908
202.927
202.944
202.958
202.968
202.976
202.981
202.984
202.985
202.984
202.983
202.981
202.976
202.968
202.956
202.941
202.923
202.902
202.878
202.85
202.82
202.785
202.746
202.703
202.656
202.606
202.552
202.495
195.179
195.129
195.084
195.043
195.008
194.978
194.952
194.931
194.915
194.905
194.9
194.9
194.905
194.916
194.934
194.957
194.987
195.025
195.069
195.12
195.179
195.245
195.319
195.4
195.49
195.587
195.694
195.808
195.931
196.062
196.202
196.35
196.507
196.671
196.843
197.022
197.207
197.398
197.593
197.791
197.991
198.192
198.393
198.592
198.787
198.978
199.162
199.34
199.511
199.673
199.827
199.971
200.108
200.237
200.358
200.472
200.581
200.686
200.786
200.883
200.977
201.069
201.159
201.248
201.336
201.423
201.508
201.592
201.674
201.754
201.833
201.91
201.984
202.056
202.126
202.192
202.256
202.317
202.376
202.431
202.484
202.534
202.581
202.625
202.666
202.704
202.737
202.767
202.792
202.813
202.832
202.847
202.859
202.869
202.876
202.88
202.882
202.882
202.882
202.881
202.878
202.872
202.863
202.851
202.835
202.817
202.795
202.771
202.743
202.712
202.677
202.638
202.595
202.549
202.5
202.447
202.391
202.331
202.267
202.199
202.127
202.051
201.971
201.887
201.8
201.708
201.613
201.514
196.594
196.557
196.525
196.498
196.476
196.458
196.446
196.439
196.437
196.439
196.447
196.461
196.48
196.506
196.537
196.576
196.621
196.673
196.732
196.798
196.872
196.952
197.04
197.136
197.239
197.349
197.467
197.593
197.726
197.866
198.013
198.166
198.326
198.49
198.66
198.833
199.01
199.187
199.366
199.544
199.721
199.894
200.064
200.228
200.386
200.537
200.68
200.814
200.94
201.057
201.166
201.267
201.361
201.448
201.53
201.606
201.679
201.748
201.815
201.879
201.942
202.003
202.062
202.12
202.177
202.232
202.285
202.337
202.387
202.435
202.48
202.523
202.564
202.601
202.635
202.665
202.691
202.713
202.732
202.747
202.76
202.77
202.777
202.782
202.784
202.785
202.784
202.784
202.781
202.775
202.765
202.753
202.738
202.72
202.699
202.675
202.648
202.617
202.583
202.545
202.503
202.458
202.411
202.359
202.305
202.246
202.184
202.119
202.049
201.975
201.898
201.817
201.732
201.644
201.552
201.456
201.356
201.252
201.145
201.033
200.917
200.798
200.674
200.547
200.415
200.279
200.14
197.812
197.785
197.763
197.746
197.734
197.727
197.725
197.727
197.735
197.747
197.766
197.791
197.821
197.858
197.902
197.952
198.008
198.072
198.142
198.219
198.303
198.394
198.492
198.596
198.707
198.825
198.949
199.079
199.215
199.357
199.502
199.652
199.806
199.961
200.118
200.276
200.433
200.589
200.742
200.891
201.035
201.174
201.305
201.429
201.545
201.652
201.751
201.84
201.922
201.995
202.061
202.12
202.173
202.221
202.265
202.305
202.343
202.379
202.413
202.446
202.477
202.506
202.534
202.559
202.582
202.601
202.619
202.635
202.649
202.66
202.669
202.675
202.68
202.682
202.684
202.685
202.684
202.679
202.672
202.661
202.647
202.631
202.611
202.589
202.563
202.534
202.501
202.464
202.425
202.382
202.337
202.288
202.235
202.179
202.12
202.057
201.99
201.92
201.846
201.768
201.687
201.603
201.515
201.423
201.327
201.228
201.124
201.017
200.907
200.792
200.674
200.552
200.426
200.296
200.162
200.024
199.883
199.737
199.587
199.434
199.276
199.115
198.949
198.779
198.605
198.428
198.245
198.059
198.848
198.824
198.804
198.789
198.779
198.774
198.775
198.779
198.789
198.804
198.825
198.852
198.885
198.924
198.97
199.022
199.08
199.145
199.216
199.294
199.378
199.468
199.565
199.667
199.775
199.889
200.008
200.131
200.259
200.391
200.525
200.661
200.798
200.936
201.074
201.209
201.342
201.472
201.597
201.716
201.829
201.935
202.032
202.121
202.2
202.271
202.333
202.387
202.432
202.471
202.502
202.527
202.547
202.561
202.571
202.577
202.582
202.585
202.586
202.586
202.586
202.584
202.583
202.581
202.58
202.578
202.575
202.569
202.56
202.549
202.536
202.519
202.5
202.478
202.453
202.424
202.391
202.355
202.316
202.273
202.228
202.179
202.126
202.071
202.011
201.948
201.881
201.811
201.738
201.661
201.581
201.497
201.41
201.319
201.225
201.127
201.025
200.92
200.811
200.698
200.582
200.462
200.339
200.211
200.08
199.945
199.807
199.664
199.518
199.368
199.214
199.056
198.894
198.728
198.558
198.384
198.207
198.025
197.839
197.65
197.456
197.258
197.056
196.85
196.64
196.426
196.207
195.984
199.666
199.642
199.622
199.607
199.596
199.592
199.592
199.596
199.606
199.621
199.642
199.669
199.702
199.741
199.787
199.838
199.896
199.959
200.029
200.105
200.186
200.273
200.365
200.462
200.563
200.669
200.779
200.892
201.008
201.126
201.245
201.363
201.482
201.598
201.712
201.822
201.927
202.028
202.122
202.21
202.29
202.361
202.424
202.477
202.519
202.551
202.574
202.59
202.598
202.599
202.596
202.589
202.578
202.567
202.554
202.54
202.523
202.505
202.486
202.465
202.444
202.421
202.397
202.371
202.343
202.312
202.279
202.244
202.206
202.165
202.121
202.074
202.024
201.97
201.912
201.851
201.787
201.719
201.648
201.573
201.495
201.413
201.328
201.239
201.146
201.051
200.951
200.849
200.742
200.632
200.519
200.402
200.282
200.157
200.03
199.898
199.763
199.625
199.482
199.336
199.186
199.033
198.876
198.714
198.549
198.381
198.208
198.032
197.852
197.667
197.479
197.287
197.091
196.891
196.687
196.479
196.267
196.051
195.831
195.607
195.378
195.146
194.909
194.668
194.423
194.174
193.92
193.662
200.243
200.221
200.203
200.191
200.184
200.182
200.185
200.192
200.206
200.225
200.25
200.282
200.319
200.362
200.411
200.465
200.525
200.591
200.662
200.737
200.818
200.902