/*--------------------------------*- C++ -*----------------------------------*\
| =========                 |                                                 |
| \\      /  F ield         | OpenFOAM: The Open Source CFD Toolbox           |
|  \\    /   O peration     | Version:  v1706                                 |
|   \\  /    A nd           | Web:      www.OpenFOAM.com                      |
|    \\/     M anipulation  |                                                 |
\*---------------------------------------------------------------------------*/
FoamFile
{
    version     2.0;
    format      ascii;
    class       volVectorField;
    location    "4e-06";
    object      U;
}
// * * * * * * * * * * * * * * * * * * * * * * * * * * * * * * * * * * * * * //

dimensions      [0 1 -1 0 0 0 0];


internalField   nonuniform List<vector> 
29871
(
(2764.5 4.14332e-08 9.82835e-15)
(2764.5 4.03744e-08 6.72932e-15)
(2764.5 3.92184e-08 6.63722e-15)
(2764.5 3.79793e-08 6.44818e-15)
(2764.5 3.66657e-08 4.00556e-15)
(2764.5 3.52926e-08 4.11934e-15)
(2764.5 3.3876e-08 5.75821e-15)
(2764.5 3.2423e-08 5.53337e-15)
(2764.5 3.0949e-08 6.29643e-15)
(2764.5 2.94729e-08 6.69246e-15)
(2764.5 2.79994e-08 5.77453e-15)
(2764.5 2.65499e-08 8.71696e-15)
(2764.5 2.51377e-08 7.06022e-15)
(2764.5 2.37729e-08 7.59561e-15)
(2764.5 2.24667e-08 6.62137e-15)
(2764.5 2.12468e-08 4.16177e-15)
(2764.5 2.0073e-08 4.54688e-15)
(2764.5 1.90218e-08 5.2282e-15)
(2764.5 1.80797e-08 6.49764e-15)
(2764.5 1.71513e-08 7.55442e-15)
(2764.5 1.64812e-08 3.16105e-15)
(2764.5 1.57845e-08 6.42599e-15)
(2764.5 1.51283e-08 2.99616e-15)
(2764.5 1.47808e-08 4.04919e-15)
(2764.5 1.47336e-08 7.51941e-15)
(2764.5 1.48441e-08 6.73098e-15)
(2764.5 1.49261e-08 7.58421e-15)
(2764.5 1.50561e-08 5.25532e-15)
(2764.5 1.52639e-08 4.69161e-15)
(2764.5 1.55823e-08 6.23016e-15)
(2764.5 1.60324e-08 6.31952e-15)
(2764.5 1.66442e-08 4.60096e-15)
(2764.5 1.74166e-08 5.25097e-15)
(2764.5 1.83383e-08 8.73769e-15)
(2764.5 1.93815e-08 6.01106e-15)
(2764.5 2.05349e-08 3.7123e-15)
(2764.5 2.17868e-08 2.66667e-15)
(2764.5 2.31181e-08 5.67385e-15)
(2764.5 2.45073e-08 6.34643e-15)
(2764.5 2.59372e-08 6.20865e-15)
(2764.5 2.73894e-08 7.72777e-15)
(2764.5 2.88347e-08 8.07474e-15)
(2764.5 3.02501e-08 8.67209e-15)
(2764.5 3.16151e-08 5.60396e-15)
(2764.5 3.29042e-08 5.19186e-15)
(2764.5 3.41029e-08 6.05745e-15)
(2764.5 3.51947e-08 4.88417e-15)
(2764.5 3.61655e-08 2.50563e-15)
(2764.5 3.7013e-08 3.18636e-15)
(2764.5 3.7738e-08 7.1114e-15)
(2764.5 3.83426e-08 6.22949e-15)
(2764.5 3.88362e-08 3.02608e-15)
(2764.5 3.92363e-08 4.18065e-15)
(2764.5 3.95684e-08 6.52328e-15)
(2764.5 3.98634e-08 5.88699e-15)
(2764.5 4.01551e-08 5.87255e-15)
(2764.5 4.04839e-08 6.37716e-15)
(2764.5 4.08932e-08 7.79277e-15)
(2764.5 4.14341e-08 6.12053e-15)
(2764.5 4.21627e-08 5.23293e-15)
(2764.5 4.31259e-08 3.52712e-15)
(2764.5 4.43826e-08 2.30179e-15)
(2764.5 4.59781e-08 4.00104e-15)
(2764.5 4.79686e-08 8.92051e-16)
(2764.5 5.04004e-08 4.84341e-15)
(2764.5 5.33007e-08 6.63904e-15)
(2764.5 5.67054e-08 4.55565e-15)
(2764.5 6.06466e-08 3.85794e-15)
(2764.5 6.51446e-08 3.55372e-15)
(2764.5 7.02242e-08 3.7342e-15)
(2764.5 7.5873e-08 5.02061e-15)
(2764.5 8.21107e-08 5.62822e-15)
(2764.5 8.891e-08 3.07203e-15)
(2764.5 9.62542e-08 4.36149e-15)
(2764.5 1.04102e-07 3.74362e-15)
(2764.5 1.12411e-07 6.45042e-15)
(2764.5 1.21126e-07 3.0279e-15)
(2764.5 1.30187e-07 3.77351e-15)
(2764.5 1.39533e-07 3.34846e-15)
(2764.5 1.49102e-07 6.06544e-15)
(2764.5 1.58821e-07 6.72036e-15)
(2764.5 1.6864e-07 5.56946e-15)
(2764.5 1.78493e-07 5.80952e-15)
(2764.5 1.88324e-07 4.54315e-15)
(2764.5 1.98091e-07 6.60463e-15)
(2764.5 2.07747e-07 6.02206e-15)
(2764.5 2.17245e-07 5.11354e-15)
(2764.5 2.26548e-07 6.27621e-15)
(2764.5 2.35611e-07 6.79911e-15)
(2764.5 2.44385e-07 6.03508e-15)
(2764.5 2.52813e-07 5.88634e-15)
(2764.5 2.60832e-07 3.94171e-15)
(2764.5 2.6837e-07 5.11984e-15)
(2764.5 2.75343e-07 5.88542e-15)
(2764.5 2.81656e-07 4.74551e-15)
(2764.5 2.87211e-07 4.57637e-15)
(2764.5 2.91906e-07 4.57096e-15)
(2764.5 2.95634e-07 4.79825e-15)
(2764.5 2.98277e-07 4.95113e-15)
(2764.5 2.99703e-07 4.67914e-15)
(2764.5 2.99779e-07 5.6767e-15)
(2764.5 2.98401e-07 5.45673e-15)
(2764.5 2.95515e-07 3.24541e-15)
(2764.5 2.9112e-07 4.02536e-15)
(2764.5 2.85278e-07 2.4298e-15)
(2764.5 3.31404e-07 1.34642e-14)
(2764.5 3.21388e-07 1.26217e-14)
(2764.5 3.11046e-07 1.41879e-14)
(2764.5 3.00461e-07 1.51312e-14)
(2764.5 2.89727e-07 1.30149e-14)
(2764.5 2.78952e-07 1.52225e-14)
(2764.5 2.68238e-07 1.46108e-14)
(2764.5 2.5768e-07 1.36746e-14)
(2764.5 2.4733e-07 1.41435e-14)
(2764.5 2.37247e-07 1.4163e-14)
(2764.5 2.27472e-07 1.43142e-14)
(2764.5 2.18061e-07 1.27464e-14)
(2764.5 2.09042e-07 1.54029e-14)
(2764.5 2.00433e-07 1.17329e-14)
(2764.5 1.92286e-07 9.30453e-15)
(2764.5 1.84596e-07 1.095e-14)
(2764.5 1.77373e-07 1.35824e-14)
(2764.5 1.70728e-07 1.3965e-14)
(2764.5 1.64525e-07 1.19946e-14)
(2764.5 1.59022e-07 1.09488e-14)
(2764.5 1.54047e-07 1.01157e-14)
(2764.5 1.50161e-07 1.18425e-14)
(2764.5 1.46801e-07 1.40582e-14)
(2764.5 1.42415e-07 1.41895e-14)
(2764.5 1.39792e-07 1.17543e-14)
(2764.5 1.39224e-07 1.29663e-14)
(2764.5 1.38972e-07 1.33511e-14)
(2764.5 1.3907e-07 1.27047e-14)
(2764.5 1.39614e-07 1.29432e-14)
(2764.5 1.40816e-07 1.27328e-14)
(2764.5 1.42817e-07 1.40918e-14)
(2764.5 1.45676e-07 9.25189e-15)
(2764.5 1.49365e-07 1.146e-14)
(2764.5 1.5385e-07 1.60662e-14)
(2764.5 1.5911e-07 1.44301e-14)
(2764.5 1.65134e-07 1.42341e-14)
(2764.5 1.71931e-07 1.02241e-14)
(2764.5 1.79519e-07 1.34379e-14)
(2764.5 1.87932e-07 1.26045e-14)
(2764.5 1.97202e-07 1.33955e-14)
(2764.5 2.07385e-07 1.42637e-14)
(2764.5 2.18573e-07 1.24981e-14)
(2764.5 2.30845e-07 1.33209e-14)
(2764.5 2.44319e-07 1.24888e-14)
(2764.5 2.59113e-07 1.15778e-14)
(2764.5 2.75346e-07 1.25601e-14)
(2764.5 2.93123e-07 1.34817e-14)
(2764.5 3.12542e-07 9.47989e-15)
(2764.5 3.33675e-07 1.155e-14)
(2764.5 3.56569e-07 1.08728e-14)
(2764.5 3.81249e-07 8.90149e-15)
(2764.5 4.07694e-07 1.14133e-14)
(2764.5 4.35843e-07 1.33604e-14)
(2764.5 4.65605e-07 1.07447e-14)
(2764.5 4.96848e-07 1.10926e-14)
(2764.5 5.29428e-07 1.0861e-14)
(2764.5 5.63156e-07 1.23502e-14)
(2764.5 5.9783e-07 1.48687e-14)
(2764.5 6.33233e-07 9.75731e-15)
(2764.5 6.69133e-07 9.23435e-15)
(2764.5 7.05304e-07 1.20313e-14)
(2764.5 7.41525e-07 8.45359e-15)
(2764.5 7.77607e-07 1.07689e-14)
(2764.5 8.13351e-07 8.77682e-15)
(2764.5 8.48607e-07 1.0638e-14)
(2764.5 8.83205e-07 1.16026e-14)
(2764.5 9.1701e-07 9.68467e-15)
(2764.5 9.49897e-07 1.10682e-14)
(2764.5 9.81735e-07 1.28169e-14)
(2764.5 1.0124e-06 9.83595e-15)
(2764.5 1.04177e-06 1.2365e-14)
(2764.5 1.06972e-06 9.97107e-15)
(2764.5 1.09614e-06 8.23725e-15)
(2764.5 1.12096e-06 1.20218e-14)
(2764.5 1.14413e-06 9.36681e-15)
(2764.5 1.16563e-06 1.04536e-14)
(2764.5 1.1855e-06 9.4724e-15)
(2764.5 1.20385e-06 1.05472e-14)
(2764.5 1.22089e-06 9.78537e-15)
(2764.5 1.23689e-06 1.23209e-14)
(2764.5 1.25224e-06 1.10656e-14)
(2764.5 1.26742e-06 1.08905e-14)
(2764.5 1.28302e-06 1.05648e-14)
(2764.5 1.2997e-06 1.1576e-14)
(2764.5 1.31826e-06 1.26305e-14)
(2764.5 1.33953e-06 1.23775e-14)
(2764.5 1.36445e-06 1.23697e-14)
(2764.5 1.39401e-06 1.18888e-14)
(2764.5 1.42926e-06 1.24591e-14)
(2764.5 1.47129e-06 1.24036e-14)
(2764.5 1.52127e-06 1.10911e-14)
(2764.5 1.58037e-06 8.78725e-15)
(2764.5 1.64983e-06 1.29402e-14)
(2764.5 1.73089e-06 1.23745e-14)
(2764.5 1.82483e-06 1.05787e-14)
(2764.5 1.93291e-06 9.88697e-15)
(2764.5 2.05639e-06 1.02038e-14)
(2764.5 2.19648e-06 1.14029e-14)
(2764.5 2.35428e-06 1.08712e-14)
(2764.5 2.53079e-06 6.5814e-15)
(2764.5 2.72682e-06 9.20977e-15)
(2764.5 2.94294e-06 1.20108e-14)
(2764.5 3.17945e-06 8.67398e-15)
(2764.5 3.4363e-06 9.22923e-15)
(2764.5 3.71307e-06 7.34023e-15)
(2764.5 2.05966e-06 2.26333e-14)
(2764.5 2.00403e-06 2.56886e-14)
(2764.5 1.94325e-06 1.86043e-14)
(2764.5 1.87791e-06 2.04819e-14)
(2764.5 1.80871e-06 2.53704e-14)
(2764.5 1.73639e-06 2.04582e-14)
(2764.5 1.66177e-06 2.20766e-14)
(2764.5 1.58573e-06 2.06708e-14)
(2764.5 1.50916e-06 2.36452e-14)
(2764.5 1.43293e-06 2.18192e-14)
(2764.5 1.35773e-06 1.99816e-14)
(2764.5 1.28422e-06 1.91099e-14)
(2764.5 1.21307e-06 1.51705e-14)
(2764.5 1.14492e-06 1.91019e-14)
(2764.5 1.08049e-06 2.03887e-14)
(2764.5 1.02026e-06 2.08863e-14)
(2764.5 9.64494e-07 1.8323e-14)
(2764.5 9.13614e-07 1.94938e-14)
(2764.5 8.67419e-07 1.89918e-14)
(2764.5 8.26437e-07 1.80522e-14)
(2764.5 7.91058e-07 1.86828e-14)
(2764.5 7.59225e-07 1.66389e-14)
(2764.5 7.34364e-07 1.58559e-14)
(2764.5 7.17579e-07 2.49792e-14)
(2764.5 7.06471e-07 1.53834e-14)
(2764.5 7.11119e-07 1.92977e-14)
(2764.5 7.19616e-07 2.14394e-14)
(2764.5 7.24107e-07 2.00505e-14)
(2764.5 7.3112e-07 1.92658e-14)
(2764.5 7.43648e-07 1.93704e-14)
(2764.5 7.64331e-07 1.90779e-14)
(2764.5 7.93891e-07 2.00509e-14)
(2764.5 8.32104e-07 1.8657e-14)
(2764.5 8.78653e-07 1.91777e-14)
(2764.5 9.33323e-07 2.04092e-14)
(2764.5 9.95965e-07 2.03814e-14)
(2764.5 1.06638e-06 2.1082e-14)
(2764.5 1.1443e-06 1.97113e-14)
(2764.5 1.22932e-06 1.93985e-14)
(2764.5 1.32094e-06 2.06837e-14)
(2764.5 1.41848e-06 2.04778e-14)
(2764.5 1.52109e-06 1.89605e-14)
(2764.5 1.62775e-06 1.91573e-14)
(2764.5 1.73734e-06 1.89066e-14)
(2764.5 1.8487e-06 2.02642e-14)
(2764.5 1.96066e-06 1.89245e-14)
(2764.5 2.07215e-06 2.06518e-14)
(2764.5 2.18222e-06 2.01594e-14)
(2764.5 2.29007e-06 1.82446e-14)
(2764.5 2.39509e-06 1.76009e-14)
(2764.5 2.49684e-06 1.56574e-14)
(2764.5 2.59506e-06 1.85172e-14)
(2764.5 2.68965e-06 1.69302e-14)
(2764.5 2.78065e-06 1.64119e-14)
(2764.5 2.86825e-06 1.70398e-14)
(2764.5 2.95271e-06 1.90565e-14)
(2764.5 3.03443e-06 1.69474e-14)
(2764.5 3.11395e-06 2.02333e-14)
(2764.5 3.19201e-06 2.19514e-14)
(2764.5 3.26954e-06 1.71353e-14)
(2764.5 3.34766e-06 1.6751e-14)
(2764.5 3.42775e-06 1.59088e-14)
(2764.5 3.51138e-06 1.6936e-14)
(2764.5 3.60033e-06 2.03454e-14)
(2764.5 3.69653e-06 1.52986e-14)
(2764.5 3.80208e-06 1.61428e-14)
(2764.5 3.91921e-06 1.66883e-14)
(2764.5 4.05026e-06 1.63161e-14)
(2764.5 4.19769e-06 1.66016e-14)
(2764.5 4.36402e-06 1.78787e-14)
(2764.5 4.55187e-06 1.61498e-14)
(2764.5 4.7639e-06 1.84257e-14)
(2764.5 5.0028e-06 1.56559e-14)
(2764.5 5.27122e-06 1.57363e-14)
(2764.5 5.57175e-06 1.72187e-14)
(2764.5 5.90681e-06 1.40216e-14)
(2764.5 6.27859e-06 1.67649e-14)
(2764.5 6.68896e-06 1.84023e-14)
(2764.5 7.13937e-06 1.53136e-14)
(2764.5 7.63078e-06 1.45429e-14)
(2764.5 8.16358e-06 1.79854e-14)
(2764.5 8.73753e-06 1.72742e-14)
(2764.5 9.35173e-06 1.75489e-14)
(2764.5 1.00047e-05 1.56229e-14)
(2764.5 1.06941e-05 1.83181e-14)
(2764.5 1.14173e-05 1.94086e-14)
(2764.5 1.2171e-05 1.57934e-14)
(2764.5 1.29517e-05 1.5944e-14)
(2764.5 1.37554e-05 1.83725e-14)
(2764.5 1.45781e-05 1.69446e-14)
(2764.5 1.54157e-05 1.75514e-14)
(2764.5 1.62642e-05 1.67473e-14)
(2764.5 1.71195e-05 1.4984e-14)
(2764.5 1.79778e-05 1.7511e-14)
(2764.5 1.88351e-05 1.79268e-14)
(2764.5 1.96875e-05 1.6612e-14)
(2764.5 2.05308e-05 1.42373e-14)
(2764.5 2.13611e-05 1.78936e-14)
(2764.5 2.21739e-05 1.70578e-14)
(2764.5 2.29647e-05 1.5739e-14)
(2764.5 2.37287e-05 1.55423e-14)
(2764.5 2.44612e-05 1.59536e-14)
(2764.5 2.51571e-05 1.63655e-14)
(2764.5 2.58118e-05 1.50321e-14)
(2764.5 2.64206e-05 1.5e-14)
(2764.5 2.69799e-05 1.52124e-14)
(2764.5 1.10067e-05 2.92319e-14)
(2764.5 1.07343e-05 3.51009e-14)
(2764.5 1.04456e-05 2.92503e-14)
(2764.5 1.01439e-05 2.84812e-14)
(2764.5 9.83203e-06 3.06263e-14)
(2764.5 9.51245e-06 2.76377e-14)
(2764.5 9.18755e-06 3.07576e-14)
(2764.5 8.85946e-06 3.1135e-14)
(2764.5 8.53011e-06 2.77223e-14)
(2764.5 8.20159e-06 2.65471e-14)
(2764.5 7.87614e-06 3.00056e-14)
(2764.5 7.55585e-06 2.92283e-14)
(2764.5 7.2424e-06 2.83085e-14)
(2764.5 6.93729e-06 2.70603e-14)
(2764.5 6.64222e-06 2.82465e-14)
(2764.5 6.35888e-06 2.64561e-14)
(2764.5 6.08992e-06 2.56744e-14)
(2764.5 5.83757e-06 2.70721e-14)
(2764.5 5.60279e-06 2.71556e-14)
(2764.5 5.38762e-06 2.74639e-14)
(2764.5 5.19353e-06 2.55984e-14)
(2764.5 5.02604e-06 2.96398e-14)
(2764.5 4.87242e-06 2.88609e-14)
(2764.5 4.72328e-06 2.93742e-14)
(2764.5 4.61357e-06 2.54894e-14)
(2764.5 4.56035e-06 2.82617e-14)
(2764.5 4.55699e-06 2.91248e-14)
(2764.5 4.56716e-06 2.64825e-14)
(2764.5 4.58906e-06 2.49096e-14)
(2764.5 4.63277e-06 2.71533e-14)
(2764.5 4.7047e-06 2.67356e-14)
(2764.5 4.80777e-06 2.70977e-14)
(2764.5 4.94242e-06 2.60086e-14)
(2764.5 5.10728e-06 2.79786e-14)
(2764.5 5.30034e-06 2.77674e-14)
(2764.5 5.51938e-06 2.6952e-14)
(2764.5 5.76209e-06 2.86113e-14)
(2764.5 6.02606e-06 2.61164e-14)
(2764.5 6.30894e-06 2.63477e-14)
(2764.5 6.60861e-06 2.42729e-14)
(2764.5 6.92342e-06 2.65236e-14)
(2764.5 7.25242e-06 2.89266e-14)
(2764.5 7.59562e-06 2.56399e-14)
(2764.5 7.95419e-06 2.65823e-14)
(2764.5 8.33053e-06 2.79995e-14)
(2764.5 8.72815e-06 2.57866e-14)
(2764.5 9.15157e-06 2.51586e-14)
(2764.5 9.60608e-06 2.53257e-14)
(2764.5 1.00977e-05 2.97361e-14)
(2764.5 1.06328e-05 2.53149e-14)
(2764.5 1.12179e-05 2.22418e-14)
(2764.5 1.18594e-05 2.37636e-14)
(2764.5 1.25629e-05 2.44482e-14)
(2764.5 1.33334e-05 2.64031e-14)
(2764.5 1.41751e-05 2.25545e-14)
(2764.5 1.50915e-05 2.25782e-14)
(2764.5 1.60847e-05 2.55706e-14)
(2764.5 1.71561e-05 2.60529e-14)
(2764.5 1.83058e-05 2.45123e-14)
(2764.5 1.95323e-05 2.42726e-14)
(2764.5 2.08334e-05 2.60446e-14)
(2764.5 2.22053e-05 2.33213e-14)
(2764.5 2.36437e-05 2.20205e-14)
(2764.5 2.51433e-05 2.25573e-14)
(2764.5 2.66987e-05 2.26314e-14)
(2764.5 2.8304e-05 2.28003e-14)
(2764.5 2.99534e-05 2.24694e-14)
(2764.5 3.16411e-05 2.22172e-14)
(2764.5 3.33615e-05 2.17345e-14)
(2764.5 3.51086e-05 2.2349e-14)
(2764.5 3.68766e-05 2.27889e-14)
(2764.5 3.86595e-05 2.35792e-14)
(2764.5 4.04508e-05 2.33678e-14)
(2764.5 4.22441e-05 2.33698e-14)
(2764.5 4.40321e-05 2.12448e-14)
(2764.5 4.58075e-05 2.06817e-14)
(2764.5 4.75628e-05 2.30017e-14)
(2764.5 4.92904e-05 2.32165e-14)
(2764.5 5.09827e-05 2.30728e-14)
(2764.5 5.26328e-05 2.48664e-14)
(2764.5 5.42343e-05 2.43814e-14)
(2764.5 5.57821e-05 2.22275e-14)
(2764.5 5.72728e-05 2.10499e-14)
(2764.5 5.87049e-05 2.12207e-14)
(2764.5 6.00797e-05 2.3044e-14)
(2764.5 6.14017e-05 1.92186e-14)
(2764.5 6.26789e-05 2.12256e-14)
(2764.5 6.39234e-05 2.47651e-14)
(2764.5 6.51516e-05 2.40473e-14)
(2764.5 6.63847e-05 2.11704e-14)
(2764.5 6.76485e-05 2.21508e-14)
(2764.5 6.89733e-05 2.21317e-14)
(2764.5 7.03945e-05 2.22865e-14)
(2764.5 7.19516e-05 2.39655e-14)
(2764.5 7.36887e-05 2.12064e-14)
(2764.5 7.56542e-05 2.00712e-14)
(2764.5 7.79005e-05 2.43379e-14)
(2764.5 8.04845e-05 2.48793e-14)
(2764.5 8.34665e-05 2.03901e-14)
(2764.5 8.6911e-05 2.24057e-14)
(2764.5 9.08857e-05 2.22288e-14)
(2764.5 9.54612e-05 2.03003e-14)
(2764.5 0.00010071 2.20916e-14)
(2764.5 0.000106706 2.14543e-14)
(2764.5 0.000113523 1.93937e-14)
(2764.5 0.00012123 2.03017e-14)
(2764.5 4.83504e-05 3.85093e-14)
(2764.5 4.69314e-05 3.91418e-14)
(2764.5 4.54235e-05 3.91629e-14)
(2764.5 4.38422e-05 3.74527e-14)
(2764.5 4.22019e-05 3.90981e-14)
(2764.5 4.05187e-05 3.68199e-14)
(2764.5 3.88102e-05 3.53093e-14)
(2764.5 3.70963e-05 3.8663e-14)
(2764.5 3.53982e-05 4.02382e-14)
(2764.5 3.3735e-05 4.09072e-14)
(2764.5 3.21201e-05 3.70608e-14)
(2764.5 3.05637e-05 3.61268e-14)
(2764.5 2.90757e-05 3.82806e-14)
(2764.5 2.76668e-05 3.53636e-14)
(2764.5 2.63457e-05 3.35016e-14)
(2764.5 2.51165e-05 3.88721e-14)
(2764.5 2.39805e-05 3.63507e-14)
(2764.5 2.29342e-05 3.80696e-14)
(2764.5 2.19802e-05 3.82229e-14)
(2764.5 2.11295e-05 3.43754e-14)
(2764.5 2.03746e-05 3.48923e-14)
(2764.5 1.97396e-05 3.47046e-14)
(2764.5 1.92709e-05 3.49055e-14)
(2764.5 1.8861e-05 4.08366e-14)
(2764.5 1.85476e-05 3.76715e-14)
(2764.5 1.84895e-05 3.41051e-14)
(2764.5 1.85034e-05 3.39964e-14)
(2764.5 1.85642e-05 3.10626e-14)
(2764.5 1.86881e-05 3.12923e-14)
(2764.5 1.89431e-05 3.39084e-14)
(2764.5 1.93725e-05 3.38573e-14)
(2764.5 1.99893e-05 3.35459e-14)
(2764.5 2.07992e-05 3.38176e-14)
(2764.5 2.18078e-05 3.32468e-14)
(2764.5 2.30216e-05 3.38685e-14)
(2764.5 2.44488e-05 3.35844e-14)
(2764.5 2.60983e-05 3.50384e-14)
(2764.5 2.79781e-05 3.6384e-14)
(2764.5 3.00939e-05 3.09559e-14)
(2764.5 3.24483e-05 3.04509e-14)
(2764.5 3.504e-05 3.41761e-14)
(2764.5 3.7864e-05 3.49208e-14)
(2764.5 4.0911e-05 3.30928e-14)
(2764.5 4.41666e-05 3.18743e-14)
(2764.5 4.76117e-05 3.4175e-14)
(2764.5 5.12236e-05 3.46134e-14)
(2764.5 5.49771e-05 3.38164e-14)
(2764.5 5.88463e-05 3.36191e-14)
(2764.5 6.28062e-05 3.10511e-14)
(2764.5 6.6834e-05 3.29746e-14)
(2764.5 7.09093e-05 3.20766e-14)
(2764.5 7.50143e-05 2.93389e-14)
(2764.5 7.91337e-05 2.96617e-14)
(2764.5 8.3255e-05 3.34393e-14)
(2764.5 8.73674e-05 3.3655e-14)
(2764.5 9.14613e-05 3.18755e-14)
(2764.5 9.55273e-05 3.1519e-14)
(2764.5 9.95558e-05 3.24637e-14)
(2764.5 0.000103538 3.19178e-14)
(2764.5 0.000107465 3.06016e-14)
(2764.5 0.000111332 3.00359e-14)
(2764.5 0.000115138 3.24042e-14)
(2764.5 0.000118887 3.05929e-14)
(2764.5 0.000122589 2.97832e-14)
(2764.5 0.000126263 3.09995e-14)
(2764.5 0.000129934 3.03665e-14)
(2764.5 0.000133633 2.72213e-14)
(2764.5 0.000137403 2.79946e-14)
(2764.5 0.000141289 2.73412e-14)
(2764.5 0.000145346 2.84981e-14)
(2764.5 0.000149635 2.93103e-14)
(2764.5 0.000154223 2.83582e-14)
(2764.5 0.000159186 3.09558e-14)
(2764.5 0.000164602 2.94731e-14)
(2764.5 0.000170561 2.74959e-14)
(2764.5 0.000177155 2.89486e-14)
(2764.5 0.000184485 2.81181e-14)
(2764.5 0.000192657 2.84897e-14)
(2764.5 0.000201783 2.90861e-14)
(2764.5 0.000211976 2.91904e-14)
(2764.5 0.000223354 2.99831e-14)
(2764.5 0.000236035 3.00246e-14)
(2764.5 0.000250133 2.78501e-14)
(2764.5 0.000265759 2.60464e-14)
(2764.5 0.000283015 2.80884e-14)
(2764.5 0.000301992 2.93342e-14)
(2764.5 0.000322767 2.82334e-14)
(2764.5 0.000345398 2.81318e-14)
(2764.5 0.000369924 2.95497e-14)
(2764.5 0.000396359 2.8216e-14)
(2764.5 0.000424694 2.76859e-14)
(2764.5 0.000454893 3.08631e-14)
(2764.5 0.000486898 2.82146e-14)
(2764.5 0.000520628 2.74255e-14)
(2764.5 0.000555981 2.89033e-14)
(2764.5 0.00059284 2.69282e-14)
(2764.5 0.000631075 2.71572e-14)
(2764.5 0.000670545 2.9106e-14)
(2764.5 0.000711103 2.65512e-14)
(2764.5 0.0007526 2.68642e-14)
(2764.5 0.000794879 2.85602e-14)
(2764.5 0.000837782 2.5398e-14)
(2764.5 0.000881146 2.65524e-14)
(2764.5 0.0009248 2.8753e-14)
(2764.5 0.000968568 2.73263e-14)
(2764.5 0.00101226 2.63189e-14)
(2764.5 0.00105569 2.83928e-14)
(2764.5 0.000266801 4.85906e-14)
(2764.5 0.000260101 4.58794e-14)
(2764.5 0.000252911 4.70335e-14)
(2764.5 0.000245307 4.42917e-14)
(2764.5 0.000237374 4.54817e-14)
(2764.5 0.000229192 4.63007e-14)
(2764.5 0.000220832 4.88314e-14)
(2764.5 0.000212358 4.58182e-14)
(2764.5 0.000203824 4.70482e-14)
(2764.5 0.000195294 4.90125e-14)
(2764.5 0.000186842 4.44841e-14)
(2764.5 0.000178536 4.63056e-14)
(2764.5 0.000170426 4.68346e-14)
(2764.5 0.000162557 4.41002e-14)
(2764.5 0.000154986 4.69909e-14)
(2764.5 0.000147791 4.54496e-14)
(2764.5 0.000141036 4.18745e-14)
(2764.5 0.000134767 4.26862e-14)
(2764.5 0.000129026 4.36262e-14)
(2764.5 0.00012381 4.22166e-14)
(2764.5 0.000119112 4.31684e-14)
(2764.5 0.00011501 4.29459e-14)
(2764.5 0.000111548 4.33355e-14)
(2764.5 0.000108693 4.75772e-14)
(2764.5 0.000106922 3.89653e-14)
(2764.5 0.00010678 3.97873e-14)
(2764.5 0.000107133 3.94173e-14)
(2764.5 0.000107658 3.95141e-14)
(2764.5 0.000108641 4.17931e-14)
(2764.5 0.000110445 4.1571e-14)
(2764.5 0.000113197 4.19754e-14)
(2764.5 0.00011693 4.18744e-14)
(2764.5 0.000121641 4.2856e-14)
(2764.5 0.000127299 4.13959e-14)
(2764.5 0.000133852 4.33307e-14)
(2764.5 0.000141244 4.27371e-14)
(2764.5 0.00014941 4.11387e-14)
(2764.5 0.00015828 3.98714e-14)
(2764.5 0.000167777 3.86401e-14)
(2764.5 0.000177812 4.08841e-14)
(2764.5 0.000188293 4.04137e-14)
(2764.5 0.000199124 4.00942e-14)
(2764.5 0.000210214 4.06969e-14)
(2764.5 0.000221489 3.88548e-14)
(2764.5 0.000232896 4.17135e-14)
(2764.5 0.000244417 4.12229e-14)
(2764.5 0.000256067 3.94372e-14)
(2764.5 0.0002679 3.96853e-14)
(2764.5 0.000280007 3.79874e-14)
(2764.5 0.000292512 4.07601e-14)
(2764.5 0.000305569 3.97328e-14)
(2764.5 0.000319358 3.53799e-14)
(2764.5 0.000334075 3.77886e-14)
(2764.5 0.000349925 4.01574e-14)
(2764.5 0.000367114 4.28981e-14)
(2764.5 0.000385847 4.20996e-14)
(2764.5 0.000406322 4.00925e-14)
(2764.5 0.000428738 3.59284e-14)
(2764.5 0.000453283 3.50122e-14)
(2764.5 0.000480137 3.72308e-14)
(2764.5 0.000509464 3.73378e-14)
(2764.5 0.000541406 3.59541e-14)
(2764.5 0.000576086 3.64027e-14)
(2764.5 0.000613601 3.91937e-14)
(2764.5 0.000654024 3.4786e-14)
(2764.5 0.000697404 3.39956e-14)
(2764.5 0.000743765 4.1144e-14)
(2764.5 0.00079311 3.79293e-14)
(2764.5 0.000845417 3.21691e-14)
(2764.5 0.000900647 3.65143e-14)
(2764.5 0.000958736 3.68724e-14)
(2764.5 0.0010196 3.31625e-14)
(2764.5 0.00108314 3.40168e-14)
(2764.5 0.00114923 3.58961e-14)
(2764.5 0.00121773 3.57526e-14)
(2764.5 0.00128847 3.53802e-14)
(2764.5 0.00136127 3.5176e-14)
(2764.5 0.00143594 3.62425e-14)
(2764.5 0.00151226 3.63683e-14)
(2764.5 0.00159 3.35431e-14)
(2764.5 0.00166891 3.17306e-14)
(2764.5 0.00174874 3.49958e-14)
(2764.5 0.00182922 3.64977e-14)
(2764.5 0.00191007 3.56837e-14)
(2764.5 0.00199101 3.49318e-14)
(2764.5 0.00207176 3.3712e-14)
(2764.5 0.00215206 3.36824e-14)
(2764.5 0.00223166 3.46623e-14)
(2764.5 0.00231034 3.54404e-14)
(2764.5 0.00238795 3.39379e-14)
(2764.5 0.0024644 3.48012e-14)
(2764.5 0.00253968 3.33166e-14)
(2764.5 0.0026139 3.28024e-14)
(2764.5 0.00268729 3.51772e-14)
(2764.5 0.00276024 3.5285e-14)
(2764.5 0.00283328 3.28436e-14)
(2764.5 0.00290714 3.19732e-14)
(2764.5 0.00298273 3.45946e-14)
(2764.5 0.00306115 3.23898e-14)
(2764.5 0.00314369 3.1805e-14)
(2764.5 0.00323185 3.49644e-14)
(2764.5 0.00332731 3.35371e-14)
(2764.5 0.00343197 3.48082e-14)
(2764.5 0.00354789 3.34885e-14)
(2764.5 0.00367738 3.17602e-14)
(2764.5 0.0038229 3.07407e-14)
(2764.5 0.00398715 3.40155e-14)
(2764.5 0.00114528 5.49459e-14)
(2764.5 0.00111868 5.43394e-14)
(2764.5 0.00108973 5.63364e-14)
(2764.5 0.0010589 5.20692e-14)
(2764.5 0.00102669 5.17688e-14)
(2764.5 0.000993495 5.25012e-14)
(2764.5 0.000959625 5.20998e-14)
(2764.5 0.000925316 5.59319e-14)
(2764.5 0.000890816 5.41342e-14)
(2764.5 0.000856399 5.53257e-14)
(2764.5 0.000822388 5.08803e-14)
(2764.5 0.000789119 5.11464e-14)
(2764.5 0.000756813 5.67522e-14)
(2764.5 0.000725595 5.35965e-14)
(2764.5 0.000695613 5.16573e-14)
(2764.5 0.000667056 5.183e-14)
(2764.5 0.00064005 5.14105e-14)
(2764.5 0.000614603 5.24339e-14)
(2764.5 0.000590682 5.18369e-14)
(2764.5 0.000568323 5.15585e-14)
(2764.5 0.000547654 4.98914e-14)
(2764.5 0.000528926 5.10752e-14)
(2764.5 0.000512238 4.87875e-14)
(2764.5 0.000497865 5.03292e-14)
(2764.5 0.000486004 4.74485e-14)
(2764.5 0.000474973 5.03687e-14)
(2764.5 0.000465507 5.29344e-14)
(2764.5 0.000460388 5.00672e-14)
(2764.5 0.000459699 5.02552e-14)
(2764.5 0.000460565 4.94837e-14)
(2764.5 0.000462797 4.91169e-14)
(2764.5 0.000467648 4.87598e-14)
(2764.5 0.000475885 5.06272e-14)
(2764.5 0.000487838 5.21861e-14)
(2764.5 0.000503694 5.10122e-14)
(2764.5 0.000523654 4.9247e-14)
(2764.5 0.000547963 4.61219e-14)
(2764.5 0.000576881 4.75372e-14)
(2764.5 0.000610655 4.76094e-14)
(2764.5 0.000649513 4.75219e-14)
(2764.5 0.000693671 4.78542e-14)
(2764.5 0.000743321 4.8356e-14)
(2764.5 0.000798638 4.62036e-14)
(2764.5 0.000859782 4.59899e-14)
(2764.5 0.000926894 4.80684e-14)
(2764.5 0.00100008 4.83945e-14)
(2764.5 0.00107937 4.70212e-14)
(2764.5 0.00116476 4.76132e-14)
(2764.5 0.00125615 4.88892e-14)
(2764.5 0.00135339 4.85655e-14)
(2764.5 0.00145627 4.62443e-14)
(2764.5 0.00156459 4.53057e-14)
(2764.5 0.00167812 4.64249e-14)
(2764.5 0.00179667 4.57032e-14)
(2764.5 0.00192003 4.85723e-14)
(2764.5 0.00204796 4.45663e-14)
(2764.5 0.00218023 4.15044e-14)
(2764.5 0.0023166 4.74209e-14)
(2764.5 0.00245683 4.70001e-14)
(2764.5 0.00260063 4.35053e-14)
(2764.5 0.00274764 4.32694e-14)
(2764.5 0.00289745 4.6056e-14)
(2764.5 0.00304959 4.27514e-14)
(2764.5 0.00320356 4.29317e-14)
(2764.5 0.00335885 4.36464e-14)
(2764.5 0.003515 4.11527e-14)
(2764.5 0.00367162 4.75119e-14)
(2764.5 0.0038284 4.49374e-14)
(2764.5 0.00398518 4.34866e-14)
(2764.5 0.00414193 4.5661e-14)
(2764.5 0.00429876 4.34419e-14)
(2764.5 0.00445598 4.26734e-14)
(2764.5 0.00461406 4.12039e-14)
(2764.5 0.00477366 4.14317e-14)
(2764.5 0.00493563 4.30298e-14)
(2764.5 0.00510103 4.18656e-14)
(2764.5 0.00527117 4.22873e-14)
(2764.5 0.00544757 4.3059e-14)
(2764.5 0.00563202 4.04082e-14)
(2764.5 0.00582658 4.12382e-14)
(2764.5 0.00603358 4.07668e-14)
(2764.5 0.00625565 4.056e-14)
(2764.5 0.00649571 3.95576e-14)
(2764.5 0.00675698 3.81898e-14)
(2764.5 0.00704296 4.13074e-14)
(2764.49 0.00735747 4.10105e-14)
(2764.49 0.00770456 4.13431e-14)
(2764.49 0.00808858 4.0684e-14)
(2764.49 0.00851406 3.85186e-14)
(2764.49 0.00898574 3.82239e-14)
(2764.49 0.00950847 3.83992e-14)
(2764.49 0.0100871 3.98809e-14)
(2764.49 0.0107265 4.07314e-14)
(2764.49 0.0114314 3.73093e-14)
(2764.49 0.012206 3.77581e-14)
(2764.49 0.0130545 4.19337e-14)
(2764.49 0.0139803 3.9466e-14)
(2764.49 0.0149863 4.16328e-14)
(2764.49 0.0160745 4.04542e-14)
(2764.49 0.0172463 3.86556e-14)
(2764.49 0.0185021 3.87746e-14)
(2764.49 0.0198415 3.80604e-14)
(2764.49 0.0212633 4.04314e-14)
(2764.49 0.0227655 3.84194e-14)
(2764.49 0.0243455 4.08555e-14)
(2764.48 0.026 4.03879e-14)
(2764.48 0.0277252 3.86801e-14)
(2764.48 0.0295171 3.91203e-14)
(2764.48 0.0313711 3.60745e-14)
(2764.48 0.0332825 3.85657e-14)
(2764.5 0.0058504 5.95829e-14)
(2764.5 0.00571903 6.13821e-14)
(2764.5 0.00557468 6.41297e-14)
(2764.5 0.00541876 5.97367e-14)
(2764.5 0.00525268 6.20665e-14)
(2764.5 0.00507804 6.27465e-14)
(2764.5 0.00489674 6.26544e-14)
(2764.5 0.00471075 6.00557e-14)
(2764.5 0.00452196 6.22357e-14)
(2764.5 0.00433207 6.2759e-14)
(2764.5 0.00414254 5.94475e-14)
(2764.5 0.00395479 6.18619e-14)
(2764.5 0.00377065 6.35374e-14)
(2764.5 0.00359193 6.14145e-14)
(2764.5 0.0034197 5.70654e-14)
(2764.5 0.00325473 5.75754e-14)
(2764.5 0.00309824 6.31864e-14)
(2764.5 0.00295174 6.16148e-14)
(2764.5 0.00281639 6.13055e-14)
(2764.5 0.00269215 5.66272e-14)
(2764.5 0.00257907 5.78249e-14)
(2764.5 0.00247781 5.82604e-14)
(2764.5 0.00238779 5.75458e-14)
(2764.5 0.00231279 6.33274e-14)
(2764.5 0.00225593 5.83093e-14)
(2764.5 0.00221137 5.54926e-14)
(2764.5 0.00219275 6.0298e-14)
(2764.5 0.00220456 6.00966e-14)
(2764.5 0.00221376 5.7577e-14)
(2764.5 0.00222989 5.45734e-14)
(2764.5 0.00226103 5.3911e-14)
(2764.5 0.00231429 5.78729e-14)
(2764.5 0.0023919 5.80015e-14)
(2764.5 0.00249412 5.37103e-14)
(2764.5 0.00262092 5.38436e-14)
(2764.5 0.0027724 5.64785e-14)
(2764.5 0.00294853 5.51576e-14)
(2764.5 0.00314911 5.52654e-14)
(2764.5 0.00337363 5.41036e-14)
(2764.5 0.0036213 5.66242e-14)
(2764.5 0.003891 5.61758e-14)
(2764.5 0.00418119 5.48789e-14)
(2764.5 0.00448993 5.36833e-14)
(2764.5 0.00481485 5.52437e-14)
(2764.5 0.00515325 5.44973e-14)
(2764.5 0.00550226 5.41326e-14)
(2764.5 0.00585909 5.57432e-14)
(2764.5 0.00622113 5.61673e-14)
(2764.5 0.00658624 5.32589e-14)
(2764.5 0.00695298 5.36598e-14)
(2764.5 0.00732084 5.27968e-14)
(2764.49 0.00769014 5.43351e-14)
(2764.49 0.00806205 5.1535e-14)
(2764.49 0.00843855 5.30708e-14)
(2764.49 0.00882247 5.43519e-14)
(2764.49 0.00921739 5.09956e-14)
(2764.49 0.00962742 5.28308e-14)
(2764.49 0.010057 5.06724e-14)
(2764.49 0.0105109 5.2472e-14)
(2764.49 0.0109938 5.39929e-14)
(2764.49 0.0115109 5.1427e-14)
(2764.49 0.0120674 5.26791e-14)
(2764.49 0.012669 5.13114e-14)
(2764.49 0.0133213 5.03997e-14)
(2764.49 0.0140303 4.75613e-14)
(2764.49 0.0148019 5.03722e-14)
(2764.49 0.0156422 5.32875e-14)
(2764.49 0.0165574 4.77003e-14)
(2764.49 0.0175537 5.04655e-14)
(2764.49 0.018637 5.32367e-14)
(2764.49 0.0198135 4.98484e-14)
(2764.49 0.0210889 4.83369e-14)
(2764.49 0.0224686 4.81894e-14)
(2764.48 0.0239578 5.15001e-14)
(2764.48 0.0255608 4.84e-14)
(2764.48 0.0272816 4.72077e-14)
(2764.48 0.0291232 4.95581e-14)
(2764.48 0.0310876 4.82662e-14)
(2764.48 0.0331762 4.69154e-14)
(2764.48 0.035389 4.67037e-14)
(2764.48 0.0377252 4.54479e-14)
(2764.48 0.0401831 4.53917e-14)
(2764.47 0.04276 4.74273e-14)
(2764.47 0.0454524 4.62916e-14)
(2764.47 0.048256 4.68822e-14)
(2764.47 0.0511661 4.84242e-14)
(2764.47 0.0541771 4.79544e-14)
(2764.47 0.057283 4.33839e-14)
(2764.46 0.0604772 4.41443e-14)
(2764.46 0.0637526 4.44448e-14)
(2764.46 0.0671016 4.6473e-14)
(2764.46 0.0705159 4.44546e-14)
(2764.46 0.073987 4.75527e-14)
(2764.45 0.0775061 4.52855e-14)
(2764.45 0.0810643 4.50538e-14)
(2764.45 0.084653 4.54849e-14)
(2764.45 0.0882642 4.57692e-14)
(2764.44 0.0918911 4.65351e-14)
(2764.44 0.0955285 4.37421e-14)
(2764.44 0.0991738 4.60929e-14)
(2764.44 0.102827 4.67405e-14)
(2764.43 0.106494 4.5463e-14)
(2764.43 0.110181 4.50726e-14)
(2764.43 0.113905 4.34225e-14)
(2764.42 0.117685 4.55406e-14)
(2764.42 0.121549 4.40055e-14)
(2764.42 0.125529 4.41865e-14)
(2764.41 0.129668 4.40427e-14)
(2764.41 0.134015 4.43306e-14)
(2764.41 0.138625 4.21111e-14)
(2764.49 0.0244127 7.28483e-14)
(2764.49 0.0238218 7.11747e-14)
(2764.49 0.0231956 7.08162e-14)
(2764.49 0.0225413 7.08684e-14)
(2764.49 0.0218662 7.30827e-14)
(2764.49 0.0211768 7.00449e-14)
(2764.49 0.0204781 6.84391e-14)
(2764.49 0.0197745 7.03437e-14)
(2764.49 0.0190705 7.29388e-14)
(2764.49 0.0183707 7.16916e-14)
(2764.49 0.0176809 7.19866e-14)
(2764.49 0.0170063 6.83991e-14)
(2764.49 0.0163497 7.05659e-14)
(2764.49 0.0157132 6.83575e-14)
(2764.49 0.0151015 6.83716e-14)
(2764.49 0.0145178 6.94701e-14)
(2764.49 0.0139624 7.01671e-14)
(2764.49 0.0134361 6.8997e-14)
(2764.49 0.0129415 6.90905e-14)
(2764.49 0.012485 6.65513e-14)
(2764.49 0.0120734 7.19496e-14)
(2764.49 0.0117043 6.82031e-14)
(2764.49 0.0113804 6.68585e-14)
(2764.49 0.0110996 6.80479e-14)
(2764.49 0.0108364 6.78939e-14)
(2764.49 0.0106329 6.70046e-14)
(2764.49 0.0105455 6.42878e-14)
(2764.49 0.0105456 6.5009e-14)
(2764.49 0.0105725 6.65191e-14)
(2764.49 0.0106343 6.27871e-14)
(2764.49 0.0107563 6.30097e-14)
(2764.49 0.0109537 6.35908e-14)
(2764.49 0.0112344 6.39032e-14)
(2764.49 0.011602 6.54959e-14)
(2764.49 0.0120586 6.37513e-14)
(2764.49 0.0126069 6.37269e-14)
(2764.49 0.0132494 6.31256e-14)
(2764.49 0.0139889 6.31794e-14)
(2764.49 0.0148281 6.20719e-14)
(2764.49 0.0157698 6.28557e-14)