/*--------------------------------*- C++ -*----------------------------------*\
| =========                 |                                                 |
| \\      /  F ield         | OpenFOAM: The Open Source CFD Toolbox           |
|  \\    /   O peration     | Version:  v1706                                 |
|   \\  /    A nd           | Web:      www.OpenFOAM.com                      |
|    \\/     M anipulation  |                                                 |
\*---------------------------------------------------------------------------*/
FoamFile
{
    version     2.0;
    format      ascii;
    class       volScalarField;
    location    "4e-06";
    object      wallHeatFlux;
}
// * * * * * * * * * * * * * * * * * * * * * * * * * * * * * * * * * * * * * //

dimensions      [1 0 -3 0 0 0 0];


internalField   uniform 0;

boundaryField
{
    cone
    {
        type            calculated;
        value           nonuniform List<scalar> 
181
(
-3656.84
-3656.4
-3655.99
-3655.6
-3655.23
-3654.87
-3654.52
-3654.19
-3653.87
-3653.56
-3653.27
-3652.98
-3652.7
-3652.42
-3652.15
-3651.88
-3651.61
-3651.34
-3651.08
-3650.81
-3650.55
-3650.29
-3650.02
-3649.76
-3649.49
-3649.23
-3648.97
-3648.71
-3648.45
-3648.19
-3647.93
-3647.67
-3647.41
-3647.15
-3646.89
-3646.64
-3646.38
-3646.12
-3645.87
-3645.61
-3645.36
-3645.1
-3644.85
-3644.6
-3644.34
-3644.09
-3643.84
-3643.59
-3643.33
-3643.08
-3642.83
-3642.58
-3642.33
-3642.08
-3641.83
-3641.58
-3641.33
-3641.09
-3640.84
-3640.59
-3640.34
-3640.1
-3639.85
-3639.6
-3639.36
-3639.11
-3638.87
-3638.62
-3638.38
-3638.14
-3637.89
-3637.65
-3637.41
-3637.17
-3636.92
-3636.68
-3636.44
-3636.2
-3635.96
-3635.72
-3635.48
-3635.24
-3635
-3634.76
-3634.52
-3634.29
-3634.05
-3633.81
-3633.57
-3633.34
-3633.1
-3632.87
-3632.63
-3632.4
-3632.16
-3631.93
-3631.69
-3631.46
-3631.23
-3630.99
-3630.76
-3630.53
-3630.3
-3630.06
-3629.83
-3629.6
-3629.37
-3629.14
-3628.91
-3628.68
-3628.45
-3628.22
-3627.99
-3627.77
-3627.54
-3627.31
-3627.08
-3626.86
-3626.63
-3626.4
-3626.18
-3625.95
-3625.73
-3625.5
-3625.28
-3625.05
-3624.83
-3624.6
-3624.38
-3624.16
-3623.93
-3623.71
-3623.49
-3623.27
-3623.05
-3622.82
-3622.6
-3622.38
-3622.16
-3621.94
-3621.72
-3621.5
-3621.28
-3621.07
-3620.85
-3620.63
-3620.41
-3620.19
-3619.98
-3619.76
-3619.54
-3619.33
-3619.11
-3618.9
-3618.68
-3618.47
-3618.26
-3618.04
-3617.83
-3617.63
-3617.42
-3617.22
-3617.03
-3616.83
-3616.64
-3616.45
-3616.26
-3616.08
-3615.89
-3615.71
-3615.54
-3615.37
-3615.2
-3615.04
-3614.89
-3614.76
-3614.63
-3614.51
-3614.38
-3614.21
-3613.98
)
;
    }
    inlet
    {
        type            calculated;
        value           uniform 0;
    }
    rWedge
    {
        type            wedge;
    }
    lWedge
    {
        type            wedge;
    }
    outlet
    {
        type            calculated;
        value           nonuniform 0();
    }
    procBoundary1to0
    {
        type            processor;
        value           uniform 0;
    }
    procBoundary1to2
    {
        type            processor;
        value           uniform 0;
    }
}


// ************************************************************************* //
